   * xtb version 6.7.1 (edcfbbe) compiled by 'albert@albert-system' on 2024-07-22

   ID    Z sym.   atoms
    1    6 C      1-12, 14-16, 18-22, 24-29, 31-44, 46, 48
    2    7 N      13, 17, 23, 45, 47
    3    8 O      30
    4    1 H      49-75

          program call               : xtb data2507/toluene/2H-Qz/2H-Qz_toluene_S0_finalOpt.xtbopt.xyz --gfn 2 --uhf 2 --gbsa toluene --ohess vtight --parallel 40 --molden --ceasefiles --namespace data2507/toluene/2H-Qz/2H-Qz_toluene_T1_preOpt
      * Solvation model:               GBSA
        Solvent                        toluene
        Solvent mass                       9.2140E+01 g/mol
          :  Hamiltonian                  GFN2-xTB          :
 * total energy  :  -122.3945984 Eh     change       -0.2767848E-08 Eh
 * total energy  :  -122.3982408 Eh     change       -0.3642383E-02 Eh
 * total energy  :  -122.3994484 Eh     change       -0.1207654E-02 Eh
 * total energy  :  -122.3995834 Eh     change       -0.1349385E-03 Eh
 * total energy  :  -122.3997172 Eh     change       -0.1338263E-03 Eh
 * total energy  :  -122.3997853 Eh     change       -0.6815218E-04 Eh
 * total energy  :  -122.3998779 Eh     change       -0.9255456E-04 Eh
 * total energy  :  -122.3999483 Eh     change       -0.7040561E-04 Eh
 * total energy  :  -122.3999912 Eh     change       -0.4288087E-04 Eh
 * total energy  :  -122.4000185 Eh     change       -0.2726804E-04 Eh
 * total energy  :  -122.4009710 Eh     change       -0.1205378E-05 Eh
 * total energy  :  -122.4009720 Eh     change       -0.1001148E-05 Eh
 * total energy  :  -122.4009724 Eh     change       -0.3934105E-06 Eh
 * total energy  :  -122.4009728 Eh     change       -0.3565550E-06 Eh
 * total energy  :  -122.4009731 Eh     change       -0.3108701E-06 Eh
 * total energy  :  -122.4009733 Eh     change       -0.1758385E-06 Eh
 * total energy  :  -122.4009735 Eh     change       -0.2348980E-06 Eh
 * total energy  :  -122.4009737 Eh     change       -0.2172958E-06 Eh
 * total energy  :  -122.4009737 Eh     change       -0.3041407E-08 Eh
   *** GEOMETRY OPTIMIZATION CONVERGED AFTER 94 ITERATIONS ***

 final structure:
================
75
 xtb: 6.7.1 (edcfbbe)
C           -9.65687709209850       -1.01969749631092       -0.31649616977400
C           -9.37980883772565        0.08752410207295        0.47157549947170
C           -8.06908985480429        0.51284368842427        0.59340923769087
C           -7.06519489505553       -0.18689085029145       -0.08098606349432
C           -5.64932978246143        0.20417513672802        0.00920899563606
C           -5.27330245351913        1.52661612900089        0.22510502423379
C           -3.92720662545181        1.88297456506902        0.31528145203333
C           -3.57694659272009        3.29477223958541        0.53631180655787
C           -2.33530671310041        3.82193737705431        0.17060871005716
C           -2.07462287509250        5.15834391451208        0.41412932383959
C           -3.05482963374250        5.93774013601599        1.01022553440344
C           -4.26159286576252        5.33016106480901        1.32201688373505
N           -4.51883359549176        4.05631089729857        1.09528099899501
C           -2.95678396482122        0.89589218137999        0.20636614161838
C           -3.31783631071236       -0.43208575538513       -0.01969521353075
C           -2.29142259534032       -1.45667154019028       -0.13801922909201
N           -1.02847351718030       -1.11957754300760        0.00868702178135
C           -0.02824053695878       -1.99846492414769       -0.11583346577729
C            1.30102232875433       -1.44358232880363       -0.10843221223960
C            2.37605158916516       -2.00894889112568       -0.81747395709099
C            3.62228178747585       -1.42638112192507       -0.79853400435636
C            3.84085359298806       -0.25297904785047       -0.07760198817964
N            5.13377111963201        0.33396660599794       -0.05066625758019
C            6.16530980433329       -0.28195420737746        0.63982962264752
C            5.97207502384399       -1.45255621665177        1.37209621465980
C            7.02621738278602       -2.04251375660922        2.04461111147377
C            8.29069636788671       -1.47586332477432        2.00683259172075
C            8.49838970910703       -0.30185991210931        1.30226279912519
C            7.44748824351604        0.29699303965330        0.62650558891081
O            7.70905245403126        1.46402917077606       -0.03571049939896
C            6.67815581444049        2.06662679886050       -0.70146312194358
C            6.95603641928658        3.24892636728673       -1.36824342862326
C            5.95769955657235        3.89762528538266       -2.07557528624357
C            4.68336013156960        3.35452079195480       -2.12390740714671
C            4.39693926903877        2.17482834681774       -1.46192264437874
C            5.38340562599016        1.51643712652923       -0.72888827092629
C            2.77839041290555        0.34561019433991        0.60128289137537
C            1.53368727481632       -0.23369438552951        0.57684988258104
C           -0.33800264501185       -3.40150570462269       -0.26049799586016
C            0.56083300856262       -4.45920299978590       -0.16285417719449
C            0.13931391504375       -5.76806843183956       -0.34890147829487
C           -1.19202423403869       -6.03874781654306       -0.62090774876722
C           -2.12145624938310       -5.01542281504359       -0.65338728828086
C           -1.72574302755233       -3.68856489128430       -0.44542535721209
N           -2.64999816446245       -2.71524179287694       -0.39702681041775
C           -4.66518480176460       -0.76859702196950       -0.12747434715522
N           -7.33822241895961       -1.25943308825801       -0.82388548374688
C           -8.59165211633014       -1.65546724868473       -0.93640911730082
H          -10.66509436768865       -1.38256298089733       -0.44163573668264
H          -10.17426771632930        0.60929839070396        0.98619911998357
H           -7.82045219344304        1.35864722531028        1.21468420719239
H           -6.00986512791483        2.31035675778155        0.30313382024595
H           -1.59811451915736        3.19980477431117       -0.31153426843806
H           -1.12178554123046        5.58801796330354        0.13907961667551
H           -2.89218458225251        6.98328300444317        1.22012948571251
H           -5.06866880712129        5.88940755188070        1.77984468881718
H           -1.90729755370162        1.12463685112992        0.30524386863526
H            2.21292132499131       -2.88148971500687       -1.43050374252733
H            4.43651515294470       -1.86612291503133       -1.35653968014851
H            4.98806984981460       -1.89159386559120        1.41127120742166
H            6.85489748929963       -2.94945792923871        2.60309822834425
H            9.11250011137757       -1.93889531424746        2.52930148462797
H            9.46704696975090        0.17039693795409        1.26462506312388
H            7.96017018653775        3.63915654504683       -1.32173648049066
H            6.17944315094184        4.81820934290083       -2.59143445948450
H            3.90421901773369        3.84847101426444       -2.68318700273573
H            3.40696018376157        1.75057998961087       -1.51171665077828
H            2.94626433864746        1.25993547266378        1.15190236801041
H            0.70961106016588        0.21918551107914        1.10621671135450
H            1.59046148880849       -4.26592267641214        0.09590948374362
H            0.85363851599801       -6.57459414334118       -0.27402290952458
H           -1.51481241494380       -7.05672556335022       -0.78468221644386
H           -3.16740210862510       -5.21201856829985       -0.83218069381599
H           -4.94469214553076       -1.79421459592001       -0.30875775132181
H           -8.74493420534428       -2.52975261506268       -1.55758258809773

          :  Hamiltonian                  GFN2-xTB          :
         :: gradient norm              0.000036217133 Eh/a0 ::
         :: HOMO-LUMO gap              0.641929374252 eV    ::
         :: SCC energy              -124.561914655455 Eh    ::
         :: -> dispersion             -0.101074884928 Eh    ::
         :: -> Gsolv                  -0.057820967608 Eh    ::
         :: repulsion energy           2.160940945699 Eh    ::

    * Orbital Energies and Occupations

         #    Occupation            Energy/Eh            Energy/eV
      -------------------------------------------------------------
         1        2.0000           -0.7524163             -20.4743
       ...           ...                  ...                  ...
       102        2.0000           -0.4133894             -11.2489
       103        2.0000           -0.4120840             -11.2134
       104        2.0000           -0.4078973             -11.0995
       105        2.0000           -0.4041492             -10.9975
       106        2.0000           -0.3970483             -10.8042
       107        2.0000           -0.3959297             -10.7738
       108        2.0000           -0.3900246             -10.6131
       109        2.0000           -0.3767646             -10.2523
       110        2.0000           -0.3686345             -10.0311
       111        1.9989           -0.3650977              -9.9348
       112        1.6671           -0.3592576              -9.7759
       113        1.3340           -0.3579412              -9.7401
       114        1.0000           -0.2881699              -7.8415 (HOMO)
       115        0.0000           -0.2645792              -7.1996 (LUMO)
       116        0.0000           -0.2629031              -7.1540
       117                         -0.2569891              -6.9930
       118                         -0.2478620              -6.7447
       119                         -0.2451459              -6.6708
       120                         -0.2430455              -6.6136
       121                         -0.2390509              -6.5049
       122                         -0.2344086              -6.3786
       123                         -0.2291145              -6.2345
       124                         -0.2279930              -6.2040
       125                         -0.2120425              -5.7700
       ...                                ...                  ...
       219                          0.7086111              19.2823
      -------------------------------------------------------------
                  HL-Gap            0.0235908 Eh            0.6419 eV

     #   Z          covCN         q      C6AA      α(0)
     1   6 C        2.914    -0.043    29.077     8.842
     2   6 C        2.927    -0.012    28.323     8.728
     3   6 C        2.917    -0.046    29.132     8.851
     4   6 C        2.961     0.096    25.872     8.343
     5   6 C        2.975     0.005    27.909     8.666
     6   6 C        2.929    -0.036    28.904     8.817
     7   6 C        2.975     0.003    27.944     8.671
     8   6 C        2.959     0.095    25.888     8.346
     9   6 C        2.917    -0.045    29.128     8.850
    10   6 C        2.927    -0.012    28.326     8.728
    11   6 C        2.914    -0.043    29.080     8.843
    12   6 C        2.902     0.060    26.648     8.464
    13   7 N        1.844    -0.249    27.341     7.749
    14   6 C        2.928    -0.037    28.928     8.820
    15   6 C        2.978    -0.003    28.092     8.694
    16   6 C        2.895     0.176    24.230     8.071
    17   7 N        1.855    -0.249    27.338     7.750
    18   6 C        2.936     0.064    26.573     8.454
    19   6 C        2.977     0.001    28.012     8.682
    20   6 C        2.920    -0.042    29.046     8.838
    21   6 C        2.916    -0.041    29.008     8.832
    22   6 C        2.923     0.039    27.121     8.540
    23   7 N        2.752    -0.028    21.781     6.931
    24   6 C        2.925     0.046    26.963     8.515
    25   6 C        2.921    -0.051    29.265     8.871
    26   6 C        2.918    -0.030    28.759     8.794
    27   6 C        2.919    -0.031    28.764     8.795
    28   6 C        2.917    -0.052    29.296     8.876
    29   6 C        2.884     0.130    25.162     8.224
    30   8 O        1.709    -0.233    17.863     5.706
    31   6 C        2.884     0.130    25.162     8.224
    32   6 C        2.917    -0.052    29.297     8.876
    33   6 C        2.919    -0.031    28.765     8.795
    34   6 C        2.918    -0.030    28.759     8.794
    35   6 C        2.921    -0.051    29.270     8.872
    36   6 C        2.925     0.046    26.963     8.515
    37   6 C        2.915    -0.040    29.006     8.832
    38   6 C        2.925    -0.035    28.878     8.813
    39   6 C        2.975    -0.014    28.351     8.734
    40   6 C        2.916    -0.054    29.345     8.883
    41   6 C        2.916    -0.042    29.032     8.836
    42   6 C        2.915    -0.035    28.877     8.812
    43   6 C        2.921    -0.061    29.518     8.910
    44   6 C        2.950     0.102    25.741     8.321
    45   7 N        1.849    -0.280    28.114     7.858
    46   6 C        2.930    -0.029    28.720     8.789
    47   7 N        1.843    -0.249    27.341     7.749
    48   6 C        2.903     0.061    26.642     8.463
    49   1 H        0.926     0.041     2.440     2.443
    50   1 H        0.926     0.042     2.418     2.432
    51   1 H        0.926     0.046     2.376     2.410
    52   1 H        0.926     0.056     2.242     2.342
    53   1 H        0.926     0.042     2.419     2.432
    54   1 H        0.926     0.042     2.416     2.431
    55   1 H        0.926     0.041     2.438     2.442
    56   1 H        0.925     0.035     2.518     2.481
    57   1 H        0.926     0.050     2.320     2.382
    58   1 H        0.926     0.039     2.460     2.453
    59   1 H        0.926     0.039     2.461     2.453
    60   1 H        0.926     0.053     2.281     2.362
    61   1 H        0.926     0.055     2.263     2.352
    62   1 H        0.926     0.057     2.236     2.338
    63   1 H        0.926     0.063     2.168     2.303
    64   1 H        0.926     0.063     2.169     2.303
    65   1 H        0.926     0.057     2.236     2.338
    66   1 H        0.926     0.055     2.262     2.352
    67   1 H        0.926     0.054     2.272     2.357
    68   1 H        0.926     0.041     2.438     2.442
    69   1 H        0.926     0.042     2.423     2.434
    70   1 H        0.926     0.035     2.512     2.478
    71   1 H        0.926     0.029     2.605     2.524
    72   1 H        0.926     0.031     2.575     2.509
    73   1 H        0.926     0.033     2.547     2.495
    74   1 H        0.926     0.062     2.174     2.306
    75   1 H        0.925     0.034     2.525     2.485

molecular dipole:
                 x           y           z       tot (Debye)
 q only:        3.756       1.738       0.214
   full:        3.859       1.777       0.254      10.819

 projected vibrational frequencies (cm⁻¹)
eigval :       -0.00    -0.00    -0.00    -0.00     0.00     0.00
eigval :        7.77    12.12    14.90    25.63    33.12    35.25
eigval :       37.70    45.58    51.12    55.20    59.93    71.58
eigval :       72.62    85.64   100.68   105.68   114.59   145.13
eigval :      151.55   167.65   183.94   193.63   204.20   213.08
eigval :      222.86   243.15   248.26   260.20   263.35   271.43
eigval :      275.04   291.20   331.55   362.08   363.93   370.14
eigval :      376.33   378.46   382.04   387.34   393.10   400.75
eigval :      411.66   424.02   432.73   448.37   459.12   465.29
eigval :      478.62   492.12   500.82   512.13   516.70   529.27
eigval :      539.07   545.53   568.85   571.64   578.15   582.09
eigval :      588.81   591.22   601.86   609.93   610.90   616.86
eigval :      642.38   643.59   660.97   668.55   671.16   672.85
eigval :      679.58   697.83   710.43   713.20   720.14   756.22
eigval :      761.47   766.63   773.93   775.54   777.54   796.96
eigval :      806.99   826.02   832.32   838.13   845.20   855.10
eigval :      857.40   867.83   868.08   880.80   881.74   884.71
eigval :      886.94   888.42   889.85   899.78   902.08   902.97
eigval :      909.34   915.27   915.92   917.11   918.07   918.97
eigval :      920.83   930.12   932.29   934.40   949.95   988.73
eigval :      998.57  1000.63  1008.13  1082.63  1082.93  1084.01
eigval :     1087.77  1093.13  1096.66  1105.13  1112.27  1114.82
eigval :     1118.68  1121.12  1125.20  1129.47  1133.54  1161.99
eigval :     1163.99  1166.83  1168.35  1171.22  1174.54  1181.99
eigval :     1195.93  1205.80  1218.50  1222.63  1230.67  1236.11
eigval :     1237.88  1245.85  1246.28  1251.90  1253.38  1261.22
eigval :     1270.52  1282.82  1284.18  1290.15  1306.17  1307.91
eigval :     1314.36  1321.25  1326.57  1334.83  1340.97  1345.35
eigval :     1370.64  1377.84  1398.43  1401.33  1410.18  1413.20
eigval :     1417.10  1420.17  1435.09  1438.72  1439.39  1446.75
eigval :     1452.90  1462.40  1475.66  1476.62  1502.65  1525.73
eigval :     1539.63  1549.31  1553.04  1553.99  1560.91  1561.78
eigval :     1564.64  1570.39  1571.77  1577.26  1579.84  1583.54
eigval :     3040.18  3041.16  3067.01  3068.12  3070.10  3075.89
eigval :     3077.82  3078.97  3089.65  3092.66  3093.74  3094.46
eigval :     3095.51  3095.80  3096.33  3096.55  3098.41  3098.97
eigval :     3101.64  3103.43  3103.55  3108.10  3110.15  3111.69
eigval :     3112.22  3115.06  3115.39

   temp. (K)  partition function   enthalpy   heat capacity  entropy
                                   cal/mol     cal/K/mol   cal/K/mol   J/K/mol
 298.15  VIB  0.368E+18            21986.908    138.354    137.458
         ROT  0.108E+09              888.752      2.981     39.737
         INT  0.397E+26            22875.661    141.335    177.194
         TR   0.149E+29             1481.254      4.968     45.125
         TOT                       24356.9147   146.3032   222.3195   930.1848

       T/K    H(0)-H(T)+PV         H(T)/Eh          T*S/Eh         G(T)/Eh
   ------------------------------------------------------------------------
    298.15    0.388152E-01    0.598420E+00    0.105631E+00    0.492788E+00
   ------------------------------------------------------------------------

         :::::::::::::::::::::::::::::::::::::::::::::::::::::
         ::                  THERMODYNAMIC                  ::
         :::::::::::::::::::::::::::::::::::::::::::::::::::::
         :: total free energy        -121.908185344330 Eh   ::
         ::.................................................::
         :: total energy             -122.400973710573 Eh   ::
         :: zero point energy           0.559604318035 Eh   ::
         :: G(RRHO) w/o ZPVE           -0.066815951793 Eh   ::
         :: G(RRHO) contrib.            0.492788366243 Eh   ::
         :::::::::::::::::::::::::::::::::::::::::::::::::::::

           -------------------------------------------------
          | TOTAL ENERGY             -122.400973710573 Eh   |
          | TOTAL ENTHALPY           -121.802554178266 Eh   |
          | TOTAL FREE ENERGY        -121.908185344330 Eh   |
          | GRADIENT NORM               0.000041823065 Eh/α |
          | HOMO-LUMO GAP               0.641937566986 eV   |
           -------------------------------------------------

 * finished run on 2025/09/12 at 15:12:26.065
