   * xtb version 6.7.1 (edcfbbe) compiled by 'albert@albert-system' on 2024-07-22

   ID    Z sym.   atoms
    1    6 C      1-12, 14-16, 18-22, 24-29, 31-44, 46, 48
    2    7 N      13, 17, 23, 45, 47
    3    8 O      30
    4    1 H      49-75

          program call               : xtb data2507/toluene/2H-Qz/2H-Qz_toluene_T1_crest.xyz --gfn 2 --uhf 2 --gbsa toluene --ohess vtight --parallel 40 --molden --ceasefiles --namespace data2507/toluene/2H-Qz/2H-Qz_toluene_T1_finalOpt
      * Solvation model:               GBSA
        Solvent                        toluene
        Solvent mass                       9.2140E+01 g/mol
          :  Hamiltonian                  GFN2-xTB          :
 * total energy  :  -122.4008341 Eh     change       -0.6510722E-07 Eh
 * total energy  :  -122.4009154 Eh     change       -0.8128921E-04 Eh
 * total energy  :  -122.4009456 Eh     change       -0.3021848E-04 Eh
 * total energy  :  -122.4009502 Eh     change       -0.4589964E-05 Eh
 * total energy  :  -122.4009527 Eh     change       -0.2545059E-05 Eh
 * total energy  :  -122.4009546 Eh     change       -0.1888824E-05 Eh
 * total energy  :  -122.4009573 Eh     change       -0.2712117E-05 Eh
 * total energy  :  -122.4009599 Eh     change       -0.2603983E-05 Eh
 * total energy  :  -122.4009625 Eh     change       -0.2507548E-05 Eh
 * total energy  :  -122.4009643 Eh     change       -0.1832079E-05 Eh
 * total energy  :  -122.4009690 Eh     change       -0.1059695E-05 Eh
 * total energy  :  -122.4009700 Eh     change       -0.1022281E-05 Eh
 * total energy  :  -122.4009709 Eh     change       -0.9038158E-06 Eh
 * total energy  :  -122.4009715 Eh     change       -0.6518029E-06 Eh
 * total energy  :  -122.4009720 Eh     change       -0.4887636E-06 Eh
 * total energy  :  -122.4009724 Eh     change       -0.3515009E-06 Eh
 * total energy  :  -122.4009727 Eh     change       -0.3426338E-06 Eh
 * total energy  :  -122.4009730 Eh     change       -0.2683833E-06 Eh
 * total energy  :  -122.4009730 Eh     change       -0.1057349E-07 Eh
   *** GEOMETRY OPTIMIZATION CONVERGED AFTER 22 ITERATIONS ***

 final structure:
================
75
 xtb: 6.7.1 (edcfbbe)
C           -9.67365219755128       -0.87139205247555       -0.28626336475433
C           -9.38188449894089        0.26459084750595        0.45407758147619
C           -8.06466868993649        0.67205996542584        0.56639679075238
C           -7.06897095541340       -0.07305920019777       -0.07051517623416
C           -5.64682922014007        0.29666720245313        0.01035398866948
C           -5.24727818292608        1.61792109035740        0.18852893923212
C           -3.89514095450384        1.95281533705424        0.26971797596325
C           -3.51977829943924        3.36374576186771        0.45235784029356
C           -2.26951056729886        3.85889255137082        0.07166549346468
C           -1.98377600897755        5.19573535094283        0.28235560008116
C           -2.94829455936567        6.00735546667513        0.86077818123753
C           -4.16569114851936        5.43010572577588        1.18844326645796
N           -4.44671933253647        4.15605104444669        0.99324804700676
C           -2.94207759318838        0.94642375107707        0.18813200061158
C           -3.32654257771383       -0.38091836480390        0.00002045030456
C           -2.31843564067742       -1.42618614908828       -0.09053820470452
N           -1.04895253850112       -1.10559850796928        0.03552054983811
C           -0.06413587082271       -2.00412892694173       -0.06909019375210
C            1.27405831264426       -1.47057037524078       -0.08096427598457
C            2.33621435326377       -2.06739177210638       -0.78340204341341
C            3.59190644411135       -1.50495397170327       -0.78163327401545
C            3.83325629009900       -0.32184606915122       -0.08414293733444
N            5.13500326246357        0.24501844105666       -0.07288378318609
C            6.16309097833448       -0.37933405192223        0.61563586364366
C            5.96126231949751       -1.54472766568788        1.35394972968242
C            7.01241199246610       -2.14325639444418        2.02359499414339
C            8.28259779150878       -1.59023317608802        1.97758276614966
C            8.49899033360299       -0.42106988970454        1.26767945246032
C            7.45120739967866        0.18607735086960        0.59446026947212
O            7.72209367625884        1.34833562587598       -0.07231582747007
C            6.69491928015246        1.95927232589879       -0.73609382630244
C            6.98242633542651        3.13685909820119       -1.40713946321453
C            5.98849517246344        3.79327736124076       -2.11349440728053
C            4.70909617854749        3.26185852383302       -2.15735398219411
C            4.41309058294293        2.08705844052500       -1.49092528172131
C            5.39467123342458        1.42199527291469       -0.75724415738491
C            2.78364873776691        0.30727661277885        0.58737098979757
C            1.52943696144618       -0.25138892500194        0.57905319771417
C           -0.39703029611458       -3.40548388946071       -0.16988561385538
C            0.48668184893578       -4.47367824560477       -0.05024745972111
C            0.04158130722225       -5.78136954355658       -0.18189414945053
C           -1.29800635715324       -6.03981592079063       -0.42338422817984
C           -2.21131739982982       -5.00308065625140       -0.48029201004068
C           -1.79152466392811       -3.67620166491874       -0.32705359123469
N           -2.69962286454201       -2.68681533602228       -0.30304238093935
C           -4.67959075372980       -0.69662570430300       -0.09772734185412
N           -7.35663896073064       -1.17234283186415       -0.76761161667634
C           -8.61586910347091       -1.55197835790309       -0.87036665947249
H          -10.68731689102367       -1.22192050832945       -0.40225405728078
H          -10.17019754792331        0.82235498686156        0.93959580687255
H           -7.80568185053026        1.53967904828261        1.15228903048209
H           -5.96934800159781        2.41684629692109        0.24410842045835
H           -1.54493629951661        3.21172558871043       -0.39644344956393
H           -1.02373014666805        5.60102289582732       -0.00433911683241
H           -2.76561106878396        7.05439554460883        1.04516033898036
H           -4.96175370034010        6.01528243269674        1.63297531107740
H           -1.88866897962816        1.15960171914013        0.28003166010144
H            2.15587370791709       -2.94920116631846       -1.37814324687505
H            4.39590540204371       -1.96873237556594       -1.33501260178157
H            4.97300576036779       -1.97327852397429        1.40057107206226
H            6.83415950009603       -3.04617997293454        2.58641367129554
H            9.10204714123995       -2.05988027632391        2.49784546268709
H            9.47219427195884        0.04119465008677        1.22387866426767
H            7.99047880105630        3.51730714312390       -1.36463136475614
H            6.21759137807507        4.71034106051947       -2.63239560805775
H            3.93336106024412        3.76120107491385       -2.71657300931064
H            3.41904074842179        1.67215974383663       -1.53767774868982
H            2.96909277082510        1.22884161043247        1.11998245296714
H            0.71532277554659        0.22541701253784        1.10279529695266
H            1.52327805405360       -4.28835859751613        0.18533594761343
H            0.74441905407221       -6.59607344712542       -0.08907151402704
H           -1.63970155556337       -7.05764531997301       -0.54393070103378
H           -3.26279574418093       -5.18884675865888       -0.63677586845477
H           -4.97705114440194       -1.72194996729039       -0.24947594225558
H           -8.78056944266374       -2.45034828403371       -1.45307445528020

          :  Hamiltonian                  GFN2-xTB          :
         :: gradient norm              0.000058513253 Eh/a0 ::
         :: HOMO-LUMO gap              0.638813611595 eV    ::
         :: SCC energy              -124.561897732867 Eh    ::
         :: -> dispersion             -0.101086333204 Eh    ::
         :: -> Gsolv                  -0.057815676521 Eh    ::
         :: repulsion energy           2.160924722698 Eh    ::

    * Orbital Energies and Occupations

         #    Occupation            Energy/Eh            Energy/eV
      -------------------------------------------------------------
         1        2.0000           -0.7524084             -20.4741
       ...           ...                  ...                  ...
       102        2.0000           -0.4134114             -11.2495
       103        2.0000           -0.4121047             -11.2139
       104        2.0000           -0.4079368             -11.1005
       105        2.0000           -0.4041076             -10.9963
       106        2.0000           -0.3970064             -10.8031
       107        2.0000           -0.3959529             -10.7744
       108        2.0000           -0.3899438             -10.6109
       109        2.0000           -0.3767815             -10.2527
       110        2.0000           -0.3686327             -10.0310
       111        1.9989           -0.3650662              -9.9340
       112        1.6662           -0.3592239              -9.7750
       113        1.3349           -0.3579156              -9.7394
       114        1.0000           -0.2880844              -7.8392 (HOMO)
       115        0.0000           -0.2646086              -7.2004 (LUMO)
       116        0.0000           -0.2629541              -7.1553
       117                         -0.2569817              -6.9928
       118                         -0.2478692              -6.7449
       119                         -0.2451411              -6.6706
       120                         -0.2430200              -6.6129
       121                         -0.2390579              -6.5051
       122                         -0.2345664              -6.3829
       123                         -0.2291690              -6.2360
       124                         -0.2278931              -6.2013
       125                         -0.2119864              -5.7684
       ...                                ...                  ...
       219                          0.7087672              19.2865
      -------------------------------------------------------------
                  HL-Gap            0.0234758 Eh            0.6388 eV

     #   Z          covCN         q      C6AA      α(0)
     1   6 C        2.914    -0.043    29.077     8.842
     2   6 C        2.927    -0.012    28.324     8.728
     3   6 C        2.917    -0.046    29.132     8.851
     4   6 C        2.961     0.096    25.873     8.343
     5   6 C        2.975     0.005    27.911     8.666
     6   6 C        2.929    -0.036    28.905     8.817
     7   6 C        2.975     0.003    27.945     8.671
     8   6 C        2.959     0.095    25.888     8.346
     9   6 C        2.917    -0.045    29.128     8.850
    10   6 C        2.927    -0.012    28.326     8.728
    11   6 C        2.914    -0.043    29.080     8.843
    12   6 C        2.902     0.060    26.648     8.464
    13   7 N        1.844    -0.249    27.341     7.749
    14   6 C        2.928    -0.037    28.928     8.820
    15   6 C        2.978    -0.003    28.093     8.694
    16   6 C        2.895     0.176    24.231     8.071
    17   7 N        1.855    -0.249    27.337     7.749
    18   6 C        2.936     0.064    26.573     8.454
    19   6 C        2.977     0.001    28.009     8.681
    20   6 C        2.920    -0.042    29.044     8.838
    21   6 C        2.916    -0.041    29.008     8.832
    22   6 C        2.923     0.039    27.118     8.540
    23   7 N        2.752    -0.028    21.779     6.931
    24   6 C        2.925     0.046    26.964     8.516
    25   6 C        2.921    -0.051    29.266     8.871
    26   6 C        2.918    -0.030    28.759     8.794
    27   6 C        2.919    -0.031    28.764     8.795
    28   6 C        2.917    -0.052    29.297     8.876
    29   6 C        2.884     0.130    25.162     8.224
    30   8 O        1.709    -0.233    17.864     5.707
    31   6 C        2.884     0.130    25.162     8.224
    32   6 C        2.917    -0.052    29.297     8.876
    33   6 C        2.919    -0.031    28.765     8.795
    34   6 C        2.918    -0.030    28.760     8.794
    35   6 C        2.921    -0.051    29.271     8.872
    36   6 C        2.925     0.046    26.964     8.516
    37   6 C        2.915    -0.041    29.007     8.832
    38   6 C        2.925    -0.035    28.876     8.812
    39   6 C        2.975    -0.014    28.351     8.734
    40   6 C        2.916    -0.054    29.348     8.883
    41   6 C        2.916    -0.042    29.031     8.836
    42   6 C        2.915    -0.035    28.877     8.812
    43   6 C        2.921    -0.061    29.519     8.910
    44   6 C        2.950     0.102    25.741     8.321
    45   7 N        1.849    -0.280    28.111     7.858
    46   6 C        2.930    -0.029    28.722     8.789
    47   7 N        1.844    -0.249    27.341     7.749
    48   6 C        2.903     0.061    26.641     8.463
    49   1 H        0.926     0.041     2.441     2.443
    50   1 H        0.926     0.042     2.419     2.432
    51   1 H        0.926     0.046     2.376     2.410
    52   1 H        0.926     0.056     2.242     2.342
    53   1 H        0.926     0.042     2.419     2.432
    54   1 H        0.926     0.042     2.416     2.431
    55   1 H        0.926     0.041     2.438     2.442
    56   1 H        0.925     0.035     2.518     2.482
    57   1 H        0.926     0.050     2.320     2.382
    58   1 H        0.926     0.039     2.460     2.453
    59   1 H        0.926     0.039     2.458     2.451
    60   1 H        0.926     0.053     2.280     2.361
    61   1 H        0.926     0.055     2.263     2.353
    62   1 H        0.926     0.057     2.237     2.339
    63   1 H        0.926     0.063     2.168     2.303
    64   1 H        0.926     0.063     2.169     2.303
    65   1 H        0.926     0.057     2.237     2.339
    66   1 H        0.926     0.055     2.262     2.352
    67   1 H        0.926     0.054     2.271     2.356
    68   1 H        0.926     0.041     2.438     2.442
    69   1 H        0.926     0.042     2.424     2.435
    70   1 H        0.926     0.035     2.512     2.479
    71   1 H        0.926     0.029     2.606     2.524
    72   1 H        0.926     0.031     2.575     2.510
    73   1 H        0.926     0.033     2.547     2.496
    74   1 H        0.926     0.063     2.169     2.303
    75   1 H        0.925     0.034     2.525     2.485

molecular dipole:
                 x           y           z       tot (Debye)
 q only:        3.786       1.686       0.149
   full:        3.889       1.728       0.185      10.826

 projected vibrational frequencies (cm⁻¹)
eigval :       -0.00    -0.00    -0.00     0.00     0.00     0.00
eigval :        4.11    11.71    15.39    22.62    24.62    32.93
eigval :       36.88    44.87    50.70    54.68    59.65    71.89
eigval :       72.48    85.52    98.85   105.59   115.59   145.80
eigval :      151.60   167.43   183.72   194.18   204.12   212.12
eigval :      222.99   242.78   248.83   260.36   262.72   270.79
eigval :      274.76   291.73   331.56   362.26   364.00   370.05
eigval :      376.25   378.33   382.11   387.16   392.31   400.46
eigval :      411.24   423.77   433.08   447.37   458.83   465.19
eigval :      478.66   490.53   501.59   511.92   516.26   529.92
eigval :      539.01   545.27   568.80   571.76   577.52   581.78
eigval :      588.68   591.31   601.69   609.99   610.90   616.90
eigval :      642.80   643.76   660.15   668.91   671.38   673.16
eigval :      679.55   695.76   710.24   713.13   720.12   755.89
eigval :      761.39   766.36   773.69   775.63   777.98   797.02
eigval :      806.69   826.66   831.04   838.02   845.08   855.19
eigval :      857.09   867.29   867.52   880.63   881.12   885.08
eigval :      888.24   888.49   889.22   899.78   901.85   902.84
eigval :      908.67   914.93   915.06   916.90   918.10   919.82
eigval :      921.05   929.97   932.99   933.13   949.88   988.58
eigval :      998.45  1000.79  1008.15  1082.34  1083.38  1083.67
eigval :     1087.76  1093.22  1096.43  1104.99  1112.37  1115.07
eigval :     1119.07  1121.37  1125.73  1130.25  1134.04  1162.83
eigval :     1164.29  1166.90  1168.55  1171.41  1175.04  1182.23
eigval :     1196.28  1205.63  1218.67  1222.26  1230.81  1235.81
eigval :     1237.60  1245.97  1246.76  1251.40  1253.35  1261.49
eigval :     1270.57  1282.97  1284.29  1290.20  1305.81  1307.81
eigval :     1314.38  1321.44  1326.52  1334.79  1341.02  1345.39
eigval :     1370.68  1377.78  1398.44  1401.32  1410.27  1413.33
eigval :     1417.25  1420.30  1435.05  1438.60  1439.47  1446.79
eigval :     1452.61  1462.55  1475.56  1476.53  1502.79  1525.60
eigval :     1539.60  1549.24  1553.01  1554.07  1560.74  1561.85
eigval :     1564.61  1570.43  1571.80  1577.51  1579.84  1583.66
eigval :     3040.56  3040.70  3067.59  3068.25  3070.17  3075.39
eigval :     3077.63  3079.09  3090.03  3093.45  3093.92  3094.68
eigval :     3095.54  3096.22  3096.69  3096.83  3098.71  3098.87
eigval :     3101.62  3103.45  3103.95  3107.62  3110.42  3111.77
eigval :     3112.33  3115.29  3115.59

   temp. (K)  partition function   enthalpy   heat capacity  entropy
                                   cal/mol     cal/K/mol   cal/K/mol   J/K/mol
 298.15  VIB  0.116E+19            22019.526    138.153    138.371
         ROT  0.108E+09              888.752      2.981     39.735
         INT  0.125E+27            22908.278    141.134    178.106
         TR   0.149E+29             1481.254      4.968     45.125
         TOT                       24389.5319   146.1020   223.2314   934.0000

       T/K    H(0)-H(T)+PV         H(T)/Eh          T*S/Eh         G(T)/Eh
   ------------------------------------------------------------------------
    298.15    0.388672E-01    0.598416E+00    0.106064E+00    0.492351E+00
   ------------------------------------------------------------------------

         :::::::::::::::::::::::::::::::::::::::::::::::::::::
         ::                  THERMODYNAMIC                  ::
         :::::::::::::::::::::::::::::::::::::::::::::::::::::
         :: total free energy        -121.908621530277 Eh   ::
         ::.................................................::
         :: total energy             -122.400973013456 Eh   ::
         :: zero point energy           0.559548714278 Eh   ::
         :: G(RRHO) w/o ZPVE           -0.067197231100 Eh   ::
         :: G(RRHO) contrib.            0.492351483179 Eh   ::
         :::::::::::::::::::::::::::::::::::::::::::::::::::::

           -------------------------------------------------
          | TOTAL ENERGY             -122.400973013456 Eh   |
          | TOTAL ENTHALPY           -121.802557106036 Eh   |
          | TOTAL FREE ENERGY        -121.908621530277 Eh   |
          | GRADIENT NORM               0.000062046513 Eh/α |
          | HOMO-LUMO GAP               0.638808984371 eV   |
           -------------------------------------------------

 * finished run on 2025/09/12 at 15:19:05.173
