   * xtb version 6.7.1 (edcfbbe) compiled by 'albert@albert-system' on 2024-07-22

   ID    Z sym.   atoms
    1    6 C      1-12, 14-16, 18-22, 24-29, 31-44, 46, 48
    2    7 N      13, 17, 23, 45, 47
    3    8 O      30
    4    1 H      49-75

          program call               : xtb data2507/toluene/2H-Qz/2H-Qz.xyz --gfn 2 --gbsa toluene --ohess vtight --parallel 40 --molden --ceasefiles --namespace data2507/toluene/2H-Qz/2H-Qz_toluene_S0_preOpt
      * Solvation model:               GBSA
        Solvent                        toluene
        Solvent mass                       9.2140E+01 g/mol
          :  Hamiltonian                  GFN2-xTB          :
 * total energy  :  -122.4430372 Eh     change       -0.2773604E-08 Eh
 * total energy  :  -122.4573031 Eh     change       -0.1426588E-01 Eh
 * total energy  :  -122.4618737 Eh     change       -0.4570607E-02 Eh
 * total energy  :  -122.4628759 Eh     change       -0.1002147E-02 Eh
 * total energy  :  -122.4634172 Eh     change       -0.5413413E-03 Eh
 * total energy  :  -122.4635926 Eh     change       -0.1753710E-03 Eh
 * total energy  :  -122.4636931 Eh     change       -0.1004841E-03 Eh
 * total energy  :  -122.4637615 Eh     change       -0.6846410E-04 Eh
 * total energy  :  -122.4638092 Eh     change       -0.4767732E-04 Eh
 * total energy  :  -122.4638642 Eh     change       -0.5500114E-04 Eh
 * total energy  :  -122.4652490 Eh     change       -0.1174380E-05 Eh
 * total energy  :  -122.4652507 Eh     change       -0.1674630E-05 Eh
 * total energy  :  -122.4652527 Eh     change       -0.2004750E-05 Eh
 * total energy  :  -122.4652546 Eh     change       -0.1887621E-05 Eh
 * total energy  :  -122.4652561 Eh     change       -0.1491735E-05 Eh
 * total energy  :  -122.4652572 Eh     change       -0.1143351E-05 Eh
 * total energy  :  -122.4652582 Eh     change       -0.9642797E-06 Eh
 * total energy  :  -122.4652591 Eh     change       -0.9334331E-06 Eh
 * total energy  :  -122.4652591 Eh     change       -0.3140741E-08 Eh
   *** GEOMETRY OPTIMIZATION CONVERGED AFTER 94 ITERATIONS ***

 final structure:
================
75
 xtb: 6.7.1 (edcfbbe)
C           -9.65265810554760       -1.20643316104211       -0.15871453995789
C           -9.39357352247151        0.10293761999612       -0.53464641183956
C           -8.09200754591559        0.57026191366488       -0.48712540936165
C           -7.07927958239321       -0.29125120092423       -0.05882123970787
C           -5.67066209142453        0.12957719729133        0.01861649135555
C           -5.31272234736780        1.46098584004877        0.20415464022421
C           -3.97366372996400        1.84420933336971        0.26675844065478
C           -3.64752779996759        3.26608600784848        0.46588683029561
C           -2.40959864887144        3.80748670586074        0.10992394469247
C           -2.17455662555679        5.15194957421525        0.33723002610937
C           -3.17529086678580        5.92374102782241        0.90792957865420
C           -4.37720604192307        5.30138640261755        1.21058556524529
N           -4.61018328082734        4.02080857512909        0.99795579331402
C           -2.98559251599338        0.87247173694897        0.15607107048974
C           -3.33052212188684       -0.46545119575551       -0.01669881100908
C           -2.28033549263649       -1.48438568101240       -0.11459068458426
N           -1.00731970405225       -1.05039916240012       -0.02580704910602
C           -0.03103735023200       -1.92671583885864       -0.08394944042896
C            1.33080492509747       -1.37581196522161       -0.08006706274675
C            2.30604274950007       -1.83675367733304       -0.96304898578925
C            3.57065029605983       -1.28206510909397       -0.95821742891230
C            3.88444453330624       -0.25902901233398       -0.06742750418879
N            5.18121519292833        0.30054939733622       -0.05925758189684
C            6.28536600036921       -0.47651062231335        0.29803894512161
C            6.15950151509209       -1.79317698392274        0.72427870282355
C            7.27604191742023       -2.53683312060112        1.07605206157188
C            8.53547990704266       -1.97509144620190        1.01892817661626
C            8.67610549204114       -0.65237207695180        0.62318521521583
C            7.56568552873800        0.09280402786892        0.27266235082947
O            7.78266443751915        1.40480316182893       -0.08092060658673
C            6.68261234426336        2.15819726440757       -0.42202540554841
C            6.91373304302219        3.47254641319366       -0.78292913069757
C            5.85942818132116        4.28905412607813       -1.16695084688853
C            4.57929475869017        3.77424504000051       -1.20114381944325
C            4.34252565475395        2.45639121323746       -0.83940384520634
C            5.38309107166642        1.63336049579690       -0.42590718499012
C            2.90913718950563        0.21453490204895        0.80686525926335
C            1.64272833382065       -0.33304225913649        0.79101779832308
C           -0.29768684345811       -3.32441205970454       -0.15329601141472
C            0.66087481769774       -4.34984237643836       -0.05340382455227
C            0.27813322034964       -5.65939523025079       -0.16605978312839
C           -1.06876222508974       -5.99706489912626       -0.37720584068672
C           -2.03040193547446       -5.02718993468636       -0.43898607139323
C           -1.67024507385842       -3.66956897521086       -0.30600011501986
N           -2.63694795552258       -2.73280900868243       -0.30446543020740
C           -4.66978766551407       -0.83232766900576       -0.08445838897393
N           -7.33522764726655       -1.55325387249147        0.28646842269008
C           -8.57882274086536       -1.98968442289458        0.23802843303996
H          -10.65320509805933       -1.60928574353829       -0.17801707457036
H          -10.19478348283929        0.74961486338797       -0.86319488374277
H           -7.86085688128195        1.57823291212864       -0.79284677746620
H           -6.06004151633067        2.22873874952950        0.32747608503904
H           -1.65346587884824        3.19230245766332       -0.35099514032022
H           -1.22459429284736        5.59267970942596        0.07004672346087
H           -3.03204459444878        6.97442080310962        1.10572168279238
H           -5.19986452011554        5.85392610952186        1.64809855506456
H           -1.93891343705997        1.12150662252894        0.22319555560499
H            2.06221264941754       -2.60475257110944       -1.68199212813379
H            4.32202797031165       -1.63326616298265       -1.64995544344489
H            5.17949839544452       -2.23897298942821        0.78809813359799
H            7.14841872943915       -3.55892753195987        1.39824965029602
H            9.40811862464175       -2.54930101541807        1.28778349949171
H            9.64346940179136       -0.17640047448466        0.58447725943145
H            7.92894629854985        3.83686760683036       -0.76160452082351
H            6.04955922261633        5.31388824559951       -1.44461565476747
H            3.75107596411344        4.39155252959001       -1.51383092743565
H            3.33958921227530        2.06252398132437       -0.88612608093699
H            3.15242663288138        1.01064848836042        1.49474869786230
H            0.88131536464012        0.02738908029678        1.46562042372659
H            1.69271872618925       -4.09359958057506        0.13405675000849
H            1.01399454923186       -6.44575176910003       -0.08751253636408
H           -1.34286493606405       -7.03758705159257       -0.47101777629921
H           -3.07539895680673       -5.26265135124026       -0.56640339842665
H           -4.93400552321462       -1.86910871414984       -0.21365542552807
H           -8.71727027294980       -3.02220321871077        0.53508745960520

          :  Hamiltonian                  GFN2-xTB          :
         :: gradient norm              0.000040392037 Eh/a0 ::
         :: HOMO-LUMO gap              1.339763049623 eV    ::
         :: SCC energy              -124.631973361025 Eh    ::
         :: -> dispersion             -0.101091671639 Eh    ::
         :: -> Gsolv                  -0.055116609177 Eh    ::
         :: repulsion energy           2.166714234897 Eh    ::

    * Orbital Energies and Occupations

         #    Occupation            Energy/Eh            Energy/eV
      -------------------------------------------------------------
         1        2.0000           -0.7307738             -19.8854
       ...           ...                  ...                  ...
       101        2.0000           -0.4198141             -11.4237
       102        2.0000           -0.4185900             -11.3904
       103        2.0000           -0.4172703             -11.3545
       104        2.0000           -0.4141696             -11.2701
       105        2.0000           -0.4058007             -11.0424
       106        2.0000           -0.4019983             -10.9389
       107        2.0000           -0.3938249             -10.7165
       108        2.0000           -0.3930357             -10.6950
       109        2.0000           -0.3915713             -10.6552
       110        2.0000           -0.3703927             -10.0789
       111        2.0000           -0.3669332              -9.9848
       112        2.0000           -0.3640252              -9.9056
       113        2.0000           -0.3452065              -9.3935 (HOMO)
       114                         -0.2959712              -8.0538 (LUMO)
       115                         -0.2710900              -7.3767
       116                         -0.2685363              -7.3072
       117                         -0.2530617              -6.8862
       118                         -0.2451772              -6.6716
       119                         -0.2447049              -6.6588
       120                         -0.2421173              -6.5883
       121                         -0.2418467              -6.5810
       122                         -0.2396929              -6.5224
       123                         -0.2313082              -6.2942
       124                         -0.2184077              -5.9432
       ...                                ...                  ...
       219                          0.7018062              19.0971
      -------------------------------------------------------------
                  HL-Gap            0.0492353 Eh            1.3398 eV

     #   Z          covCN         q      C6AA      α(0)
     1   6 C        2.914    -0.042    29.052     8.838
     2   6 C        2.927    -0.012    28.312     8.726
     3   6 C        2.917    -0.045    29.113     8.848
     4   6 C        2.960     0.095    25.892     8.346
     5   6 C        2.976     0.007    27.851     8.657
     6   6 C        2.930    -0.031    28.773     8.797
     7   6 C        2.975     0.006    27.892     8.663
     8   6 C        2.959     0.094    25.906     8.348
     9   6 C        2.917    -0.045    29.117     8.849
    10   6 C        2.927    -0.012    28.311     8.726
    11   6 C        2.914    -0.042    29.052     8.838
    12   6 C        2.902     0.060    26.647     8.464
    13   7 N        1.844    -0.247    27.281     7.741
    14   6 C        2.927    -0.035    28.860     8.810
    15   6 C        2.980    -0.002    28.074     8.691
    16   6 C        2.939     0.187    24.003     8.035
    17   7 N        1.850    -0.290    28.358     7.893
    18   6 C        2.957     0.114    25.491     8.281
    19   6 C        2.981     0.002    27.973     8.676
    20   6 C        2.922    -0.029    28.730     8.790
    21   6 C        2.920    -0.039    28.976     8.827
    22   6 C        2.921     0.068    26.473     8.437
    23   7 N        2.751    -0.072    22.644     7.067
    24   6 C        2.922     0.042    27.052     8.529
    25   6 C        2.924    -0.061    29.515     8.909
    26   6 C        2.919    -0.039    28.975     8.827
    27   6 C        2.919    -0.041    29.025     8.835
    28   6 C        2.919    -0.058    29.442     8.898
    29   6 C        2.882     0.122    25.313     8.248
    30   8 O        1.708    -0.273    18.526     5.811
    31   6 C        2.882     0.122    25.315     8.248
    32   6 C        2.919    -0.058    29.442     8.898
    33   6 C        2.919    -0.041    29.026     8.835
    34   6 C        2.919    -0.039    28.971     8.826
    35   6 C        2.923    -0.061    29.518     8.910
    36   6 C        2.921     0.042    27.051     8.529
    37   6 C        2.920    -0.038    28.953     8.824
    38   6 C        2.925    -0.023    28.580     8.767
    39   6 C        2.978    -0.023    28.569     8.768
    40   6 C        2.913    -0.034    28.856     8.809
    41   6 C        2.917    -0.029    28.713     8.787
    42   6 C        2.916    -0.022    28.555     8.763
    43   6 C        2.918    -0.043    29.058     8.840
    44   6 C        2.980     0.105    25.678     8.312
    45   7 N        1.845    -0.292    28.418     7.901
    46   6 C        2.930    -0.026    28.663     8.780
    47   7 N        1.844    -0.245    27.251     7.737
    48   6 C        2.903     0.060    26.644     8.464
    49   1 H        0.926     0.042     2.425     2.435
    50   1 H        0.926     0.043     2.409     2.427
    51   1 H        0.926     0.045     2.383     2.414
    52   1 H        0.926     0.063     2.161     2.299
    53   1 H        0.926     0.044     2.393     2.419
    54   1 H        0.926     0.043     2.409     2.427
    55   1 H        0.926     0.042     2.426     2.436
    56   1 H        0.925     0.036     2.500     2.473
    57   1 H        0.926     0.059     2.210     2.325
    58   1 H        0.926     0.047     2.355     2.400
    59   1 H        0.926     0.050     2.318     2.381
    60   1 H        0.926     0.038     2.471     2.458
    61   1 H        0.926     0.041     2.432     2.439
    62   1 H        0.926     0.042     2.426     2.436
    63   1 H        0.926     0.047     2.354     2.399
    64   1 H        0.926     0.047     2.354     2.399
    65   1 H        0.926     0.042     2.426     2.436
    66   1 H        0.926     0.041     2.433     2.439
    67   1 H        0.926     0.040     2.453     2.449
    68   1 H        0.926     0.051     2.306     2.375
    69   1 H        0.926     0.052     2.299     2.371
    70   1 H        0.926     0.045     2.381     2.413
    71   1 H        0.926     0.048     2.343     2.394
    72   1 H        0.926     0.050     2.322     2.383
    73   1 H        0.926     0.054     2.267     2.354
    74   1 H        0.926     0.073     2.057     2.243
    75   1 H        0.925     0.036     2.498     2.472

molecular dipole:
                 x           y           z       tot (Debye)
 q only:        0.051      -0.202      -0.255
   full:        0.299      -0.092      -0.420       1.332

 projected vibrational frequencies (cm⁻¹)
eigval :       -0.00    -0.00     0.00     0.00     0.00     0.00
eigval :        6.72    10.93    12.46    22.41    32.59    33.32
eigval :       38.10    42.00    45.58    53.05    55.75    65.39
eigval :       71.31    83.55   100.27   104.15   118.00   142.22
eigval :      152.90   160.48   187.31   190.56   205.07   210.47
eigval :      222.12   244.50   251.76   256.86   267.75   270.57
eigval :      275.94   283.57   334.41   358.12   366.73   369.56
eigval :      374.49   375.88   381.14   386.33   404.11   411.24
eigval :      416.36   423.12   429.42   438.74   444.84   464.43
eigval :      482.33   495.63   510.91   521.87   523.27   540.30
eigval :      548.79   550.97   573.20   578.36   582.65   591.15
eigval :      595.85   598.45   604.91   610.61   626.52   638.99
eigval :      646.51   657.17   659.93   661.31   679.12   688.91
eigval :      702.93   712.08   713.48   726.19   760.44   767.73
eigval :      773.62   776.91   779.11   782.28   784.58   797.74
eigval :      824.38   840.37   842.45   852.57   862.77   864.83
eigval :      866.13   873.96   884.71   885.73   890.92   893.12
eigval :      896.07   897.17   898.50   902.25   913.57   916.19
eigval :      917.20   917.60   921.54   922.30   928.01   930.65
eigval :      930.80   932.53   934.96   940.33   965.00   999.06
eigval :     1001.96  1005.52  1022.29  1067.58  1088.16  1089.19
eigval :     1090.51  1093.96  1096.22  1105.22  1105.52  1117.14
eigval :     1120.37  1125.12  1129.59  1132.39  1141.47  1164.15
eigval :     1166.29  1169.58  1171.51  1173.84  1179.62  1183.99
eigval :     1195.62  1196.34  1220.32  1222.11  1226.84  1237.32
eigval :     1240.98  1245.89  1247.25  1254.91  1258.67  1261.37
eigval :     1280.19  1284.99  1294.32  1304.35  1305.49  1310.34
eigval :     1332.10  1333.64  1335.95  1345.08  1353.83  1372.62
eigval :     1379.61  1397.70  1401.06  1403.86  1416.33  1422.52
eigval :     1430.94  1441.22  1441.95  1447.80  1455.54  1477.55
eigval :     1480.62  1484.86  1503.72  1523.81  1534.87  1554.40
eigval :     1555.18  1556.94  1565.93  1568.09  1572.23  1579.39
eigval :     1580.45  1583.00  1583.45  1588.95  1601.13  1602.50
eigval :     3042.26  3042.88  3067.81  3069.04  3078.62  3082.09
eigval :     3084.08  3086.65  3086.88  3087.56  3093.56  3094.18
eigval :     3094.48  3095.23  3095.24  3095.86  3099.26  3099.55
eigval :     3100.57  3102.75  3105.00  3105.01  3108.29  3108.43
eigval :     3109.53  3112.52  3122.09

   temp. (K)  partition function   enthalpy   heat capacity  entropy
                                   cal/mol     cal/K/mol   cal/K/mol   J/K/mol
 298.15  VIB  0.925E+18            21899.809    136.690    137.638
         ROT  0.108E+09              888.752      2.981     39.733
         INT  0.995E+26            22788.562    139.671    177.371
         TR   0.149E+29             1481.254      4.968     45.125
         TOT                       24269.8154   144.6394   222.4959   930.9228

       T/K    H(0)-H(T)+PV         H(T)/Eh          T*S/Eh         G(T)/Eh
   ------------------------------------------------------------------------
    298.15    0.386764E-01    0.601142E+00    0.105715E+00    0.495427E+00
   ------------------------------------------------------------------------

         :::::::::::::::::::::::::::::::::::::::::::::::::::::
         ::                  THERMODYNAMIC                  ::
         :::::::::::::::::::::::::::::::::::::::::::::::::::::
         :: total free energy        -121.969832364210 Eh   ::
         ::.................................................::
         :: total energy             -122.465259127845 Eh   ::
         :: zero point energy           0.562465329993 Eh   ::
         :: G(RRHO) w/o ZPVE           -0.067038566357 Eh   ::
         :: G(RRHO) contrib.            0.495426763636 Eh   ::
         :::::::::::::::::::::::::::::::::::::::::::::::::::::

           -------------------------------------------------
          | TOTAL ENERGY             -122.465259127845 Eh   |
          | TOTAL ENTHALPY           -121.864117385075 Eh   |
          | TOTAL FREE ENERGY        -121.969832364210 Eh   |
          | GRADIENT NORM               0.000040397739 Eh/α |
          | HOMO-LUMO GAP               1.339762017927 eV   |
           -------------------------------------------------

 * finished run on 2025/09/12 at 15:07:06.569
