   * xtb version 6.7.1 (edcfbbe) compiled by 'albert@albert-system' on 2024-07-22

   ID    Z sym.   atoms
    1    6 C      1-12, 14-16, 18-22, 24-29, 31-44, 46, 48
    2    7 N      13, 17, 23, 45, 47
    3    8 O      30
    4    1 H      49-75

          program call               : xtb data2507/toluene/2H-Qz/2H-Qz_toluene_S0_crest.xyz --gfn 2 --gbsa toluene --ohess vtight --parallel 40 --molden --ceasefiles --namespace data2507/toluene/2H-Qz/2H-Qz_toluene_S0_finalOpt
      * Solvation model:               GBSA
        Solvent                        toluene
        Solvent mass                       9.2140E+01 g/mol
          :  Hamiltonian                  GFN2-xTB          :
 * total energy  :  -122.4652997 Eh     change       -0.1312642E-08 Eh
 * total energy  :  -122.4653458 Eh     change       -0.4607392E-04 Eh
 * total energy  :  -122.4653597 Eh     change       -0.1393284E-04 Eh
 * total energy  :  -122.4653650 Eh     change       -0.5283133E-05 Eh
 * total energy  :  -122.4653715 Eh     change       -0.6540289E-05 Eh
 * total energy  :  -122.4653776 Eh     change       -0.6083255E-05 Eh
 * total energy  :  -122.4653835 Eh     change       -0.5853951E-05 Eh
 * total energy  :  -122.4653884 Eh     change       -0.4941508E-05 Eh
 * total energy  :  -122.4653924 Eh     change       -0.3946716E-05 Eh
 * total energy  :  -122.4653947 Eh     change       -0.2385269E-05 Eh
 * total energy  :  -122.4654006 Eh     change       -0.1475655E-05 Eh
 * total energy  :  -122.4654020 Eh     change       -0.1412148E-05 Eh
 * total energy  :  -122.4654028 Eh     change       -0.8416367E-06 Eh
 * total energy  :  -122.4654035 Eh     change       -0.6534330E-06 Eh
 * total energy  :  -122.4654039 Eh     change       -0.4324920E-06 Eh
 * total energy  :  -122.4654043 Eh     change       -0.3812632E-06 Eh
 * total energy  :  -122.4654047 Eh     change       -0.3796343E-06 Eh
 * total energy  :  -122.4654050 Eh     change       -0.3344294E-06 Eh
 * total energy  :  -122.4654050 Eh     change       -0.1286580E-07 Eh
   *** GEOMETRY OPTIMIZATION CONVERGED AFTER 22 ITERATIONS ***

 final structure:
================
75
 xtb: 6.7.1 (edcfbbe)
C           -9.68945310915192       -1.05976536879317       -0.23552298320918
C           -9.42277885857066        0.12805497296568        0.42863354011049
C           -8.11396891803619        0.56834649119661        0.51690292978663
C           -7.10233340955836       -0.19779588672131       -0.06698979091852
C           -5.68747525262802        0.20548990119991       -0.01421090491583
C           -5.31301488106091        1.54146421646471        0.08670095942397
C           -3.96977309342152        1.91028158018332        0.13928817104097
C           -3.62622833386052        3.33791797234170        0.24295833579432
C           -2.38535245657542        3.83911433129795       -0.15824817423494
C           -2.13475947414011        5.19358203627875       -0.02776417154202
C           -3.12288284169384        6.01392947745664        0.49525629358874
C           -4.32796013318926        5.42716810675548        0.85155867135258
N           -4.57618589036222        4.13735550013530        0.73083011373484
C           -2.99431926754161        0.92054934068837        0.10162798330806
C           -3.35536218782252       -0.41962859965961       -0.01138719953460
C           -2.31647213489115       -1.45376098638846       -0.05786878440189
N           -1.03914602381294       -1.02823755235286        0.01437365325468
C           -0.07128132764886       -1.91470489536612       -0.01738435310956
C            1.29573229168530       -1.37538905361819       -0.02234577418017
C            2.26035965222599       -1.84327768479445       -0.91292920214147
C            3.52833958426464       -1.29610600352897       -0.91975737688513
C            3.85732122835237       -0.27678430513912       -0.02999751736352
N            5.15651408274088        0.27618462445362       -0.03280512686222
C            6.26303272159413       -0.50958803596450        0.29819156169561
C            6.14029363027137       -1.83485182385571        0.69799192684382
C            7.25943754980423       -2.58715409836456        1.02189089738044
C            8.51903021183609       -2.02590823825234        0.96343974993329
C            8.65693981004314       -0.69492351510870        0.59576896246061
C            7.54379262274589        0.05889026082023        0.27322164587031
O            7.75920146368570        1.37849625512355       -0.05152924858423
C            6.65753826749775        2.13981103184622       -0.36843275747143
C            6.88739516992269        3.46168484399128       -0.70193033599277
C            5.83153466133909        4.28686316287955       -1.06208229470011
C            4.55117663514470        3.77298452604569       -1.10168877272621
C            4.31575308900021        2.44782130457362       -0.76697656739458
C            5.35766141395807        1.61597895265336       -0.37484234829662
C            2.89311974749125        0.20071373121897        0.85465044572914
C            1.62226312972556       -0.33649962564245        0.84763160136477
C           -0.34925120465904       -3.31131311242700       -0.04863168938718
C            0.60435793515265       -4.34024929455236        0.06283965836959
C            0.21064020107401       -5.64960120686305       -0.00360749838519
C           -1.14259603722678       -5.98333600607779       -0.17775256027946
C           -2.09845363587187       -5.00865416385597       -0.25251419826461
C           -1.72638589070515       -3.65028339531793       -0.16973552762902
N           -2.68557772840968       -2.70580303616642       -0.18974096926462
C           -4.69877672453429       -0.77210721264477       -0.07700296853068
N           -7.36516300029634       -1.34777713310228       -0.68780847175524
C           -8.61606743061631       -1.75840205425060       -0.76820789243377
H          -10.69578940410999       -1.43635420977170       -0.33145596226838
H          -10.22353402907329        0.70152459254462        0.87358766301787
H           -7.87532231178345        1.47777806253442        1.04499711123659
H           -6.05104554894361        2.32766888986402        0.10662094158381
H           -1.64037653429345        3.18425279070190       -0.58117624701682
H           -1.18291922425924        5.60458222092715       -0.33275323291588
H           -2.96748065436650        7.07449069186900        0.61641287732780
H           -5.14051986832689        6.01802127751235        1.25671545517886
H           -1.94539682739200        1.15980301263306        0.17086261641102
H            2.00523944577139       -2.61046258202581       -1.62891954002778
H            4.27031175509117       -1.65043160325887       -1.62000014329468
H            5.16071859267142       -2.28120770235505        0.76333243052985
H            7.13361862122816       -3.61559516616269        1.32393805654015
H            9.39371691193799       -2.60688336587920        1.21018921020781
H            9.62428810766750       -0.21884054961205        0.55808173658522
H            7.90290536565330        3.82502588314696       -0.67825428186259
H            6.02056578651204        5.31771141776217       -1.31733005309037
H            3.72163154903676        4.39682074992495       -1.39738267441090
H            3.31243571070086        2.05555141799902       -0.81799259701153
H            3.14800302670345        0.99284076818288        1.54294009011878
H            0.86919462760604        0.02965933420249        1.52854605046608
H            1.64160903682282       -4.08559308889304        0.22023020174911
H            0.94253596834738       -6.43879584892800        0.08322514291981
H           -1.42562513068005       -7.02415015965949       -0.23469370714626
H           -3.14688982195271       -5.24029593189586       -0.35658618250030
H           -4.97502486175117       -1.80955997948420       -0.17137668069568
H           -8.76108185918741       -2.69743216234104       -1.28843880827814

          :  Hamiltonian                  GFN2-xTB          :
         :: gradient norm              0.000080001616 Eh/a0 ::
         :: HOMO-LUMO gap              1.347257478009 eV    ::
         :: SCC energy              -124.632178114827 Eh    ::
         :: -> dispersion             -0.101103615394 Eh    ::
         :: -> Gsolv                  -0.055072108029 Eh    ::
         :: repulsion energy           2.166773078825 Eh    ::

    * Orbital Energies and Occupations

         #    Occupation            Energy/Eh            Energy/eV
      -------------------------------------------------------------
         1        2.0000           -0.7308520             -19.8875
       ...           ...                  ...                  ...
       101        2.0000           -0.4197433             -11.4218
       102        2.0000           -0.4185328             -11.3889
       103        2.0000           -0.4173141             -11.3557
       104        2.0000           -0.4141683             -11.2701
       105        2.0000           -0.4062091             -11.0535
       106        2.0000           -0.4020347             -10.9399
       107        2.0000           -0.3938661             -10.7176
       108        2.0000           -0.3931418             -10.6979
       109        2.0000           -0.3915928             -10.6558
       110        2.0000           -0.3706353             -10.0855
       111        2.0000           -0.3669508              -9.9852
       112        2.0000           -0.3639722              -9.9042
       113        2.0000           -0.3452632              -9.3951 (HOMO)
       114                         -0.2957524              -8.0478 (LUMO)
       115                         -0.2711229              -7.3776
       116                         -0.2681110              -7.2957
       117                         -0.2532284              -6.8907
       118                         -0.2451528              -6.6709
       119                         -0.2447673              -6.6605
       120                         -0.2420195              -6.5857
       121                         -0.2417543              -6.5785
       122                         -0.2397386              -6.5236
       123                         -0.2313349              -6.2949
       124                         -0.2185940              -5.9482
       ...                                ...                  ...
       219                          0.7014739              19.0881
      -------------------------------------------------------------
                  HL-Gap            0.0495108 Eh            1.3473 eV

     #   Z          covCN         q      C6AA      α(0)
     1   6 C        2.914    -0.042    29.053     8.839
     2   6 C        2.927    -0.012    28.312     8.726
     3   6 C        2.917    -0.045    29.121     8.849
     4   6 C        2.961     0.095    25.895     8.347
     5   6 C        2.976     0.007    27.850     8.657
     6   6 C        2.930    -0.031    28.765     8.796
     7   6 C        2.976     0.006    27.890     8.663
     8   6 C        2.959     0.094    25.905     8.348
     9   6 C        2.917    -0.045    29.114     8.848
    10   6 C        2.927    -0.012    28.309     8.726
    11   6 C        2.914    -0.042    29.052     8.838
    12   6 C        2.902     0.060    26.649     8.464
    13   7 N        1.844    -0.247    27.283     7.741
    14   6 C        2.927    -0.034    28.859     8.810
    15   6 C        2.980    -0.002    28.073     8.691
    16   6 C        2.939     0.187    24.002     8.035
    17   7 N        1.850    -0.290    28.366     7.894
    18   6 C        2.957     0.114    25.484     8.280
    19   6 C        2.982     0.002    27.974     8.676
    20   6 C        2.922    -0.029    28.729     8.790
    21   6 C        2.920    -0.039    28.981     8.828
    22   6 C        2.921     0.068    26.477     8.438
    23   7 N        2.751    -0.072    22.637     7.066
    24   6 C        2.921     0.042    27.053     8.529
    25   6 C        2.924    -0.061    29.516     8.909
    26   6 C        2.919    -0.039    28.975     8.827
    27   6 C        2.919    -0.041    29.024     8.835
    28   6 C        2.919    -0.058    29.441     8.898
    29   6 C        2.882     0.122    25.313     8.248
    30   8 O        1.708    -0.273    18.524     5.811
    31   6 C        2.882     0.122    25.314     8.248
    32   6 C        2.919    -0.058    29.442     8.898
    33   6 C        2.919    -0.041    29.024     8.835
    34   6 C        2.919    -0.039    28.971     8.826
    35   6 C        2.924    -0.061    29.515     8.909
    36   6 C        2.921     0.042    27.053     8.529
    37   6 C        2.920    -0.039    28.957     8.824
    38   6 C        2.924    -0.023    28.583     8.768
    39   6 C        2.978    -0.023    28.569     8.768
    40   6 C        2.913    -0.034    28.854     8.808
    41   6 C        2.916    -0.028    28.711     8.787
    42   6 C        2.916    -0.022    28.554     8.763
    43   6 C        2.918    -0.043    29.057     8.840
    44   6 C        2.980     0.105    25.678     8.312
    45   7 N        1.845    -0.292    28.414     7.900
    46   6 C        2.930    -0.026    28.661     8.780
    47   7 N        1.844    -0.246    27.257     7.737
    48   6 C        2.903     0.060    26.647     8.464
    49   1 H        0.926     0.042     2.427     2.436
    50   1 H        0.926     0.043     2.407     2.426
    51   1 H        0.926     0.047     2.360     2.402
    52   1 H        0.926     0.062     2.172     2.305
    53   1 H        0.926     0.044     2.395     2.420
    54   1 H        0.926     0.043     2.409     2.427
    55   1 H        0.926     0.042     2.426     2.436
    56   1 H        0.925     0.036     2.499     2.472
    57   1 H        0.926     0.059     2.209     2.324
    58   1 H        0.926     0.047     2.360     2.402
    59   1 H        0.926     0.050     2.316     2.380
    60   1 H        0.926     0.039     2.466     2.456
    61   1 H        0.926     0.041     2.431     2.438
    62   1 H        0.926     0.042     2.425     2.435
    63   1 H        0.926     0.047     2.354     2.399
    64   1 H        0.926     0.047     2.354     2.399
    65   1 H        0.926     0.042     2.425     2.435
    66   1 H        0.926     0.041     2.432     2.439
    67   1 H        0.926     0.040     2.449     2.447
    68   1 H        0.926     0.051     2.310     2.377
    69   1 H        0.926     0.051     2.310     2.377
    70   1 H        0.926     0.045     2.382     2.414
    71   1 H        0.926     0.048     2.342     2.393
    72   1 H        0.926     0.050     2.321     2.383
    73   1 H        0.926     0.054     2.266     2.354
    74   1 H        0.926     0.072     2.063     2.246
    75   1 H        0.925     0.036     2.500     2.473

molecular dipole:
                 x           y           z       tot (Debye)
 q only:        0.055      -0.248       0.119
   full:        0.303      -0.170       0.169       0.983

 projected vibrational frequencies (cm⁻¹)
eigval :       -0.00    -0.00    -0.00     0.00     0.00     0.00
eigval :        7.88     9.99    11.58    27.34    31.80    33.40
eigval :       36.18    40.39    47.40    54.92    57.04    65.41
eigval :       72.16    83.02    98.96   104.74   118.95   140.89
eigval :      152.95   162.19   186.14   190.82   206.96   213.47
eigval :      222.57   242.56   250.15   255.36   265.04   271.98
eigval :      277.30   284.57   334.21   362.92   366.31   368.95
eigval :      374.72   379.65   383.83   386.30   394.27   406.41
eigval :      413.09   422.28   428.99   442.30   445.08   470.05
eigval :      486.74   494.76   510.70   521.57   523.13   540.94
eigval :      548.96   551.78   573.46   578.31   584.83   591.27
eigval :      593.29   602.81   604.32   610.52   626.53   641.07
eigval :      646.58   658.21   659.71   660.96   679.18   690.15
eigval :      702.04   712.53   713.68   726.12   762.92   768.16
eigval :      775.46   776.58   777.82   782.54   784.86   797.87
eigval :      824.48   840.46   842.58   852.72   863.11   865.05
eigval :      866.30   874.49   884.88   887.95   888.25   891.84
eigval :      893.72   896.50   898.88   900.40   913.52   915.05
eigval :      915.47   916.98   917.65   921.28   927.72   929.90
eigval :      932.48   933.83   934.48   940.08   965.03   999.06
eigval :     1002.29  1005.57  1022.41  1067.34  1088.52  1089.36
eigval :     1090.66  1094.37  1096.71  1105.47  1106.44  1117.27
eigval :     1119.82  1125.60  1130.67  1132.03  1141.64  1164.99
eigval :     1166.61  1169.42  1171.58  1173.13  1178.97  1183.92
eigval :     1195.60  1196.33  1220.18  1222.49  1226.53  1238.34
eigval :     1240.97  1247.33  1248.37  1254.90  1258.63  1261.41
eigval :     1280.30  1284.70  1294.42  1304.22  1305.15  1310.17
eigval :     1332.23  1333.17  1335.88  1345.47  1353.68  1372.93
eigval :     1380.76  1397.74  1400.97  1404.09  1416.80  1422.12
eigval :     1431.04  1440.90  1442.24  1448.42  1455.94  1477.57
eigval :     1480.38  1485.43  1503.53  1524.79  1535.51  1554.49
eigval :     1555.15  1556.91  1565.98  1568.64  1572.39  1579.23
eigval :     1580.31  1583.16  1583.58  1589.00  1601.69  1602.40
eigval :     3042.80  3043.04  3069.30  3069.60  3078.49  3081.71
eigval :     3083.97  3086.61  3086.94  3087.15  3093.38  3094.12
eigval :     3095.44  3095.45  3095.58  3095.87  3099.62  3099.79
eigval :     3100.09  3103.15  3104.78  3105.10  3108.07  3108.47
eigval :     3109.58  3111.68  3120.64

   temp. (K)  partition function   enthalpy   heat capacity  entropy
                                   cal/mol     cal/K/mol   cal/K/mol   J/K/mol
 298.15  VIB  0.771E+18            21887.123    136.722    137.458
         ROT  0.107E+09              888.752      2.981     39.729
         INT  0.828E+26            22775.875    139.703    177.187
         TR   0.149E+29             1481.254      4.968     45.125
         TOT                       24257.1289   144.6708   222.3120   930.1535

       T/K    H(0)-H(T)+PV         H(T)/Eh          T*S/Eh         G(T)/Eh
   ------------------------------------------------------------------------
    298.15    0.386562E-01    0.601176E+00    0.105628E+00    0.495548E+00
   ------------------------------------------------------------------------

         :::::::::::::::::::::::::::::::::::::::::::::::::::::
         ::                  THERMODYNAMIC                  ::
         :::::::::::::::::::::::::::::::::::::::::::::::::::::
         :: total free energy        -121.969856555640 Eh   ::
         ::.................................................::
         :: total energy             -122.465405039849 Eh   ::
         :: zero point energy           0.562519899757 Eh   ::
         :: G(RRHO) w/o ZPVE           -0.066971415548 Eh   ::
         :: G(RRHO) contrib.            0.495548484209 Eh   ::
         :::::::::::::::::::::::::::::::::::::::::::::::::::::

           -------------------------------------------------
          | TOTAL ENERGY             -122.465405039849 Eh   |
          | TOTAL ENTHALPY           -121.864228944559 Eh   |
          | TOTAL FREE ENERGY        -121.969856555640 Eh   |
          | GRADIENT NORM               0.000079997630 Eh/α |
          | HOMO-LUMO GAP               1.347258711477 eV   |
           -------------------------------------------------

 * finished run on 2025/09/12 at 15:12:14.380
