   * xtb version 6.7.1 (edcfbbe) compiled by 'albert@albert-system' on 2024-07-22

   ID    Z sym.   atoms
    1    8 O      1, 24
    2    6 C      2-23, 25-30
    3    1 H      31-52

          program call               : xtb data2507/gas/Z-o-DHMPA/Z-o-DHMPA_gas_S0_finalOpt.xtbopt.xyz --gfn 2 --spinpol --tblite --uhf 2 --ohess vtight --parallel 40 --molden --ceasefiles --namespace data2507/gas/Z-o-DHMPA/Z-o-DHMPA_gas_T1_preOpt
 * total energy  :   -79.2204655 Eh     change       -0.1492944E-07 Eh
 * total energy  :   -79.2270585 Eh     change       -0.6593045E-02 Eh
 * total energy  :   -79.2285037 Eh     change       -0.1445174E-02 Eh
 * total energy  :   -79.2286064 Eh     change       -0.1027156E-03 Eh
 * total energy  :   -79.2286821 Eh     change       -0.7563957E-04 Eh
 * total energy  :   -79.2287237 Eh     change       -0.4160674E-04 Eh
 * total energy  :   -79.2287826 Eh     change       -0.5896130E-04 Eh
 * total energy  :   -79.2288642 Eh     change       -0.8152417E-04 Eh
 * total energy  :   -79.2289397 Eh     change       -0.7551569E-04 Eh
 * total energy  :   -79.2289860 Eh     change       -0.4628652E-04 Eh
 * total energy  :   -79.2290850 Eh     change       -0.4993335E-05 Eh
 * total energy  :   -79.2290888 Eh     change       -0.3822873E-05 Eh
 * total energy  :   -79.2290901 Eh     change       -0.1297021E-05 Eh
 * total energy  :   -79.2290907 Eh     change       -0.5889767E-06 Eh
 * total energy  :   -79.2290906 Eh     change        0.8124763E-07 Eh
 * total energy  :   -79.2290911 Eh     change       -0.4468079E-06 Eh
 * total energy  :   -79.2290912 Eh     change       -0.1646052E-06 Eh
 * total energy  :   -79.2290916 Eh     change       -0.3619178E-06 Eh
 * total energy  :   -79.2290917 Eh     change       -0.6415601E-07 Eh
   *** GEOMETRY OPTIMIZATION CONVERGED AFTER 24 ITERATIONS ***

 final structure:
================
52
 xtb: 6.7.1 (edcfbbe)
O           -1.33819673283318       -0.03483549152036        2.14647443295695
C           -2.51567157553725       -0.80243572972445        2.01857837785385
C           -3.42528403085785       -0.36259376895192        0.89538808694109
C           -4.80069093737871       -0.36559803817201        1.07301734985738
C           -5.64995175981491        0.03994524756148        0.05822256721743
C           -5.12344279408657        0.46800267747854       -1.14909555875749
C           -3.75453750804433        0.48378952878775       -1.33651332456676
C           -2.89060268462946        0.06291238432023       -0.32767717172778
C           -1.43490677833171        0.07223386146252       -0.52699468942541
C           -0.72929510620967        1.31244203676900       -0.59582501746271
C           -1.39271565687284        2.53936471374549       -0.61200298227831
C           -0.68750670742093        3.74476738566840       -0.63202698060584
C            0.68780750983835        3.73579688897673       -0.60360489429738
C            1.37614168875651        2.52212782296431       -0.55528142149640
C            0.69681768441302        1.30411011167417       -0.56727767439128
C            1.38930169065879        0.05852640759516       -0.48006179504527
C            2.85142654071234        0.04208704552158       -0.32692425781990
C            3.66312851181798        0.42256028178341       -1.39369465263988
C            5.03985248515565        0.39860759274731       -1.28189293154169
C            5.62427235642022        0.00323049546301       -0.09074208006161
C            4.82536330342581       -0.35884028412169        0.97963070313433
C            3.44119206001383       -0.34999783400015        0.88089705391808
C            2.59832419095472       -0.73108005186430        2.08041232482063
O            1.65518492135805        0.24855215221692        2.44881198089503
C            0.68407194939290       -1.17995823193414       -0.55319232336890
C            1.35367666932865       -2.40323250601753       -0.61705277557399
C            0.65081164315810       -3.60631945897200       -0.70188500600341
C           -0.72499566566241       -3.59837618338618       -0.74087561088308
C           -1.41732111795750       -2.38629733363332       -0.69191470663993
C           -0.73835557424185       -1.17302805055921       -0.58760660672441
H           -1.57686926200627        0.88421401832810        2.31261491614822
H           -3.07673742367036       -0.80034897828167        2.96367881443626
H           -2.16770993114665       -1.82492212630183        1.83242930145656
H           -5.21071556663402       -0.68919195067995        2.01949059898476
H           -6.71848962200589        0.02770291452527        0.21206071002431
H           -5.77975951032416        0.78870970706627       -1.94456445522559
H           -3.33719887865834        0.80340814473592       -2.28051539916100
H           -2.47241711727736        2.56146029898920       -0.60457086392719
H           -1.23161820788809        4.67731101093562       -0.65624631576548
H            1.24297143034361        4.66181220133140       -0.60410407991909
H            2.45332884806111        2.52713533204326       -0.49421824514630
H            3.19702007411745        0.72081862572206       -2.32213449143401
H            5.65464426318280        0.68835021622432       -2.12141880613990
H            6.69954268390030       -0.01533269558788        0.00757268435100
H            5.28429969161994       -0.65179717160251        1.91325181516584
H            3.25975138709483       -0.85356296945336        2.94486485967463
H            2.10638738922548       -1.69560639186359        1.89139099162459
H            0.81593108728931        0.09227012320391        1.99726078416934
H            2.43371178466813       -2.41708113677651       -0.60618010928750
H            1.19538830550349       -4.53803743309703       -0.74060864994634
H           -1.27759582279541       -4.52350524940842       -0.81190969040873
H           -2.49649163327234       -2.38794239488934       -0.74458075493940

 projected vibrational frequencies (cm⁻¹)
eigval :       -0.00    -0.00     0.00     0.00     0.00     0.00
eigval :       30.81    32.74    41.91    52.74    56.72    68.37
eigval :       74.68    92.03   107.31   114.20   123.08   146.23
eigval :      172.38   178.15   194.06   198.06   225.03   229.96
eigval :      254.46   263.21   291.58   293.73   339.66   346.90
eigval :      372.21   381.87   388.12   392.65   409.38   418.26
eigval :      432.37   457.17   458.49   471.23   486.22   502.26
eigval :      555.65   559.22   579.12   580.82   582.62   602.40
eigval :      605.84   614.80   662.24   668.19   693.01   705.33
eigval :      713.82   717.77   745.41   758.48   771.43   773.83
eigval :      806.71   809.98   835.10   844.31   879.32   884.19
eigval :      885.47   887.82   892.80   904.70   905.63   906.47
eigval :      911.10   915.92   917.77   926.68   928.14   941.32
eigval :      947.32   950.80  1060.69  1070.85  1089.06  1093.58
eigval :     1097.34  1098.92  1101.01  1109.90  1114.60  1142.42
eigval :     1150.25  1174.35  1179.77  1180.58  1181.21  1182.14
eigval :     1185.60  1186.67  1217.71  1220.44  1230.45  1246.92
eigval :     1252.01  1255.70  1258.85  1292.17  1294.30  1300.97
eigval :     1306.33  1308.86  1320.22  1334.73  1344.97  1354.87
eigval :     1374.38  1375.13  1384.65  1406.86  1428.83  1431.09
eigval :     1432.47  1455.60  1456.75  1464.79  1469.67  1479.02
eigval :     1482.24  1511.84  1532.97  1564.04  1565.01  1567.20
eigval :     1589.61  1590.14  2875.70  2883.43  2938.91  2943.68
eigval :     3068.90  3070.25  3072.22  3073.83  3075.67  3076.18
eigval :     3078.33  3081.43  3084.11  3085.12  3085.38  3091.41
eigval :     3092.34  3093.78  3094.93  3101.79  3505.18  3545.16

   temp. (K)  partition function   enthalpy   heat capacity  entropy
                                   cal/mol     cal/K/mol   cal/K/mol   J/K/mol
 298.15  VIB  0.717E+10            14361.382     93.057     87.888
         ROT  0.135E+08              888.752      2.981     35.609
         INT  0.968E+17            15250.134     96.038    123.497
         TR   0.747E+28             1481.254      4.968     43.759
         TOT                       16731.3884   101.0059   167.2553   699.7960

       T/K    H(0)-H(T)+PV         H(T)/Eh          T*S/Eh         G(T)/Eh
   ------------------------------------------------------------------------
    298.15    0.266632E-01    0.430783E+00    0.794684E-01    0.351315E+00
   ------------------------------------------------------------------------

         :::::::::::::::::::::::::::::::::::::::::::::::::::::
         ::                  THERMODYNAMIC                  ::
         :::::::::::::::::::::::::::::::::::::::::::::::::::::
         :: total free energy         -78.877776939627 Eh   ::
         ::.................................................::
         :: total energy              -79.229091719367 Eh   ::
         :: zero point energy           0.404119990594 Eh   ::
         :: G(RRHO) w/o ZPVE           -0.052805210853 Eh   ::
         :: G(RRHO) contrib.            0.351314779740 Eh   ::
         :::::::::::::::::::::::::::::::::::::::::::::::::::::

           -------------------------------------------------
          | TOTAL ENERGY              -79.229091719367 Eh   |
          | TOTAL ENTHALPY            -78.798308564206 Eh   |
          | TOTAL FREE ENERGY         -78.877776939627 Eh   |
          | GRADIENT NORM               0.000074960593 Eh/α |
           -------------------------------------------------

 * finished run on 2025/07/18 at 18:05:26.428
