   * xtb version 6.7.1 (edcfbbe) compiled by 'albert@albert-system' on 2024-07-22

   ID    Z sym.   atoms
    1    8 O      1, 24
    2    6 C      2-23, 25-30
    3    1 H      31-52

          program call               : xtb data2507/gas/Z-o-DHMPA/Z-o-DHMPA_gas_S0_crest.xyz --gfn 2 --ohess vtight --parallel 40 --molden --ceasefiles --namespace data2507/gas/Z-o-DHMPA/Z-o-DHMPA_gas_S0_finalOpt
          :  Hamiltonian                  GFN2-xTB          :
 * total energy  :   -79.2933425 Eh     change       -0.2405045E-09 Eh
 * total energy  :   -79.2933440 Eh     change       -0.1543978E-05 Eh
 * total energy  :   -79.2933459 Eh     change       -0.1934763E-05 Eh
 * total energy  :   -79.2933486 Eh     change       -0.2620370E-05 Eh
 * total energy  :   -79.2933502 Eh     change       -0.1596435E-05 Eh
 * total energy  :   -79.2933510 Eh     change       -0.8533060E-06 Eh
 * total energy  :   -79.2933518 Eh     change       -0.8400836E-06 Eh
 * total energy  :   -79.2933527 Eh     change       -0.8446269E-06 Eh
 * total energy  :   -79.2933533 Eh     change       -0.6433756E-06 Eh
 * total energy  :   -79.2933540 Eh     change       -0.6221584E-06 Eh
 * total energy  :   -79.2933546 Eh     change       -0.6716318E-06 Eh
 * total energy  :   -79.2933552 Eh     change       -0.5638244E-06 Eh
 * total energy  :   -79.2933556 Eh     change       -0.3834985E-06 Eh
 * total energy  :   -79.2933559 Eh     change       -0.2905494E-06 Eh
 * total energy  :   -79.2933561 Eh     change       -0.2177809E-06 Eh
 * total energy  :   -79.2933562 Eh     change       -0.1352207E-06 Eh
 * total energy  :   -79.2933563 Eh     change       -0.5104438E-07 Eh
   *** GEOMETRY OPTIMIZATION CONVERGED AFTER 17 ITERATIONS ***

 final structure:
================
52
 xtb: 6.7.1 (edcfbbe)
O           -1.38335759958866        0.12830579294816        2.19445172861963
C           -2.52697707037546       -0.68479530908737        2.03973277397617
C           -3.42816043550077       -0.29736693517362        0.88979030027261
C           -4.80539063307213       -0.28301551293105        1.06050241528830
C           -5.64783883380386        0.04293039748052        0.01207604426838
C           -5.11666055202049        0.36694815770407       -1.22450218540785
C           -3.74558702620988        0.36402410089749       -1.40571148562490
C           -2.89335236922936        0.03135339266544       -0.35967755761422
C           -1.42507232488982        0.03752015639278       -0.53994672843007
C           -0.72735570740552        1.25284106455837       -0.52736883272574
C           -1.39794932357755        2.50259988745320       -0.47087019781689
C           -0.70399128464109        3.67224731439872       -0.41984662124175
C            0.70517318602172        3.66419763063654       -0.40554640089528
C            1.38581580793217        2.48675018823032       -0.44426250298518
C            0.70127360010075        1.24570490053593       -0.51321549067358
C            1.38832723737893        0.02427185177538       -0.51840424824227
C            2.86065651945533        0.00857987077194       -0.37192961277146
C            3.66941968970312        0.30130719516441       -1.46408075172217
C            5.04681404963916        0.29404386995989       -1.34479319159833
C            5.62638868498628       -0.00084509498459       -0.12302469111956
C            4.82577258995082       -0.28698907842048        0.96873078091799
C            3.44143916663338       -0.29204120730028        0.86315473050386
C            2.59276937722798       -0.62127890268530        2.07413211980733
O            1.70953760959580        0.40997083799754        2.45467092115350
C            0.68985127290598       -1.18476807273115       -0.62502033454119
C            1.36324620111997       -2.43202464951380       -0.70699941333028
C            0.67080464539681       -3.60049594140522       -0.79061393229298
C           -0.73910364790930       -3.59356604069414       -0.80264524374333
C           -1.42156755185017       -2.41832729731130       -0.73043119654766
C           -0.73776749668787       -1.17798516574996       -0.63704887837706
H           -1.66223301381705        1.04025050443483        2.33429381582196
H           -3.11205326751186       -0.69911514156757        2.97038574381630
H           -2.13443788306229       -1.69398914064645        1.87082492501112
H           -5.22199146252774       -0.53394789180172        2.02595960840027
H           -6.71715819602994        0.04643171846336        0.16192171887097
H           -5.76911272408989        0.62331152733728       -2.04595584899103
H           -3.32081794251356        0.61442803399831       -2.36722145561291
H           -2.47864281638389        2.50978873189092       -0.47436648314019
H           -1.22831444116587        4.61623748603672       -0.38378484987696
H            1.23818462722702        4.60221222303858       -0.35686738399931
H            2.46493911900412        2.47780906595449       -0.42086868811218
H            3.20471671488618        0.53071741943538       -2.41269431192822
H            5.66467906246410        0.52027201657288       -2.20135225453541
H            6.70138869754874       -0.00461537106313       -0.01894022763521
H            5.28223640505213       -0.51134437452756        1.92222521503492
H            3.25594596942162       -0.78155854210037        2.93102908402140
H            2.04481068249515       -1.55588128794637        1.88994477244833
H            0.85664207976998        0.29698927771832        2.01715098947187
H            2.44389087798941       -2.43235027725897       -0.71243877695451
H            1.19488479095177       -4.54286296657237       -0.85491181404521
H           -1.27133493617756       -4.53078846199158       -0.87634711295009
H           -2.50210613601822       -2.40977402588681       -0.75644199382047

          :  Hamiltonian                  GFN2-xTB          :
         :: gradient norm              0.000047177131 Eh/a0 ::
         :: HOMO-LUMO gap              2.132973743748 eV    ::
         :: SCC energy               -80.679775469186 Eh    ::
         :: -> dispersion             -0.073355239440 Eh    ::
         :: repulsion energy           1.386419165915 Eh    ::

    * Orbital Energies and Occupations

         #    Occupation            Energy/Eh            Energy/eV
      -------------------------------------------------------------
         1        2.0000           -0.6952916             -18.9198
       ...           ...                  ...                  ...
        61        2.0000           -0.4252539             -11.5717
        62        2.0000           -0.4230712             -11.5124
        63        2.0000           -0.4188603             -11.3978
        64        2.0000           -0.4137161             -11.2578
        65        2.0000           -0.4080919             -11.1047
        66        2.0000           -0.4043719             -11.0035
        67        2.0000           -0.4020503             -10.9403
        68        2.0000           -0.4009495             -10.9104
        69        2.0000           -0.3981980             -10.8355
        70        2.0000           -0.3974261             -10.8145
        71        2.0000           -0.3925314             -10.6813
        72        2.0000           -0.3909675             -10.6388
        73        2.0000           -0.3563062              -9.6956 (HOMO)
        74                         -0.2779209              -7.5626 (LUMO)
        75                         -0.2316630              -6.3039
        76                         -0.2310979              -6.2885
        77                         -0.2282306              -6.2105
        78                         -0.2217396              -6.0338
        79                         -0.2205028              -6.0002
        80                         -0.2191521              -5.9634
        81                         -0.1750962              -4.7646
        82                         -0.1715800              -4.6689
        83                         -0.1037147              -2.8222
        84                         -0.0974762              -2.6525
       ...                                ...                  ...
       142                          0.7171744              19.5153
      -------------------------------------------------------------
                  HL-Gap            0.0783853 Eh            2.1330 eV

     #   Z          covCN         q      C6AA      α(0)
     1   8 O        1.655    -0.445    21.742     6.294
     2   6 C        3.679     0.082    19.426     6.313
     3   6 C        2.971    -0.012    28.319     8.729
     4   6 C        2.923    -0.040    28.991     8.830
     5   6 C        2.919    -0.032    28.799     8.800
     6   6 C        2.919    -0.032    28.794     8.799
     7   6 C        2.923    -0.033    28.835     8.806
     8   6 C        2.981     0.015    27.675     8.629
     9   6 C        2.979     0.001    28.009     8.681
    10   6 C        2.984     0.007    27.856     8.658
    11   6 C        2.917    -0.039    28.957     8.824
    12   6 C        2.915    -0.031    28.771     8.796
    13   6 C        2.915    -0.030    28.747     8.792
    14   6 C        2.917    -0.030    28.744     8.792
    15   6 C        2.985     0.009    27.817     8.652
    16   6 C        2.979    -0.002    28.077     8.692
    17   6 C        2.981     0.013    27.708     8.635
    18   6 C        2.924    -0.034    28.854     8.809
    19   6 C        2.918    -0.033    28.818     8.803
    20   6 C        2.918    -0.032    28.800     8.800
    21   6 C        2.924    -0.036    28.902     8.816
    22   6 C        2.969    -0.003    28.106     8.696
    23   6 C        3.678     0.083    19.404     6.310
    24   8 O        1.655    -0.447    21.779     6.300
    25   6 C        2.985     0.006    27.887     8.662
    26   6 C        2.917    -0.034    28.856     8.809
    27   6 C        2.914    -0.031    28.770     8.796
    28   6 C        2.914    -0.031    28.775     8.796
    29   6 C        2.917    -0.035    28.864     8.810
    30   6 C        2.985     0.009    27.821     8.652
    31   1 H        0.805     0.292     0.747     1.357
    32   1 H        0.923     0.023     2.693     2.566
    33   1 H        0.924     0.053     2.284     2.363
    34   1 H        0.926     0.029     2.598     2.520
    35   1 H        0.926     0.033     2.546     2.495
    36   1 H        0.926     0.033     2.542     2.493
    37   1 H        0.926     0.034     2.529     2.487
    38   1 H        0.926     0.026     2.640     2.541
    39   1 H        0.926     0.027     2.629     2.535
    40   1 H        0.926     0.030     2.590     2.517
    41   1 H        0.926     0.037     2.490     2.468
    42   1 H        0.926     0.030     2.584     2.514
    43   1 H        0.926     0.031     2.577     2.510
    44   1 H        0.926     0.031     2.567     2.506
    45   1 H        0.926     0.032     2.553     2.498
    46   1 H        0.924     0.042     2.421     2.433
    47   1 H        0.923     0.020     2.729     2.583
    48   1 H        0.805     0.302     0.714     1.327
    49   1 H        0.926     0.030     2.588     2.516
    50   1 H        0.926     0.028     2.612     2.527
    51   1 H        0.926     0.027     2.622     2.532
    52   1 H        0.926     0.027     2.626     2.534

molecular dipole:
                 x           y           z       tot (Debye)
 q only:       -0.586      -0.137      -0.368
   full:       -0.893      -0.180      -0.428       2.558

 projected vibrational frequencies (cm⁻¹)
eigval :       -0.00    -0.00     0.00     0.00     0.00     0.00
eigval :       26.17    33.91    35.73    51.27    65.90    67.35
eigval :       71.02    83.09   106.32   111.78   127.06   145.62
eigval :      170.04   180.22   193.33   199.90   217.18   227.41
eigval :      250.29   268.01   293.34   301.72   334.62   353.39
eigval :      378.86   391.62   397.45   402.65   415.73   447.96
eigval :      452.80   457.56   460.87   461.54   486.16   505.94
eigval :      567.32   570.40   586.41   590.85   591.04   609.25
eigval :      615.27   631.51   669.14   692.40   697.50   711.66
eigval :      719.90   739.28   770.46   775.02   777.19   777.99
eigval :      810.16   814.21   874.11   879.50   884.76   886.38
eigval :      897.36   908.86   913.67   915.05   917.71   918.56
eigval :      920.67   927.55   928.71   929.51   930.07   933.83
eigval :      944.89   949.45  1059.63  1068.09  1078.37  1081.08
eigval :     1095.36  1098.61  1100.01  1116.77  1135.41  1151.50
eigval :     1158.24  1175.18  1180.57  1181.67  1182.19  1184.02
eigval :     1199.48  1202.05  1227.23  1229.87  1239.67  1249.60
eigval :     1257.64  1259.61  1268.35  1296.35  1308.56  1310.17
eigval :     1320.01  1327.42  1342.92  1350.75  1354.78  1371.77
eigval :     1387.31  1418.83  1429.87  1432.56  1434.23  1445.99
eigval :     1459.68  1461.68  1468.96  1485.69  1494.90  1527.20
eigval :     1534.56  1544.19  1575.85  1576.93  1597.74  1598.13
eigval :     1608.19  1622.56  2879.74  2880.98  2941.13  2944.35
eigval :     3068.79  3070.41  3070.68  3070.91  3072.45  3074.43
eigval :     3076.46  3079.53  3081.17  3082.75  3084.61  3087.18
eigval :     3090.57  3091.25  3094.27  3098.28  3515.72  3545.82

   temp. (K)  partition function   enthalpy   heat capacity  entropy
                                   cal/mol     cal/K/mol   cal/K/mol   J/K/mol
 298.15  VIB  0.859E+10            14230.353     91.776     87.364
         ROT  0.134E+08              888.752      2.981     35.599
         INT  0.115E+18            15119.105     94.756    122.963
         TR   0.747E+28             1481.254      4.968     43.759
         TOT                       16600.3589    99.7246   166.7215   697.5629

       T/K    H(0)-H(T)+PV         H(T)/Eh          T*S/Eh         G(T)/Eh
   ------------------------------------------------------------------------
    298.15    0.264544E-01    0.433383E+00    0.792148E-01    0.354168E+00
   ------------------------------------------------------------------------

         :::::::::::::::::::::::::::::::::::::::::::::::::::::
         ::                  THERMODYNAMIC                  ::
         :::::::::::::::::::::::::::::::::::::::::::::::::::::
         :: total free energy         -78.939188422669 Eh   ::
         ::.................................................::
         :: total energy              -79.293356303259 Eh   ::
         :: zero point energy           0.406928303869 Eh   ::
         :: G(RRHO) w/o ZPVE           -0.052760423280 Eh   ::
         :: G(RRHO) contrib.            0.354167880590 Eh   ::
         :::::::::::::::::::::::::::::::::::::::::::::::::::::

           -------------------------------------------------
          | TOTAL ENERGY              -79.293356303259 Eh   |
          | TOTAL ENTHALPY            -78.859973643536 Eh   |
          | TOTAL FREE ENERGY         -78.939188422669 Eh   |
          | GRADIENT NORM               0.000047090803 Eh/α |
          | HOMO-LUMO GAP               2.132973794207 eV   |
           -------------------------------------------------

 * finished run on 2025/07/18 at 18:05:23.730
