   * xtb version 6.7.1 (edcfbbe) compiled by 'albert@albert-system' on 2024-07-22

   ID    Z sym.   atoms
    1    8 O      1, 24
    2    6 C      2-23, 25-30
    3    1 H      31-52

          program call               : xtb data2507/gas/Z-o-DHMPA/Z-o-DHMPA_gas_T1_crest.xyz --gfn 2 --spinpol --tblite --uhf 2 --ohess vtight --parallel 40 --molden --ceasefiles --namespace data2507/gas/Z-o-DHMPA/Z-o-DHMPA_gas_T1_finalOpt
 * total energy  :   -79.2290363 Eh     change       -0.1995154E-07 Eh
 * total energy  :   -79.2290706 Eh     change       -0.3430619E-04 Eh
 * total energy  :   -79.2290784 Eh     change       -0.7759639E-05 Eh
 * total energy  :   -79.2290804 Eh     change       -0.2062721E-05 Eh
 * total energy  :   -79.2290840 Eh     change       -0.3594571E-05 Eh
 * total energy  :   -79.2290867 Eh     change       -0.2699689E-05 Eh
 * total energy  :   -79.2290886 Eh     change       -0.1914294E-05 Eh
 * total energy  :   -79.2290900 Eh     change       -0.1360307E-05 Eh
 * total energy  :   -79.2290909 Eh     change       -0.9415421E-06 Eh
 * total energy  :   -79.2290915 Eh     change       -0.5602972E-06 Eh
 * total energy  :   -79.2290918 Eh     change       -0.2604165E-06 Eh
 * total energy  :   -79.2290918 Eh     change       -0.4838708E-07 Eh
   *** GEOMETRY OPTIMIZATION CONVERGED AFTER 12 ITERATIONS ***

 final structure:
================
52
 xtb: 6.7.1 (edcfbbe)
O           -1.65813188098918       -0.10498652947007        2.45509401424121
C           -2.59820581989330       -1.02428971658572        1.94884144210120
C           -3.44221987207255       -0.47594128411861        0.81683775602481
C           -4.82633868197486       -0.50253334456605        0.91265764513745
C           -5.62604874160386        0.01042981891426       -0.09352725276569
C           -5.04248550141572        0.57775210462433       -1.21347179473940
C           -3.66581592781507        0.62028698416343       -1.32046949331636
C           -2.85328207811980        0.08909450826689       -0.32086530553220
C           -1.39126953543548        0.12833228761434       -0.47025423461088
C           -0.69881886151411        1.37347563989612       -0.37644331067156
C           -1.37832267247643        2.57688114215100       -0.18866009119122
C           -0.69013036353520        3.78489201340919       -0.06145533668144
C            0.68519149598589        3.79804107147698       -0.08838257637958
C            1.39057173148354        2.60244779966965       -0.24228086588881
C            0.72727787997185        1.38597334089497       -0.40328867161163
C            1.43305521313511        0.14884406743997       -0.51391093755062
C            2.88856125624786        0.11018701547437       -0.31702652524797
C            3.75351687099066        0.67253611599341       -1.25343874246496
C            5.12229829510264        0.62814848004407       -1.06969233682196
C            5.64772975728665        0.02774948127271        0.06233264132731
C            4.79747100924142       -0.52017065908607        1.00697790254399
C            3.42215365940049       -0.48917329342100        0.83142364126479
C            2.51128377509041       -1.08522470469423        1.87901416522432
O            1.33550803097806       -0.34146871240158        2.11673759137480
C            0.73655542181479       -1.07451890521903       -0.75480364396144
C            1.41572817355096       -2.25968567703153       -1.03413464206504
C            0.72355637286421       -3.45174002060548       -1.25924441490070
C           -0.65227659490301       -3.46536091757120       -1.22215085828114
C           -1.35528644661493       -2.28751780999017       -0.96325922491395
C           -0.68582934408852       -1.08645257055309       -0.72215182105856
H           -0.81751535021707       -0.19375230410506        1.98804140107410
H           -3.25921754263227       -1.27245034357698        2.78625643708688
H           -2.10323130278761       -1.94976363063713        1.62263388419301
H           -5.28460967570113       -0.92987446884306        1.79326103403096
H           -6.70128063882281       -0.02499295713232        0.00049345941926
H           -5.65795975871297        0.98623367657581       -2.00153533437023
H           -3.20044580345393        1.05177455909227       -2.19537111492515
H           -2.45549565773667        2.57281597085623       -0.12741546304655
H           -1.24531269488182        4.70126721203486        0.07178428852484
H            1.22910072233040        4.72444193208132        0.02222561642112
H            2.47026640927230        2.62331403713580       -0.23158536495804
H            3.33709402494968        1.12634214324644       -2.14118958631864
H            5.77941275263277        1.06030321492704       -1.80981919245649
H            6.71619389844485       -0.00861470067690        0.21282643076226
H            5.20662819860525       -0.97862085488677        1.89639175899679
H            3.07205404063594       -1.22125005224050        2.81445735542455
H            2.16106599567476       -2.06917141763652        1.54681633381684
H            1.57637185118206        0.54347055619528        2.41356711224554
H            2.49491486359992       -2.25359682874561       -1.08597714877889
H            1.27616566101765       -4.35670297351567       -1.46404183829490
H           -1.19664130231137       -4.38162855602783       -1.39618167462210
H           -2.43531006588038       -2.30294853501276       -0.95462259410982

 projected vibrational frequencies (cm⁻¹)
eigval :       -0.00    -0.00    -0.00    -0.00     0.00     0.00
eigval :       30.78    32.92    41.90    52.70    56.49    68.37
eigval :       74.00    92.29   107.21   114.26   123.41   146.25
eigval :      172.16   178.20   193.98   197.93   225.11   229.83
eigval :      254.36   263.07   292.08   292.84   339.78   346.80
eigval :      372.25   381.79   388.14   392.61   409.37   418.16
eigval :      432.31   457.05   458.65   471.19   486.42   502.24
eigval :      555.63   559.13   579.09   580.80   582.64   602.38
eigval :      605.79   614.83   662.14   668.20   693.06   705.37
eigval :      713.85   717.63   745.30   758.31   771.29   773.69
eigval :      806.80   810.01   835.03   844.13   879.24   884.16
eigval :      885.30   887.79   892.77   904.64   905.51   906.45
eigval :      911.06   915.83   917.70   926.54   928.04   941.50
eigval :      947.31   950.81  1060.55  1070.71  1089.11  1093.21
eigval :     1097.21  1098.75  1100.95  1109.94  1114.81  1142.49
eigval :     1149.83  1174.53  1179.93  1180.66  1181.32  1182.17
eigval :     1185.66  1186.96  1217.71  1220.55  1230.60  1246.94
eigval :     1252.11  1255.83  1258.94  1292.05  1294.42  1301.11
eigval :     1306.32  1308.56  1320.31  1334.70  1344.97  1354.91
eigval :     1374.40  1375.19  1384.69  1406.88  1428.68  1431.22
eigval :     1432.50  1455.77  1456.85  1464.62  1469.57  1479.10
eigval :     1482.31  1511.94  1532.95  1564.05  1564.92  1567.06
eigval :     1589.64  1590.15  2876.54  2883.55  2939.12  2943.88
eigval :     3069.13  3070.50  3072.41  3073.80  3075.74  3076.39
eigval :     3078.36  3081.71  3084.13  3085.31  3085.51  3091.56
eigval :     3092.42  3093.90  3095.15  3101.87  3505.29  3544.82

   temp. (K)  partition function   enthalpy   heat capacity  entropy
                                   cal/mol     cal/K/mol   cal/K/mol   J/K/mol
 298.15  VIB  0.722E+10            14363.061     93.055     87.902
         ROT  0.135E+08              888.752      2.981     35.608
         INT  0.974E+17            15251.813     96.036    123.511
         TR   0.747E+28             1481.254      4.968     43.759
         TOT                       16733.0668   101.0039   167.2692   699.8542

       T/K    H(0)-H(T)+PV         H(T)/Eh          T*S/Eh         G(T)/Eh
   ------------------------------------------------------------------------
    298.15    0.266658E-01    0.430788E+00    0.794750E-01    0.351313E+00
   ------------------------------------------------------------------------

         :::::::::::::::::::::::::::::::::::::::::::::::::::::
         ::                  THERMODYNAMIC                  ::
         :::::::::::::::::::::::::::::::::::::::::::::::::::::
         :: total free energy         -78.877778998606 Eh   ::
         ::.................................................::
         :: total energy              -79.229091812032 Eh   ::
         :: zero point energy           0.404121957418 Eh   ::
         :: G(RRHO) w/o ZPVE           -0.052809143992 Eh   ::
         :: G(RRHO) contrib.            0.351312813426 Eh   ::
         :::::::::::::::::::::::::::::::::::::::::::::::::::::

           -------------------------------------------------
          | TOTAL ENERGY              -79.229091812032 Eh   |
          | TOTAL ENTHALPY            -78.798304015266 Eh   |
          | TOTAL FREE ENERGY         -78.877778998606 Eh   |
          | GRADIENT NORM               0.000100005169 Eh/α |
           -------------------------------------------------

 * finished run on 2025/07/18 at 18:07:25.873
