   * xtb version 6.7.1 (edcfbbe) compiled by 'albert@albert-system' on 2024-07-22

   ID    Z sym.   atoms
    1    6 C      1-58
    2    1 H      59-118

          program call               : xtb data2507/gas/TBRb/TBRb.xyz --gfn 2 --ohess vtight --parallel 40 --molden --ceasefiles --namespace data2507/gas/TBRb/TBRb_gas_S0_preOpt
          :  Hamiltonian                  GFN2-xTB          :
 * total energy  :  -154.8171848 Eh     change       -0.4833879E-08 Eh
 * total energy  :  -154.8404176 Eh     change       -0.2323283E-01 Eh
 * total energy  :  -154.8510758 Eh     change       -0.1065817E-01 Eh
 * total energy  :  -154.8560339 Eh     change       -0.4958089E-02 Eh
 * total energy  :  -154.8592549 Eh     change       -0.3220971E-02 Eh
 * total energy  :  -154.8607937 Eh     change       -0.1538818E-02 Eh
 * total energy  :  -154.8614153 Eh     change       -0.6215937E-03 Eh
 * total energy  :  -154.8617861 Eh     change       -0.3708499E-03 Eh
 * total energy  :  -154.8621831 Eh     change       -0.3969406E-03 Eh
 * total energy  :  -154.8626265 Eh     change       -0.4434034E-03 Eh
 * total energy  :  -154.8645838 Eh     change       -0.4859529E-06 Eh
 * total energy  :  -154.8645842 Eh     change       -0.4221820E-06 Eh
 * total energy  :  -154.8645846 Eh     change       -0.3821571E-06 Eh
 * total energy  :  -154.8645848 Eh     change       -0.2502723E-06 Eh
 * total energy  :  -154.8645850 Eh     change       -0.1654350E-06 Eh
 * total energy  :  -154.8645852 Eh     change       -0.1748826E-06 Eh
 * total energy  :  -154.8645853 Eh     change       -0.1655584E-06 Eh
 * total energy  :  -154.8645855 Eh     change       -0.1591356E-06 Eh
 * total energy  :  -154.8645855 Eh     change       -0.2023228E-08 Eh
   *** GEOMETRY OPTIMIZATION CONVERGED AFTER 68 ITERATIONS ***

 final structure:
================
118
 xtb: 6.7.1 (edcfbbe)
C           -8.03271354376144        1.67789225713147       -0.35674061784933
C           -7.09498195925100        1.07003917627134       -1.40319361890711
C           -7.24241741939811        1.87267192791882       -2.70368416458263
C           -7.52450700237453       -0.38455970682779       -1.63717860354794
C           -5.63839682287536        1.09289951118491       -0.96852597090504
C           -4.66212187506425        0.56031535770758       -1.80659345387086
C           -3.32948613781467        0.55250949551998       -1.44989974220550
C           -2.91742607534182        1.08312781894691       -0.23251802575290
C           -1.47909301557796        1.13201141295397        0.09405056163301
C           -0.85868565267378        2.38195793688840        0.13341743380006
C           -1.56686993481003        3.59630851995680       -0.08107174636553
C           -0.97137611758372        4.80397373008016        0.08324907006366
C            0.38417310105560        4.91463171396075        0.49442628845807
C            0.97041182861290        6.29658406010537        0.72644642758852
C            2.43049321087681        6.24700230697966        1.18514982760578
C            0.15187516293210        7.01182249669921        1.81048067449254
C            0.90650394270290        7.09289921894625       -0.58464105725256
C            1.09912862919619        3.76499339257771        0.64686873964578
C            0.53873818763453        2.47723843902986        0.41778314698515
C            1.31836572712364        1.31727692197821        0.44364234795114
C            2.75448357484125        1.45938084941048        0.76064735033073
C            3.62162651185704        2.15200092368703       -0.07950947478448
C            4.94090627762598        2.34859997932581        0.28030101526314
C            5.41157901929053        1.86543703601227        1.48959797683367
C            4.55432919456081        1.18563490679539        2.33722835192558
C            3.23458250216291        0.98665683119904        1.97760156816183
C            0.71930576221228        0.04837107097165        0.26917302938642
C            1.47904860811140       -1.13191574344660        0.09430663616504
C            2.91752548726585       -1.08301378336339       -0.23164243883015
C            3.88197713031934       -1.63771603435609        0.59967558591408
C            5.21726726334080       -1.63253998212465        0.24215351915622
C            5.63879070917740       -1.09285465073963       -0.96657722335147
C            7.09554572211023       -1.07005820541871       -1.40068223887856
C            8.03283044587049       -1.67808366141328       -0.35393124192271
C            7.24342228148018       -1.87258014687576       -2.70119235757874
C            7.52527155555142        0.38453106227452       -1.63436091573678
C            4.66288426507775       -0.56005904769411       -1.80493875888304
C            3.33010837566932       -0.55221769899929       -1.44876837782785
C            0.85859736473019       -2.38186361769028        0.13305820195242
C            1.56687906328502       -3.59615393594500       -0.08144941116638
C            0.97130427867330       -4.80386842941808        0.08220311153120
C           -0.38446176022240       -4.91465424768155        0.49262344430953
C           -0.97080727844891       -6.29668341417144        0.72391401977921
C           -2.43137071117537       -6.24729775850287        1.18110247080839
C           -0.15327103500016       -7.01184589951189        1.80875450823766
C           -0.90548234212559       -7.09295490679026       -0.58713149033730
C           -1.09946074523140       -3.76505716605226        0.64517354858947
C           -0.53894555063532       -2.47722456452263        0.41682430021906
C           -1.31854697435666       -1.31724825416864        0.44283239287126
C           -2.75473469205977       -1.45933298493224        0.75952688936729
C           -3.62179665911133       -2.15173230731165       -0.08089362551550
C           -4.94113805774688       -2.34833696813516        0.27869043402149
C           -5.41196717364922       -1.86537842780435        1.48800761572784
C           -4.55480937897803       -1.18576826584155        2.33588563720863
C           -3.23499762266997       -0.98679996102798        1.97649438242204
C           -0.71939868231472       -0.04830793950376        0.26891056964979
C           -3.88224241357586        1.63763314792762        0.59850715970687
C           -5.21738981303671        1.63242466699866        0.24045619921688
H           -7.79563735782892        2.72414823882930       -0.17789735272250
H           -7.97325187488945        1.13276784225614        0.58249975092885
H           -9.05937414617735        1.62305275668224       -0.71382078085644
H           -8.28236660841543        1.88194959164281       -3.02380628863645
H           -6.64383047171620        1.44420776502286       -3.50277626255447
H           -6.91932077012554        2.90033681323290       -2.54990627968032
H           -8.56758814618590       -0.42340863773037       -1.94507927083155
H           -7.41071193094740       -0.95688002897899       -0.71943122708805
H           -6.92317690150958       -0.85597044498996       -2.40942952935005
H           -4.93964620256561        0.14072399336392       -2.76220420704825
H           -2.59243938153629        0.13459976830971       -2.12127446202605
H           -2.60318070791897        3.54475063260185       -0.37922491455082
H           -1.54901449667274        5.69915128199623       -0.09169448028123
H            2.52864254688017        5.69989374242177        2.11998933178650
H            3.06232065179881        5.77829584755881        0.43420333987979
H            2.79434727376939        7.25979805318102        1.34703265686771
H            0.17925904509184        6.44233693612866        2.73730462396182
H           -0.88660171457533        7.12858739565864        1.51300629245480
H            0.56446583797412        8.00059939512035        2.00037166473948
H            1.46920871148465        6.58038383830041       -1.36229336479870
H           -0.11735603665006        7.21267704239471       -0.92810785232625
H            1.33572416355060        8.08266794914319       -0.44299628128397
H            2.13231558278320        3.80030424494546        0.94678261227006
H            3.25422955190887        2.52965544980928       -1.02311411244515
H            5.60260155031013        2.88752509487558       -0.38252556105989
H            6.44188175568853        2.02411444744716        1.77393377930959
H            4.91453757928576        0.81320998956646        3.28538954850236
H            2.56178263152427        0.46442079483599        2.64301896452013
H            3.58332116808738       -2.06516855234695        1.54655456182571
H            5.92701741146440       -2.06422492581485        0.92895376917832
H            7.97305258784002       -1.13304023223552        0.58533529380658
H            9.05963262947924       -1.62329732587603       -0.71061454727323
H            7.79560164657656       -2.72433631734037       -0.17527424707591
H            6.92018009572249       -2.90023508311892       -2.54764676537785
H            6.64518217337058       -1.44398373803388       -3.50047186924331
H            8.28349557206767       -1.88191218145095       -3.02091112435439
H            7.41110840205770        0.95679568629305       -0.71662292707008
H            6.92431479933407        0.85603658678885       -2.40684307117462
H            8.56849035848250        0.42333123163115       -1.94180113672055
H            4.94081074492824       -0.14034339547984       -2.76037768485789
H            2.59335703497221       -0.13415525915440       -2.12037171664915
H            2.60334293573501       -3.54451451780412       -0.37905462832374
H            1.54904968390746       -5.69898954282803       -0.09267459388576
H           -2.53053935787494       -5.70049324674398        2.11601123349527
H           -3.06241152857241       -5.77837239045815        0.42963032659593
H           -2.79535837805205       -7.26015794610269        1.34228334130375
H           -0.18185253471957       -6.44249767940191        2.73562780922125
H           -0.56577192914161       -8.00077477735779        1.99804607549401
H            0.88557246468217       -7.12823130423342        1.51240495460765
H            0.11874788105868       -7.21286803417508       -0.92944000217305
H           -1.46724368962243       -6.58036134038917       -1.36541482802851
H           -1.33497764064956       -8.08267689528073       -0.44599826016934
H           -2.13278734929052       -3.80046877471016        0.94459188464043
H           -3.25429116767058       -2.52921132803785       -1.02452571876450
H           -5.60275541192685       -2.88711826118116       -0.38433014261548
H           -6.44232214885368       -2.02405005179866        1.77215734738298
H           -4.91514188479356       -0.81348559683997        3.28405579086163
H           -2.56227340148294       -0.46472391406553        2.64211429038792
H           -3.58398490802907        2.06495580453408        1.54557005251713
H           -5.92744212989555        2.06395305020663        0.92704231370217

          :  Hamiltonian                  GFN2-xTB          :
         :: gradient norm              0.000031894345 Eh/a0 ::
         :: HOMO-LUMO gap              1.450848429875 eV    ::
         :: SCC energy              -157.684406902566 Eh    ::
         :: -> dispersion             -0.173714814253 Eh    ::
         :: repulsion energy           2.819821416183 Eh    ::

    * Orbital Energies and Occupations

         #    Occupation            Energy/Eh            Energy/eV
      -------------------------------------------------------------
         1        2.0000           -0.6459794             -17.5780
       ...           ...                  ...                  ...
       134        2.0000           -0.4029006             -10.9635
       135        2.0000           -0.4026234             -10.9559
       136        2.0000           -0.3967211             -10.7953
       137        2.0000           -0.3960371             -10.7767
       138        2.0000           -0.3959416             -10.7741
       139        2.0000           -0.3893046             -10.5935
       140        2.0000           -0.3865726             -10.5192
       141        2.0000           -0.3836733             -10.4403
       142        2.0000           -0.3822459             -10.4014
       143        2.0000           -0.3786696             -10.3041
       144        2.0000           -0.3699306             -10.0663
       145        2.0000           -0.3689296             -10.0391
       146        2.0000           -0.3344976              -9.1021 (HOMO)
       147                         -0.2811799              -7.6513 (LUMO)
       148                         -0.2339096              -6.3650
       149                         -0.2244287              -6.1070
       150                         -0.2236356              -6.0854
       151                         -0.2233630              -6.0780
       152                         -0.2203703              -5.9966
       153                         -0.2200327              -5.9874
       154                         -0.2058302              -5.6009
       155                         -0.2055601              -5.5936
       156                         -0.2052496              -5.5851
       157                         -0.2051874              -5.5834
       ...                                ...                  ...
       292                          0.7262768              19.7630
      -------------------------------------------------------------
                  HL-Gap            0.0533177 Eh            1.4508 eV

     #   Z          covCN         q      C6AA      α(0)
     1   6 C        3.761    -0.106    22.573     6.773
     2   6 C        3.903     0.025    20.092     6.372
     3   6 C        3.762    -0.104    22.539     6.768
     4   6 C        3.762    -0.104    22.535     6.767
     5   6 C        2.974     0.006    27.895     8.663
     6   6 C        2.927    -0.036    28.896     8.816
     7   6 C        2.925    -0.034    28.843     8.807
     8   6 C        2.978     0.012    27.747     8.640
     9   6 C        2.975    -0.006    28.161     8.705
    10   6 C        2.986     0.002    27.966     8.675
    11   6 C        2.914    -0.039    28.967     8.826
    12   6 C        2.921    -0.036    28.885     8.813
    13   6 C        2.969     0.006    27.879     8.661
    14   6 C        3.903     0.025    20.092     6.372
    15   6 C        3.761    -0.107    22.582     6.774
    16   6 C        3.762    -0.104    22.532     6.767
    17   6 C        3.762    -0.104    22.526     6.766
    18   6 C        2.924    -0.050    29.231     8.866
    19   6 C        2.984     0.003    27.947     8.672
    20   6 C        2.976    -0.008    28.209     8.712
    21   6 C        2.978     0.018    27.605     8.618
    22   6 C        2.925    -0.030    28.751     8.793
    23   6 C        2.919    -0.030    28.750     8.793
    24   6 C        2.920    -0.032    28.800     8.800
    25   6 C        2.919    -0.030    28.745     8.792
    26   6 C        2.926    -0.031    28.765     8.795
    27   6 C        2.979    -0.001    28.055     8.688
    28   6 C        2.975    -0.006    28.161     8.705
    29   6 C        2.978     0.012    27.747     8.640
    30   6 C        2.924    -0.034    28.845     8.808
    31   6 C        2.925    -0.041    29.013     8.833
    32   6 C        2.974     0.006    27.895     8.663
    33   6 C        3.903     0.025    20.092     6.372
    34   6 C        3.761    -0.106    22.573     6.773
    35   6 C        3.762    -0.104    22.539     6.768
    36   6 C        3.762    -0.104    22.535     6.767
    37   6 C        2.927    -0.036    28.896     8.816
    38   6 C        2.925    -0.034    28.843     8.807
    39   6 C        2.986     0.002    27.966     8.675
    40   6 C        2.914    -0.039    28.967     8.826
    41   6 C        2.921    -0.036    28.885     8.813
    42   6 C        2.969     0.006    27.879     8.661
    43   6 C        3.903     0.025    20.092     6.372
    44   6 C        3.761    -0.107    22.582     6.774
    45   6 C        3.762    -0.104    22.532     6.767
    46   6 C        3.762    -0.104    22.526     6.766
    47   6 C        2.924    -0.050    29.231     8.866
    48   6 C        2.984     0.003    27.947     8.672
    49   6 C        2.976    -0.008    28.209     8.712
    50   6 C        2.978     0.018    27.605     8.618
    51   6 C        2.925    -0.030    28.751     8.793
    52   6 C        2.919    -0.030    28.750     8.793
    53   6 C        2.920    -0.032    28.800     8.800
    54   6 C        2.919    -0.030    28.745     8.792
    55   6 C        2.926    -0.031    28.765     8.795
    56   6 C        2.979    -0.001    28.055     8.688
    57   6 C        2.924    -0.034    28.845     8.808
    58   6 C        2.925    -0.041    29.013     8.833
    59   1 H        0.925     0.035     2.520     2.482
    60   1 H        0.925     0.035     2.514     2.479
    61   1 H        0.925     0.035     2.517     2.481
    62   1 H        0.925     0.036     2.503     2.474
    63   1 H        0.925     0.036     2.503     2.474
    64   1 H        0.925     0.033     2.550     2.497
    65   1 H        0.925     0.035     2.512     2.479
    66   1 H        0.925     0.035     2.515     2.480
    67   1 H        0.925     0.035     2.517     2.481
    68   1 H        0.926     0.027     2.631     2.536
    69   1 H        0.926     0.024     2.668     2.554
    70   1 H        0.926     0.030     2.592     2.518
    71   1 H        0.926     0.026     2.646     2.544
    72   1 H        0.925     0.035     2.519     2.482
    73   1 H        0.925     0.035     2.515     2.480
    74   1 H        0.925     0.035     2.510     2.478
    75   1 H        0.925     0.033     2.545     2.495
    76   1 H        0.925     0.036     2.499     2.472
    77   1 H        0.925     0.036     2.509     2.477
    78   1 H        0.925     0.033     2.547     2.496
    79   1 H        0.925     0.036     2.502     2.473
    80   1 H        0.925     0.036     2.506     2.476
    81   1 H        0.926     0.038     2.480     2.463
    82   1 H        0.926     0.029     2.607     2.525
    83   1 H        0.926     0.027     2.629     2.535
    84   1 H        0.926     0.024     2.673     2.556
    85   1 H        0.926     0.027     2.628     2.535
    86   1 H        0.926     0.027     2.633     2.538
    87   1 H        0.926     0.026     2.637     2.539
    88   1 H        0.926     0.033     2.538     2.491
    89   1 H        0.925     0.035     2.514     2.479
    90   1 H        0.925     0.035     2.517     2.481
    91   1 H        0.925     0.035     2.520     2.482
    92   1 H        0.925     0.033     2.550     2.497
    93   1 H        0.925     0.036     2.503     2.474
    94   1 H        0.925     0.036     2.503     2.474
    95   1 H        0.925     0.035     2.515     2.480
    96   1 H        0.925     0.035     2.517     2.481
    97   1 H        0.925     0.035     2.512     2.479
    98   1 H        0.926     0.027     2.631     2.536
    99   1 H        0.926     0.024     2.668     2.554
   100   1 H        0.926     0.030     2.592     2.518
   101   1 H        0.926     0.026     2.646     2.544
   102   1 H        0.925     0.035     2.519     2.482
   103   1 H        0.925     0.035     2.515     2.480
   104   1 H        0.925     0.035     2.510     2.478
   105   1 H        0.925     0.033     2.545     2.495
   106   1 H        0.925     0.036     2.509     2.477
   107   1 H        0.925     0.036     2.499     2.472
   108   1 H        0.925     0.036     2.502     2.473
   109   1 H        0.925     0.033     2.547     2.496
   110   1 H        0.925     0.036     2.506     2.476
   111   1 H        0.926     0.038     2.480     2.463
   112   1 H        0.926     0.029     2.607     2.525
   113   1 H        0.926     0.027     2.629     2.535
   114   1 H        0.926     0.024     2.673     2.556
   115   1 H        0.926     0.027     2.628     2.535
   116   1 H        0.926     0.027     2.633     2.538
   117   1 H        0.926     0.026     2.637     2.539
   118   1 H        0.926     0.033     2.538     2.491

molecular dipole:
                 x           y           z       tot (Debye)
 q only:       -0.000      -0.000      -0.090
   full:        0.000      -0.000      -0.091       0.231

 projected vibrational frequencies (cm⁻¹)
eigval :       -0.00    -0.00     0.00     0.00     0.00     0.00
eigval :       10.23    14.85    15.97    23.64    27.94    30.47
eigval :       31.54    32.48    32.70    35.42    41.44    53.76
eigval :       55.26    70.48    71.20    77.49    82.58    89.27
eigval :       96.52   103.01   112.01   116.32   116.52   123.18
eigval :      128.43   156.54   160.61   163.67   164.78   178.90
eigval :      178.99   185.49   188.73   189.01   197.64   204.68
eigval :      209.09   218.81   221.03   222.42   224.67   224.94
eigval :      237.51   247.09   248.86   254.04   263.50   263.74
eigval :      287.70   294.20   315.02   315.28   315.32   316.53
eigval :      316.60   325.69   327.81   339.25   345.31   349.52
eigval :      352.62   355.54   368.99   371.58   373.00   374.07
eigval :      381.77   382.76   393.94   399.50   401.75   405.50
eigval :      407.97   412.91   433.98   440.10   444.40   444.80
eigval :      455.55   460.57   469.62   473.53   482.83   489.83
eigval :      517.53   521.91   531.98   533.84   554.83   557.78
eigval :      569.16   574.71   586.23   587.44   591.69   599.28
eigval :      602.76   612.08   613.37   630.17   634.41   640.74
eigval :      665.21   665.66   673.38   674.79   679.67   684.75
eigval :      699.18   700.80   720.71   721.95   733.70   740.87
eigval :      761.03   768.45   776.52   784.27   813.92   818.02
eigval :      822.48   822.95   846.02   870.66   872.73   873.30
eigval :      875.56   879.17   879.52   881.23   883.00   883.46
eigval :      901.82   904.58   904.58   917.31   917.54   921.65
eigval :      925.03   925.04   929.22   929.43   932.08   932.38
eigval :      934.71   934.75   935.43   944.08   959.64   960.37
eigval :      960.45   960.71   960.71   962.64   962.71   962.97
eigval :      963.02   963.61   964.52   964.59   966.36   992.86
eigval :     1000.40  1014.58  1018.10  1034.47  1034.72  1034.84
eigval :     1035.16  1035.41  1035.89  1035.98  1036.06  1049.73
eigval :     1084.68  1085.23  1120.24  1120.97  1134.34  1135.56
eigval :     1145.65  1145.88  1153.05  1153.49  1154.92  1158.91
eigval :     1179.90  1183.54  1183.59  1198.33  1199.19  1210.08
eigval :     1212.88  1219.01  1226.32  1226.68  1227.31  1227.32
eigval :     1228.88  1228.89  1232.65  1235.19  1235.22  1240.10
eigval :     1251.37  1262.28  1265.94  1280.36  1282.68  1283.15
eigval :     1283.53  1283.69  1285.25  1292.38  1294.98  1310.66
eigval :     1312.47  1318.18  1318.51  1324.65  1328.78  1344.00
eigval :     1357.50  1379.25  1379.70  1395.64  1396.03  1405.24
eigval :     1405.24  1405.64  1405.68  1405.84  1406.35  1408.34
eigval :     1408.48  1422.72  1428.71  1428.76  1429.24  1429.45
eigval :     1431.08  1431.73  1438.70  1450.79  1454.01  1476.64
eigval :     1484.89  1488.94  1491.18  1491.19  1492.53  1492.54
eigval :     1494.14  1494.82  1494.83  1495.28  1495.60  1495.64
eigval :     1500.03  1501.19  1501.45  1503.35  1503.54  1506.21
eigval :     1506.40  1508.91  1509.85  1513.99  1513.99  1514.47
eigval :     1514.47  1518.25  1520.78  1520.92  1520.96  1524.00
eigval :     1525.69  1525.89  1566.92  1567.13  1581.39  1581.54
eigval :     1600.47  1600.65  1607.15  1607.24  1621.42  1621.95
eigval :     3019.96  3019.97  3021.12  3021.12  3021.48  3021.48
eigval :     3022.54  3022.54  3026.60  3026.60  3027.17  3027.18
eigval :     3028.58  3028.69  3029.49  3029.76  3031.06  3031.13
eigval :     3033.30  3033.31  3035.25  3035.30  3036.98  3037.02
eigval :     3038.54  3038.62  3039.94  3039.95  3045.80  3045.81
eigval :     3047.06  3047.07  3049.06  3049.10  3050.00  3050.03
eigval :     3066.43  3066.45  3067.55  3067.69  3069.49  3069.65
eigval :     3072.05  3072.07  3075.78  3075.96  3078.75  3078.81
eigval :     3081.06  3081.20  3083.74  3084.08  3087.77  3088.12
eigval :     3093.64  3093.84  3110.49  3110.54  3131.09  3131.13

   temp. (K)  partition function   enthalpy   heat capacity  entropy
                                   cal/mol     cal/K/mol   cal/K/mol   J/K/mol
 298.15  VIB  0.231E+26            33441.049    205.627    206.970
         ROT  0.633E+08              888.752      2.981     38.678
         INT  0.146E+34            34329.801    208.608    245.648
         TR   0.202E+29             1481.254      4.968     45.731
         TOT                       35811.0550   213.5760   291.3792  1219.1305

       T/K    H(0)-H(T)+PV         H(T)/Eh          T*S/Eh         G(T)/Eh
   ------------------------------------------------------------------------
    298.15    0.570685E-01    0.104801E+01    0.138444E+00    0.909571E+00
   ------------------------------------------------------------------------

         :::::::::::::::::::::::::::::::::::::::::::::::::::::
         ::                  THERMODYNAMIC                  ::
         :::::::::::::::::::::::::::::::::::::::::::::::::::::
         :: total free energy        -153.955014141216 Eh   ::
         ::.................................................::
         :: total energy             -154.864585486388 Eh   ::
         :: zero point energy           0.990946444250 Eh   ::
         :: G(RRHO) w/o ZPVE           -0.081375099078 Eh   ::
         :: G(RRHO) contrib.            0.909571345172 Eh   ::
         :::::::::::::::::::::::::::::::::::::::::::::::::::::

           -------------------------------------------------
          | TOTAL ENERGY             -154.864585486388 Eh   |
          | TOTAL ENTHALPY           -153.816570493456 Eh   |
          | TOTAL FREE ENERGY        -153.955014141216 Eh   |
          | GRADIENT NORM               0.000031892916 Eh/α |
          | HOMO-LUMO GAP               1.450848475314 eV   |
           -------------------------------------------------

 * finished run on 2025/07/16 at 10:19:16.417
