   * xtb version 6.7.1 (edcfbbe) compiled by 'albert@albert-system' on 2024-07-22

   ID    Z sym.   atoms
    1    6 C      1-58
    2    1 H      59-118

          program call               : xtb data2507/gas/TBRb/TBRb_gas_T1_crest.xyz --gfn 2 --spinpol --tblite --uhf 2 --ohess vtight --parallel 40 --molden --ceasefiles --namespace data2507/gas/TBRb/TBRb_gas_T1_finalOpt
 * total energy  :  -154.8225698 Eh     change       -0.1058129E-07 Eh
 * total energy  :  -154.8225863 Eh     change       -0.1643620E-04 Eh
 * total energy  :  -154.8225931 Eh     change       -0.6800660E-05 Eh
 * total energy  :  -154.8225969 Eh     change       -0.3795149E-05 Eh
 * total energy  :  -154.8226045 Eh     change       -0.7629425E-05 Eh
 * total energy  :  -154.8226155 Eh     change       -0.1099027E-04 Eh
 * total energy  :  -154.8226233 Eh     change       -0.7763017E-05 Eh
 * total energy  :  -154.8226276 Eh     change       -0.4360756E-05 Eh
 * total energy  :  -154.8226325 Eh     change       -0.4888642E-05 Eh
 * total energy  :  -154.8226382 Eh     change       -0.5708025E-05 Eh
 * total energy  :  -154.8226729 Eh     change       -0.2937529E-06 Eh
 * total energy  :  -154.8226733 Eh     change       -0.4674228E-06 Eh
 * total energy  :  -154.8226737 Eh     change       -0.3308709E-06 Eh
 * total energy  :  -154.8226739 Eh     change       -0.2651258E-06 Eh
 * total energy  :  -154.8226742 Eh     change       -0.2524180E-06 Eh
 * total energy  :  -154.8226743 Eh     change       -0.1188103E-06 Eh
 * total energy  :  -154.8226745 Eh     change       -0.1427036E-06 Eh
 * total energy  :  -154.8226746 Eh     change       -0.1647765E-06 Eh
 * total energy  :  -154.8226747 Eh     change       -0.7721081E-07 Eh
   *** GEOMETRY OPTIMIZATION CONVERGED AFTER 30 ITERATIONS ***

 final structure:
================
118
 xtb: 6.7.1 (edcfbbe)
C           -7.17803055551844        0.78040753669694       -2.99732181615681
C           -6.87968751745465        1.58710654842640       -1.73081579045023
C           -7.76196735688055        1.04099529255258       -0.59963899804187
C           -7.23218450063358        3.05619409527514       -2.00375925569806
C           -5.42300398851343        1.49508540288896       -1.30730820638143
C           -4.47248447409374        0.76354673024722       -2.00872301705580
C           -3.16160715974312        0.69123029899706       -1.57873476120093
C           -2.74350562156773        1.35506262527290       -0.42991507751015
C           -1.33712954633442        1.28262903528016       -0.01764335256186
C           -0.57304082493441        2.48489896813345        0.05333603842662
C           -1.12284669963335        3.74876602474344       -0.18652400507940
C           -0.40054733942074        4.90756747042732        0.02707032590752
C            0.90420235676810        4.86073317050045        0.51149926877980
C            1.72090486593374        6.10119849120705        0.83187920319585
C            0.94888311059369        7.39773918709450        0.57352709203947
C            2.98384868257562        6.11209294592531       -0.04159062349075
C            2.11802875683584        6.06576923501821        2.31462932686014
C            1.48030159791189        3.60808672050251        0.68777614840002
C            0.80123012886644        2.41868986879548        0.41177020584227
C            1.45344819281696        1.14647553020085        0.44383678757511
C            2.87095070803247        1.09418902026072        0.82951915491305
C            3.85257587301704        1.77835820361714        0.11365166142776
C            5.16944839154035        1.75742507696630        0.52964494228788
C            5.52972785724017        1.06480156830235        1.67349169711920
C            4.56243478882215        0.38589355350297        2.39485324833090
C            3.24585666132589        0.39899507672421        1.97733276102420
C            0.72353179259348       -0.03280787072314        0.20807668148709
C            1.33872253239779       -1.27899835059688       -0.02919047251813
C            2.74461750389251       -1.34875616385089       -0.44365645870153
C            3.68964130426872       -2.10539651907011        0.24597352678840
C            4.99814390203089       -2.16078868573878       -0.18445689015655
C            5.42297890010501       -1.48356529204054       -1.32527715869417
C            6.87911683387779       -1.57309073356567       -1.75120452710472
C            7.17609916436510       -0.75787589338563       -3.01256855403195
C            7.76301972903155       -1.03494293445793       -0.61748851410128
C            7.23081026885348       -3.04040082671327       -2.03456315999218
C            4.47173579988521       -0.74723796370833       -2.02068378359298
C            3.16141280472259       -0.67744244907180       -1.58858633061384
C            0.57459886364311       -2.48170274745700        0.03351541954666
C            1.12399846690325       -3.74367879240499       -0.21701956648551
C            0.40186907863042       -4.90407485678536       -0.01170879483691
C           -0.90218914151980       -4.86093768180966        0.47491459310874
C           -1.71886337805457       -6.10376381154072        0.78600206413369
C           -2.11649540004800       -6.07942970081500        2.26883346322586
C           -0.94668694048755       -7.39830875391939        0.51830120209452
C           -2.98147610849210       -6.10805170272893       -0.08801317792357
C           -1.47787917495229       -3.60969464051671        0.66202653598216
C           -0.79914438351737       -2.41820470156240        0.39441877225999
C           -1.45119840315472       -1.14623961124599        0.43739715058163
C           -2.86793992295298       -1.09677718906860        0.82607797953243
C           -3.85090994331827       -1.77606869635295        0.10739413423935
C           -5.16689932061031       -1.75860178872926        0.52632080602422
C           -5.52501688067977       -1.07427254860990        1.67583018291724
C           -4.55642870877697       -0.40006879620864        2.39986397349253
C           -3.24071969351716       -0.40978292937742        1.97950831951138
C           -0.72153800177530        0.03471383656473        0.20939612966763
C           -3.68788488351224        2.10679276744208        0.26596250341926
C           -4.99691674080712        2.16475320927240       -0.16249012907231
H           -6.96106425583464       -0.27466731142643       -2.84731903284216
H           -6.59858601394465        1.14731516129324       -3.84141609606018
H           -8.23288305349999        0.87498990110205       -3.24807550475495
H           -7.63747752322803        1.61667356440267        0.31319286937123
H           -7.49703873508180        0.00779704276284       -0.38738382829505
H           -8.81047347555685        1.08030264819427       -0.88839459195954
H           -8.26978373803581        3.14111342805916       -2.32035040606135
H           -6.59680941475315        3.45484329648764       -2.79213701479634
H           -7.09620754470520        3.66711413738397       -1.11562932600511
H           -4.74102794721297        0.23292534204194       -2.90779016632278
H           -2.44283987502419        0.11473308103502       -2.14432895562141
H           -2.13846036954024        3.82433131094254       -0.54424717743182
H           -0.88119292587865        5.85062869387769       -0.17558249767721
H            0.67373466198882        7.48721845995820       -0.47493073278731
H            0.04959635272548        7.44538799048168        1.18336068994188
H            1.57463223281871        8.25032357014007        0.83025095723402
H            2.71206122166339        6.10059606178600       -1.09531213793726
H            3.61154726105384        5.24817635213281        0.15937600297408
H            3.56693882274210        7.00959290084420        0.15463945820277
H            1.22871446671009        6.04336037201497        2.94128269842166
H            2.71748596823888        5.18857633727176        2.54276880541541
H            2.69755269471563        6.95090091304638        2.56888835311561
H            2.49546306040879        3.53945428055697        1.04467150797061
H            3.57740277361873        2.30920200636538       -0.78661105780739
H            5.91886799810834        2.28862925253507       -0.04044633785633
H            6.55862420409247        1.05479673094820        2.00208954552985
H            4.83613277555323       -0.15330897954113        3.29026896544052
H            2.48991875752827       -0.12521194265208        2.54481810013829
H            3.39820452625551       -2.62682792978130        1.14664359844281
H            5.70103056931627       -2.74586305389921        0.38997932954680
H            6.95926326187097        0.29615507696551       -2.85525122095509
H            6.59581535239703       -1.11912346809801       -3.85852070687473
H            8.23070312425566       -0.85072346090846       -3.26501408058933
H            7.63845756507307       -1.61584049621935        0.29202573060626
H            8.81124136906160       -1.07397958346744       -0.90732069933350
H            7.49970910323808       -0.00264864603543       -0.39890033345725
H            7.09602482420907       -3.65723952037868       -1.15035074275660
H            8.26790632620465       -3.12345352452961       -2.35329575490550
H            6.59413722218273       -3.43357762564887       -2.82464083767760
H            4.73928253610649       -0.21082134995531       -2.91660340727416
H            2.44204845377466       -0.09708464736732       -2.14945042550618
H            2.13914458328673       -3.81644628613598       -0.57665447499272
H            0.88206567654461       -5.84555857592182       -0.22259724307736
H           -2.71670165231931       -5.20441390442788        2.50325540541216
H           -2.69544481770408       -6.96682294149220        2.51642500246536
H           -1.22738684755540       -6.06095804923342        2.89590623870816
H           -0.67200807397231       -7.48049311830300       -0.53087449978908
H           -0.04710667083106       -7.44995291842118        1.12737846832273
H           -1.57214277934150       -8.25278173121697        0.76939849656288
H           -2.70927703059830       -6.08882043050804       -1.14151987074736
H           -3.60903615593446       -5.24547842110043        0.11908876631279
H           -3.56481862945544       -7.00685925235781        0.10136095654902
H           -2.49249480028181       -3.54386089637475        1.02098166236981
H           -3.57754315270231       -2.30036890707140       -0.79724732597129
H           -5.91729687909732       -2.28618491110577       -0.04585231819476
H           -6.55320403373806       -1.06708671991188        2.00671078753798
H           -4.82840962047956        0.13281337660863        3.29957470192302
H           -2.48382216891869        0.11075308433315        2.54909843200229
H           -3.39553698111230        2.62210234374798        1.16985307225218
H           -5.69926079662203        2.74573965178802        0.41673493272826

 projected vibrational frequencies (cm⁻¹)
eigval :       -0.00    -0.00    -0.00     0.00     0.00     0.00
eigval :       11.01    17.51    18.33    23.34    28.95    30.91
eigval :       31.19    32.82    33.30    35.70    43.90    57.05
eigval :       59.15    68.27    70.79    80.12    81.00    93.60
eigval :       97.41   104.10   106.63   113.38   113.45   123.83
eigval :      129.89   154.02   156.45   161.44   164.69   175.30
eigval :      175.66   178.89   184.41   190.88   191.01   212.18
eigval :      217.48   217.89   221.88   224.57   224.80   228.52
eigval :      251.37   252.53   253.48   259.96   265.31   269.19
eigval :      286.98   304.15   307.66   314.52   314.84   315.86
eigval :      317.33   317.53   322.55   329.48   346.30   346.59
eigval :      350.83   356.38   364.58   372.71   373.18   376.17
eigval :      379.50   382.87   394.06   395.11   398.60   402.20
eigval :      408.00   410.45   423.13   431.61   442.30   443.67
eigval :      455.16   459.00   469.39   471.01   478.57   488.88
eigval :      511.55   523.27   526.95   533.05   553.76   555.11
eigval :      564.22   572.30   583.98   585.93   590.60   595.52
eigval :      600.64   608.40   611.76   618.50   628.01   634.32
eigval :      651.26   663.10   669.52   670.53   674.94   678.35
eigval :      697.85   698.18   710.18   719.52   726.44   732.37
eigval :      758.78   767.34   774.36   783.02   810.91   813.69
eigval :      818.25   820.71   846.13   866.58   867.88   873.79
eigval :      875.90   878.49   879.81   881.80   883.23   884.06
eigval :      901.85   903.08   903.97   906.99   907.49   917.52
eigval :      917.58   925.96   928.62   928.64   933.81   935.73
eigval :      936.32   937.29   937.52   944.51   959.98   960.04
eigval :      960.36   960.37   960.63   962.53   962.59   963.67
eigval :      963.82   964.00   964.03   964.17   965.08   993.53
eigval :     1000.52  1014.44  1019.71  1035.18  1035.22  1035.31
eigval :     1035.32  1035.61  1035.61  1036.12  1036.61  1055.48
eigval :     1084.83  1085.30  1121.38  1122.26  1141.40  1143.43
eigval :     1145.90  1146.08  1153.97  1154.83  1157.03  1159.09
eigval :     1182.77  1183.24  1183.27  1198.93  1199.34  1205.99
eigval :     1211.65  1219.41  1223.26  1226.21  1226.23  1228.16
eigval :     1228.16  1234.02  1234.74  1234.77  1235.16  1256.04
eigval :     1256.34  1261.63  1278.44  1281.70  1283.18  1283.97
eigval :     1284.35  1286.17  1292.29  1293.94  1297.14  1313.73
eigval :     1314.04  1316.70  1318.14  1318.42  1324.72  1335.16
eigval :     1340.96  1352.08  1359.21  1365.15  1377.12  1379.23
eigval :     1396.09  1396.64  1399.00  1404.21  1404.86  1404.88
eigval :     1405.42  1405.50  1407.89  1408.15  1408.26  1426.59
eigval :     1427.31  1427.40  1428.25  1428.28  1430.37  1435.50
eigval :     1452.42  1471.86  1475.48  1483.95  1490.16  1490.43
eigval :     1491.11  1491.77  1491.78  1492.54  1494.68  1494.69
eigval :     1494.88  1494.91  1500.42  1501.24  1502.56  1502.63
eigval :     1505.06  1505.32  1506.07  1506.09  1513.89  1513.90
eigval :     1514.17  1514.19  1518.74  1519.30  1520.06  1520.08
eigval :     1523.41  1531.21  1550.35  1555.35  1559.09  1559.27
eigval :     1574.50  1574.71  1594.73  1595.09  1600.86  1601.05
eigval :     3020.14  3020.14  3020.87  3020.88  3021.62  3021.64
eigval :     3021.80  3021.83  3025.97  3025.99  3026.87  3026.88
eigval :     3028.59  3028.60  3028.68  3029.03  3029.94  3030.18
eigval :     3033.44  3033.46  3034.89  3034.91  3037.13  3037.16
eigval :     3037.90  3038.11  3039.96  3040.03  3044.67  3044.68
eigval :     3047.14  3047.16  3048.23  3048.24  3050.07  3050.11
eigval :     3063.52  3063.58  3067.88  3067.97  3068.89  3069.10
eigval :     3070.49  3070.51  3077.04  3077.22  3079.72  3079.93
eigval :     3083.95  3084.09  3088.69  3088.87  3089.47  3089.49
eigval :     3102.19  3102.60  3108.71  3108.89  3112.25  3112.43

   temp. (K)  partition function   enthalpy   heat capacity  entropy
                                   cal/mol     cal/K/mol   cal/K/mol   J/K/mol
 298.15  VIB  0.144E+26            33502.814    206.428    207.039
         ROT  0.626E+08              888.752      2.981     38.657
         INT  0.903E+33            34391.566    209.409    245.695
         TR   0.202E+29             1481.254      4.968     45.731
         TOT                       35872.8201   214.3767   291.4267  1219.3291

       T/K    H(0)-H(T)+PV         H(T)/Eh          T*S/Eh         G(T)/Eh
   ------------------------------------------------------------------------
    298.15    0.571670E-01    0.104615E+01    0.138466E+00    0.907685E+00
   ------------------------------------------------------------------------

         :::::::::::::::::::::::::::::::::::::::::::::::::::::
         ::                  THERMODYNAMIC                  ::
         :::::::::::::::::::::::::::::::::::::::::::::::::::::
         :: total free energy        -153.914989435697 Eh   ::
         ::.................................................::
         :: total energy             -154.822674765343 Eh   ::
         :: zero point energy           0.988984560586 Eh   ::
         :: G(RRHO) w/o ZPVE           -0.081299230940 Eh   ::
         :: G(RRHO) contrib.            0.907685329646 Eh   ::
         :::::::::::::::::::::::::::::::::::::::::::::::::::::

           -------------------------------------------------
          | TOTAL ENERGY             -154.822674765343 Eh   |
          | TOTAL ENTHALPY           -153.776523227018 Eh   |
          | TOTAL FREE ENERGY        -153.914989435697 Eh   |
          | GRADIENT NORM               0.000073199989 Eh/α |
           -------------------------------------------------

 * finished run on 2025/07/16 at 10:50:33.806
