   * xtb version 6.7.1 (edcfbbe) compiled by 'albert@albert-system' on 2024-07-22

   ID    Z sym.   atoms
    1    6 C      1-58
    2    1 H      59-118

          program call               : xtb data2507/gas/TBRb/TBRb_gas_S0_finalOpt.xtbopt.xyz --gfn 2 --spinpol --tblite --uhf 2 --ohess vtight --parallel 40 --molden --ceasefiles --namespace data2507/gas/TBRb/TBRb_gas_T1_preOpt
 * total energy  :  -154.8156880 Eh     change       -0.5679482E-08 Eh
 * total energy  :  -154.8199776 Eh     change       -0.4289631E-02 Eh
 * total energy  :  -154.8213025 Eh     change       -0.1324845E-02 Eh
 * total energy  :  -154.8213912 Eh     change       -0.8878852E-04 Eh
 * total energy  :  -154.8214555 Eh     change       -0.6428978E-04 Eh
 * total energy  :  -154.8214876 Eh     change       -0.3208423E-04 Eh
 * total energy  :  -154.8215325 Eh     change       -0.4484511E-04 Eh
 * total energy  :  -154.8215807 Eh     change       -0.4820873E-04 Eh
 * total energy  :  -154.8216350 Eh     change       -0.5431169E-04 Eh
 * total energy  :  -154.8216755 Eh     change       -0.4049876E-04 Eh
 * total energy  :  -154.8222024 Eh     change       -0.5907652E-06 Eh
 * total energy  :  -154.8222032 Eh     change       -0.7669807E-06 Eh
 * total energy  :  -154.8222038 Eh     change       -0.6343545E-06 Eh
 * total energy  :  -154.8222044 Eh     change       -0.5613645E-06 Eh
 * total energy  :  -154.8222046 Eh     change       -0.2415874E-06 Eh
 * total energy  :  -154.8222052 Eh     change       -0.6266196E-06 Eh
 * total energy  :  -154.8222059 Eh     change       -0.6367243E-06 Eh
 * total energy  :  -154.8222065 Eh     change       -0.6369345E-06 Eh
 * total energy  :  -154.8222065 Eh     change       -0.1496574E-07 Eh
   *** GEOMETRY OPTIMIZATION CONVERGED AFTER 68 ITERATIONS ***

 final structure:
================
118
 xtb: 6.7.1 (edcfbbe)
C           -7.27085389625190        0.28134880442189       -2.90717917801499
C           -7.00721130297229        1.09993777866408       -1.64063208075622
C           -7.82869751627611        0.48714936591991       -0.49788983803581
C           -7.46667056886322        2.54215158374434       -1.89741116068222
C           -5.54036387060000        1.10792282952714       -1.24309114148253
C           -4.55365003439790        0.44689321084662       -1.96419963010860
C           -3.23348407147632        0.46412571990061       -1.55703057033147
C           -2.84302993936684        1.15114051276572       -0.41239514965957
C           -1.42896795458331        1.17801651792854       -0.02083482031539
C           -0.75366352604301        2.43383435915889        0.03584240538126
C           -1.39876816708745        3.65134441595276       -0.21302152339889
C           -0.75966417484937        4.85735188259399       -0.01621554405587
C            0.55137377851752        4.91399567554418        0.46057867321768
C            1.19658037970975        6.26279495955646        0.73039116348805
C            0.36034177725150        7.01603448092232        1.77470996746082
C            1.23951791916800        7.06613440832722       -0.57753451241868
C            2.62695497610415        6.13979010713328        1.26295056051915
C            1.21881587558714        3.71344954227138        0.64710799287176
C            0.62187432718776        2.47343103940965        0.38714459820847
C            1.36419763263500        1.25217065821937        0.43402273469915
C            2.77683478602939        1.30120363850192        0.83734723071536
C            3.72021537076727        2.04621274541007        0.13086128818582
C            5.02876538383653        2.11900369754956        0.56659831571901
C            5.41844122343200        1.46057062601160        1.72083347623238
C            4.48947823810738        0.72052359826865        2.43232358419118
C            3.18174086429965        0.64023437996083        1.99528757480904
C            0.72313780830578        0.02010541171923        0.20107429022471
C            1.42927888540904       -1.17695496922054       -0.03042414589959
C            2.84250368713166       -1.14786513049449       -0.42482256532509
C            3.82592216241857       -1.83459924459797        0.28414799775153
C            5.14217254328623       -1.80043780923944       -0.12384015532359
C            5.53804037291258       -1.10001773162789       -1.26110126521718
C            7.00402144804000       -1.08983319246089       -1.66179154283096
C            7.26491848616117       -0.26420729140068       -2.92433319895707
C            7.82802798970241       -0.48343723705838       -0.51745594616932
C            7.46289024747231       -2.53059552984472       -1.92761013517343
C            4.54978443890045       -0.43492124653577       -1.97633698753835
C            3.23050631554771       -0.45441253338541       -1.56640545708553
C            0.75407829250211       -2.43306862009733        0.02058198005099
C            1.39863652904150       -3.64915720719087       -0.23650389506566
C            0.75992640819852       -4.85625160756052       -0.04515803163404
C           -0.55009400939310       -4.91557766107618        0.43410008436895
C           -1.19474341304067       -6.26587163256943        0.69772082325452
C           -0.35623432856317       -7.02501090336022        1.73592876860792
C           -1.24059056082813       -7.06182597716353       -0.61461202315643
C           -2.62393560866223       -6.14585920254711        1.23412314645838
C           -1.21712274525635       -3.71610033631597        0.62879454025318
C           -0.62071697223190       -2.47464269641580        0.37454871826557
C           -1.36293581250837       -1.25367294805470        0.42983212289007
C           -2.77471104635272       -1.30498293659292        0.83585796266711
C           -3.71956178695821       -2.04612797098487        0.12727480060468
C           -5.02717653394823       -2.12140711943981        0.56538940996937
C           -5.41442121812563       -1.46941008946910        1.72408803385516
C           -4.48397430640004       -0.73326815386649        2.43768962889565
C           -3.17718228523953       -0.65045982851751        1.99830150705490
C           -0.72235252331346       -0.02032225348563        0.20245417059235
C           -3.82492133864969        1.83385291812075        0.30255237011116
C           -5.14204704562022        1.80196266906223       -0.10277902665281
H           -6.97873070914121       -0.75689952752643       -2.76773474198476
H           -6.73285888027731        0.69210970112790       -3.75847895222561
H           -8.33391012150697        0.30380159355013       -3.13944537257613
H           -7.72580130312027        1.06330582051157        0.41733006754236
H           -7.49052858855331       -0.52720851462481       -0.29936075991649
H           -8.88281000736643        0.45744100543955       -0.76671406057655
H           -8.51273749235690        2.55561202850381       -2.19676813193790
H           -6.87398332268188        2.98939342599429       -2.69293935431621
H           -7.35959495092171        3.15577841604369       -1.00719891958262
H           -4.80034628930918       -0.09761650734955       -2.86123514890413
H           -2.48622161597582       -0.05896186419637       -2.13740786376358
H           -2.41935938437244        3.64777554172226       -0.56438195634863
H           -1.30370175936901        5.76663743810056       -0.22292908778168
H           -0.65497765747918        7.18140596241119        1.42506227495070
H            0.31383726906345        6.44538618205449        2.70003593731764
H            0.80929912571881        7.98396439660437        1.98800552712586
H            0.24093033073638        7.24081649237874       -0.96840353825278
H            1.81082535602186        6.52711511169772       -1.33059686136933
H            1.71337724390869        8.03110686261078       -0.40958182585669
H            2.65104016729267        5.58438726353341        2.19778220641326
H            3.27434872414001        5.64641719266005        0.54161637586222
H            3.02961002200063        7.13322488846391        1.45113543718687
H            2.23622851238689        3.71447338862160        0.99794743319071
H            3.42370453733707        2.54945950929101       -0.77837780677343
H            5.74848456528980        2.69691326905476        0.00381405720598
H            6.44028961854022        1.52417560183891        2.06497900382314
H            4.78599543288830        0.20662976067239        3.33533969670961
H            2.45533356060057        0.06817833698838        2.55513221458641
H            3.55550856435352       -2.37259430400519        1.18165562685917
H            5.87416749119665       -2.33282013140028        0.46528837948149
H            6.97318410617288        0.77326460388564       -2.77844975268688
H            6.72500088550427       -0.67017884721093       -3.77671135689594
H            8.32745484630464       -0.28543020229424       -3.15908651138973
H            7.72710645961476       -1.06467868282997        0.39476259235556
H            8.88155379517523       -0.45226241486626       -0.78841123521873
H            7.49033787465937        0.52980955381879       -0.31254345451353
H            7.35772508506770       -3.14918125544194       -1.04060888284080
H            8.50830822135892       -2.54239729468297       -2.22929834027350
H            6.86847446501500       -2.97338047249991       -2.72433981194565
H            4.79455432338855        0.11464371005721       -2.87081318081208
H            2.48200118724005        0.07192804820633       -2.14222344276360
H            2.41848862079169       -3.64361092501343       -0.58997965324969
H            1.30350685618508       -5.76435893123937       -0.25816577860037
H           -0.30772241265777       -6.45961575228919        2.66436957117446
H           -0.80471489574515       -7.99414696936416        1.94471431683883
H            0.65832274644708       -7.18837598473328        1.38314364572802
H           -1.81358435771485       -6.51858402560984       -1.36334555023996
H           -0.24287516434732       -7.23427475122740       -1.00868620969403
H           -1.71406382639438       -8.02774307111745       -0.45104706053999
H           -3.27292897040583       -5.64849646808089        0.51697951189435
H           -2.64595243437292       -5.59566393218074        2.17207934698859
H           -3.02616768544635       -7.14033343215799        1.41767439582031
H           -2.23379524192775       -3.71909393124912        0.98176210229939
H           -3.42498628878378       -2.54425337157283       -0.78540749377775
H           -5.74807720702613       -2.69619847493803        0.00092625167677
H           -6.43553550203697       -1.53496081684998        2.07004327597032
H           -4.77860618799468       -0.22434030125233        3.34412835709540
H           -2.44961153734281       -0.08146934031632        2.55975688599899
H           -3.55256758534620        2.36680960016584        1.20247568306906
H           -5.87277178569209        2.33101072210089        0.49091237250138

 projected vibrational frequencies (cm⁻¹)
eigval :       -0.00    -0.00    -0.00     0.00     0.00     0.00
eigval :       10.83    17.32    17.96    23.52    28.50    28.99
eigval :       31.42    32.54    33.73    35.60    41.16    57.24
eigval :       59.12    69.25    70.72    77.65    82.05    92.35
eigval :       97.69   105.37   107.06   113.48   117.70   121.53
eigval :      129.37   156.13   159.71   163.16   164.74   175.27
eigval :      175.68   182.83   188.74   191.97   197.78   210.24
eigval :      212.66   219.74   221.81   222.69   223.75   224.43
eigval :      239.62   249.02   255.00   256.53   263.10   265.10
eigval :      282.97   291.54   311.73   314.56   314.78   317.56
eigval :      317.95   322.60   331.19   336.98   347.56   348.70
eigval :      349.00   353.95   366.65   371.52   373.44   375.95
eigval :      379.11   382.75   393.45   395.53   399.11   402.21
eigval :      406.66   409.27   420.99   430.54   439.44   444.09
eigval :      455.13   458.20   468.63   470.76   480.41   489.15
eigval :      512.24   522.73   526.58   532.57   553.43   555.01
eigval :      564.37   572.53   584.21   585.90   590.70   595.61
eigval :      600.71   608.50   612.88   618.46   628.37   634.00
eigval :      651.68   663.23   669.19   671.18   674.96   678.50
eigval :      697.88   698.24   709.92   719.87   726.41   732.35
eigval :      758.45   767.06   775.10   782.40   812.11   815.83
eigval :      821.30   822.71   844.42   859.92   860.48   874.03
eigval :      875.36   878.52   879.89   881.51   882.16   882.96
eigval :      902.30   904.79   905.54   909.15   909.69   917.75
eigval :      917.79   926.19   928.55   928.58   934.40   935.40
eigval :      936.14   936.72   937.17   944.82   959.44   959.67
eigval :      959.92   960.35   960.35   962.54   962.56   962.63
eigval :      962.66   963.23   964.04   964.07   965.58   993.82
eigval :     1000.38  1014.26  1019.72  1034.45  1034.46  1035.11
eigval :     1035.21  1035.63  1035.64  1035.75  1035.87  1057.02
eigval :     1084.79  1085.28  1121.21  1122.08  1139.70  1143.22
eigval :     1145.79  1145.98  1153.69  1154.53  1156.48  1158.07
eigval :     1177.91  1183.40  1183.43  1198.96  1199.40  1205.01
eigval :     1210.12  1219.25  1220.79  1225.94  1225.94  1228.11
eigval :     1228.11  1231.64  1231.94  1234.74  1234.75  1258.29
eigval :     1260.41  1262.63  1277.02  1281.17  1283.41  1284.01
eigval :     1284.21  1285.65  1290.88  1293.68  1299.48  1313.66
eigval :     1314.05  1317.93  1318.36  1318.59  1324.22  1336.54
eigval :     1337.49  1350.53  1356.48  1364.62  1378.72  1381.68
eigval :     1395.81  1396.25  1399.26  1404.72  1404.76  1404.94
eigval :     1404.99  1405.03  1407.86  1408.10  1408.40  1426.64
eigval :     1427.54  1427.71  1427.98  1428.09  1430.06  1434.00
eigval :     1454.80  1471.46  1475.19  1483.22  1490.28  1490.48
eigval :     1491.25  1491.73  1491.74  1492.04  1494.45  1494.45
eigval :     1494.83  1494.84  1500.67  1501.83  1502.71  1502.73
eigval :     1503.98  1505.15  1506.02  1506.37  1514.04  1514.04
eigval :     1514.36  1514.36  1517.05  1519.38  1520.21  1520.23
eigval :     1522.36  1530.67  1552.73  1557.33  1559.03  1559.84
eigval :     1574.22  1574.42  1594.48  1594.87  1600.82  1601.01
eigval :     3019.78  3019.79  3020.57  3020.58  3021.24  3021.25
eigval :     3022.19  3022.20  3026.35  3026.35  3026.88  3026.89
eigval :     3028.38  3028.45  3029.03  3029.39  3030.41  3030.49
eigval :     3033.22  3033.22  3034.93  3034.95  3036.76  3036.83
eigval :     3037.73  3037.84  3039.94  3039.95  3045.87  3045.88
eigval :     3046.80  3046.80  3049.24  3049.26  3049.94  3049.95
eigval :     3063.81  3063.84  3067.77  3067.84  3068.88  3069.11
eigval :     3070.45  3070.52  3076.90  3077.05  3079.68  3079.86
eigval :     3080.21  3080.27  3083.93  3084.04  3088.65  3089.03
eigval :     3094.50  3094.70  3108.57  3108.71  3132.54  3132.57

   temp. (K)  partition function   enthalpy   heat capacity  entropy
                                   cal/mol     cal/K/mol   cal/K/mol   J/K/mol
 298.15  VIB  0.166E+26            33514.318    206.388    207.087
         ROT  0.629E+08              888.752      2.981     38.667
         INT  0.105E+34            34403.071    209.369    245.755
         TR   0.202E+29             1481.254      4.968     45.731
         TOT                       35884.3245   214.3371   291.4858  1219.5768

       T/K    H(0)-H(T)+PV         H(T)/Eh          T*S/Eh         G(T)/Eh
   ------------------------------------------------------------------------
    298.15    0.571853E-01    0.104611E+01    0.138494E+00    0.907612E+00
   ------------------------------------------------------------------------

         :::::::::::::::::::::::::::::::::::::::::::::::::::::
         ::                  THERMODYNAMIC                  ::
         :::::::::::::::::::::::::::::::::::::::::::::::::::::
         :: total free energy        -153.914594451802 Eh   ::
         ::.................................................::
         :: total energy             -154.822206466071 Eh   ::
         :: zero point energy           0.988921033898 Eh   ::
         :: G(RRHO) w/o ZPVE           -0.081309019629 Eh   ::
         :: G(RRHO) contrib.            0.907612014269 Eh   ::
         :::::::::::::::::::::::::::::::::::::::::::::::::::::

           -------------------------------------------------
          | TOTAL ENERGY             -154.822206466071 Eh   |
          | TOTAL ENTHALPY           -153.776100121032 Eh   |
          | TOTAL FREE ENERGY        -153.914594451802 Eh   |
          | GRADIENT NORM               0.000045924828 Eh/α |
           -------------------------------------------------

 * finished run on 2025/07/16 at 10:37:03.731
