   * xtb version 6.7.1 (edcfbbe) compiled by 'albert@albert-system' on 2024-07-22

   ID    Z sym.   atoms
    1    6 C      1-58
    2    1 H      59-118

          program call               : xtb data2507/gas/TBRb/TBRb_gas_S0_crest.xyz --gfn 2 --ohess vtight --parallel 40 --molden --ceasefiles --namespace data2507/gas/TBRb/TBRb_gas_S0_finalOpt
          :  Hamiltonian                  GFN2-xTB          :
 * total energy  :  -154.8646653 Eh     change       -0.1244217E-08 Eh
 * total energy  :  -154.8646673 Eh     change       -0.1979608E-05 Eh
 * total energy  :  -154.8646692 Eh     change       -0.1953870E-05 Eh
 * total energy  :  -154.8646720 Eh     change       -0.2751922E-05 Eh
 * total energy  :  -154.8646729 Eh     change       -0.9319720E-06 Eh
 * total energy  :  -154.8646746 Eh     change       -0.1734473E-05 Eh
 * total energy  :  -154.8646769 Eh     change       -0.2226112E-05 Eh
 * total energy  :  -154.8646785 Eh     change       -0.1683034E-05 Eh
 * total energy  :  -154.8646803 Eh     change       -0.1754749E-05 Eh
 * total energy  :  -154.8646826 Eh     change       -0.2256978E-05 Eh
 * total energy  :  -154.8646994 Eh     change       -0.2777262E-06 Eh
 * total energy  :  -154.8646997 Eh     change       -0.2374066E-06 Eh
 * total energy  :  -154.8646999 Eh     change       -0.2409398E-06 Eh
 * total energy  :  -154.8647002 Eh     change       -0.2507505E-06 Eh
 * total energy  :  -154.8647004 Eh     change       -0.2282886E-06 Eh
 * total energy  :  -154.8647005 Eh     change       -0.1676642E-06 Eh
 * total energy  :  -154.8647007 Eh     change       -0.1486702E-06 Eh
 * total energy  :  -154.8647008 Eh     change       -0.1114967E-06 Eh
 * total energy  :  -154.8647009 Eh     change       -0.7038813E-07 Eh
   *** GEOMETRY OPTIMIZATION CONVERGED AFTER 36 ITERATIONS ***

 final structure:
================
118
 xtb: 6.7.1 (edcfbbe)
C           -7.35732012787850        0.62106746374206       -2.82198280638985
C           -7.06762890482675        1.26046971265553       -1.46142473117435
C           -7.87178033300159        0.50049364754517       -0.39787472116829
C           -7.52551852203374        2.72500953890140       -1.51283695973696
C           -5.59318260253603        1.21429325823549       -1.09412903273979
C           -4.62192864590534        0.66610774334345       -1.92180219238303
C           -3.29155997529321        0.63782995417315       -1.54599031864413
C           -2.88200330373088        1.15863591688277       -0.32567668698709
C           -1.44547089385313        1.17431397970128        0.01168428923610
C           -0.78998628597800        2.40584685431876        0.05236100560096
C           -1.46443508333300        3.63969341540950       -0.15859994181982
C           -0.83451337183991        4.82978495200336        0.00569349773471
C            0.52541295280860        4.90177637885410        0.41135695452971
C            1.15147811073376        6.26683794102909        0.63947394481685
C            0.36122302017257        7.00314847304286        1.73037638659081
C            1.09959871109588        7.06599417807021       -0.67043045080495
C            2.61315175267065        6.17659561003723        1.08673507631127
C            1.20776792494331        3.73237090899764        0.56324505895329
C            0.60992282714820        2.46113500254504        0.33716093906262
C            1.35558909928061        1.27941174140447        0.36421617997008
C            2.79138143912507        1.37167118702083        0.70111333713980
C            3.70057618287360        2.02691905529955       -0.12406635125251
C            5.01954800852705        2.17181596373825        0.26121954296301
C            5.44705216236509        1.67904782645227        1.48258935224651
C            4.54787909920778        1.03494123876083        2.31439366049928
C            3.22958256216487        0.88326088496633        1.92788921200544
C            0.72044686860344        0.02898991934341        0.18427376879754
C            1.44629436840096       -1.17122547482545        0.00255476259600
C            2.88218157652876       -1.15409083495459       -0.33739472141365
C            3.84681266220250       -1.73162158034331        0.48115712763875
C            5.17272586353954       -1.74754076711054        0.10177570305577
C            5.59150757007521       -1.20872442664994       -1.11250377333952
C            7.06488815652847       -1.25553792495704       -1.48392889332664
C            7.35213707498257       -0.60982465323486       -2.84203073490528
C            7.87314451175916       -0.50239938451103       -0.41863147156345
C            7.52006097246070       -2.72060463151668       -1.54405744079023
C            4.61914759681597       -0.65370187034367       -1.93431791667223
C            3.28970999508182       -0.62595838963003       -1.55525657826123
C            0.79077134869199       -2.40296360987399        0.03739304333097
C            1.46452541960396       -3.63569181993749       -0.18220562757710
C            0.83468444731468       -4.82663385107980       -0.02379424723924
C           -0.52440976042475       -4.90081672869517        0.38422894492027
C           -1.15048261701815       -6.26704235407045        0.60523876079949
C           -0.35816070016425       -7.01050185676730        1.68975466917442
C           -1.10183437175152       -7.05795249249670       -0.70978127992475
C           -2.61114534390334       -6.17906287363695        1.05626751838394
C           -1.20618397943783       -3.73219763080488        0.54443890440668
C           -0.60858751368254       -2.45977108729157        0.32452730463272
C           -1.35411923218293       -1.27817837905210        0.35960989190035
C           -2.78923809282370       -1.37261442806634        0.69874159613696
C           -3.69973198496243       -2.02348894157262       -0.12851763358663
C           -5.01766023178677       -2.17202631475273        0.25881375326094
C           -5.44287484496119       -1.68718353192585        1.48418528002628
C           -4.54251010560343       -1.04716678790358        2.31780208696875
C           -3.22516118046717       -0.89196993246094        1.92934607578000
C           -0.71925064493095       -0.02683878674069        0.18543591234597
C           -3.84544945452443        1.73010872472479        0.49851039592961
C           -5.17225481307418        1.74652347278765        0.12232432909466
H           -7.06237137883570       -0.42567940712115       -2.83130899844605
H           -6.83732048326318        1.14539458922534       -3.62044512099810
H           -8.42498189934688        0.67183935901721       -3.02703392060405
H           -7.74384058058156        0.94188060273912        0.58647661785672
H           -7.54093573663018       -0.53433470459993       -0.35103247144524
H           -8.93145254269341        0.51702282781727       -0.64516103066022
H           -8.57596265239512        2.78081041680430       -1.79122673187037
H           -6.94337102500278        3.27521263527133       -2.24943689121896
H           -7.40246036409915        3.21178894976908       -0.54930781911027
H           -4.88708449881164        0.24984016978874       -2.88011635432482
H           -2.55510341083494        0.20729175690289       -2.21014196173663
H           -2.50288274493849        3.61718157659700       -0.45316286758055
H           -1.38735821498725        5.74120554928161       -0.16542599991229
H           -0.67595637254311        7.14838557436657        1.44097752329603
H            0.38020269984720        6.43215178856168        2.65648517321881
H            0.80208342502336        7.98011088309855        1.91786510275341
H            0.07681213054591        7.21644900675868       -1.00486259662937
H            1.64006824478314        6.53787274862197       -1.45340035682607
H            1.55909105923467        8.04251851975711       -0.53183119692037
H            2.70338352717569        5.62797933013554        2.02148303017383
H            3.22539366540787        5.68941689117774        0.33133616079344
H            3.00672139834247        7.17890054974190        1.24436032809701
H            2.24279708097450        3.73776925440398        0.85910226709659
H            3.36690266396689        2.41458539966397       -1.07609638212933
H            5.71556049204673        2.67988714234998       -0.39138005396436
H            6.47607968724258        1.80062292368565        1.78778566371069
H            4.87458766972607        0.65351822171467        3.27105492949887
H            2.52447404091922        0.38736987348935        2.57997002875482
H            3.55250678786451       -2.15719206799722        1.43014463594766
H            5.89178534446495       -2.19523973318310        0.77163366893596
H            7.06001667671289        0.43775123656473       -2.84504833071281
H            6.82824423661377       -1.12860972368782       -3.64156493976229
H            8.41901919737955       -0.66243977587930       -3.05064280562941
H            7.74630302753291       -0.94811882525894        0.56391334342961
H            8.93222661808622       -0.52022072108949       -0.66833402629675
H            7.54480570730253        0.53297128253151       -0.36619260155726
H            7.39796634400575       -3.21240342521349       -0.58296416489429
H            8.56987116890740       -2.77678415067724       -1.82475082853096
H            6.93553543187841       -3.26576164098451       -2.28252417417917
H            4.88272120720186       -0.23165896617220       -2.89053628749272
H            2.55230235005626       -0.19020957376175       -2.21493561832590
H            2.50236810181999       -3.61170898420049       -0.47876615893440
H            1.38700280188404       -5.73710299491517       -0.20157816519557
H           -0.37597327164713       -6.44594833421276        2.61983175363309
H           -0.79827305173365       -7.98895109792972        1.87115551282066
H            0.67863733376082       -7.15322612251515        1.39775428686959
H           -1.64442768102581       -6.52501691125206       -1.48800908527240
H           -0.07988691342745       -7.20607152140781       -1.04780022877784
H           -1.56079495847371       -8.03542040049194       -0.57614740298275
H           -3.22497372046309       -5.68745807333085        0.30503483466655
H           -2.69921098128691       -5.63580187353896        1.99434099361720
H           -3.00455535306428       -7.18218952346894        1.20902752219265
H           -2.24060614508084       -3.73918893443764        0.84234375795434
H           -3.36769682089784       -2.40505165479447       -1.08357997614908
H           -5.71464832112020       -2.67687771616241       -0.39524727860316
H           -6.47107115660916       -1.81176702238699        1.79096776132019
H           -4.86742804454716       -0.67174202941459        3.27743833944248
H           -2.51909656292706       -0.39947612881676        2.58296216737814
H           -3.54944978443874        2.15023848936968        1.44939490570161
H           -5.89037739521198        2.18916905290455        0.79652978012354

          :  Hamiltonian                  GFN2-xTB          :
         :: gradient norm              0.000060985338 Eh/a0 ::
         :: HOMO-LUMO gap              1.449901530121 eV    ::
         :: SCC energy              -157.684859807980 Eh    ::
         :: -> dispersion             -0.173684157258 Eh    ::
         :: repulsion energy           2.820158905583 Eh    ::

    * Orbital Energies and Occupations

         #    Occupation            Energy/Eh            Energy/eV
      -------------------------------------------------------------
         1        2.0000           -0.6460251             -17.5792
       ...           ...                  ...                  ...
       134        2.0000           -0.4030009             -10.9662
       135        2.0000           -0.4022448             -10.9456
       136        2.0000           -0.3967362             -10.7957
       137        2.0000           -0.3956018             -10.7649
       138        2.0000           -0.3955461             -10.7634
       139        2.0000           -0.3894336             -10.5970
       140        2.0000           -0.3871549             -10.5350
       141        2.0000           -0.3840486             -10.4505
       142        2.0000           -0.3821521             -10.3989
       143        2.0000           -0.3785157             -10.2999
       144        2.0000           -0.3700282             -10.0690
       145        2.0000           -0.3691271             -10.0445
       146        2.0000           -0.3343565              -9.0983 (HOMO)
       147                         -0.2810736              -7.6484 (LUMO)
       148                         -0.2338774              -6.3641
       149                         -0.2243897              -6.1060
       150                         -0.2231931              -6.0734
       151                         -0.2229988              -6.0681
       152                         -0.2203238              -5.9953
       153                         -0.2198088              -5.9813
       154                         -0.2066077              -5.6221
       155                         -0.2063786              -5.6158
       156                         -0.2050549              -5.5798
       157                         -0.2049368              -5.5766
       ...                                ...                  ...
       292                          0.7266712              19.7737
      -------------------------------------------------------------
                  HL-Gap            0.0532829 Eh            1.4499 eV

     #   Z          covCN         q      C6AA      α(0)
     1   6 C        3.761    -0.106    22.571     6.773
     2   6 C        3.903     0.025    20.091     6.371
     3   6 C        3.762    -0.104    22.536     6.767
     4   6 C        3.762    -0.104    22.539     6.768
     5   6 C        2.974     0.006    27.894     8.663
     6   6 C        2.925    -0.040    29.001     8.831
     7   6 C        2.926    -0.034    28.848     8.808
     8   6 C        2.978     0.012    27.746     8.640
     9   6 C        2.975    -0.006    28.162     8.705
    10   6 C        2.986     0.002    27.967     8.675
    11   6 C        2.914    -0.039    28.966     8.825
    12   6 C        2.921    -0.036    28.885     8.813
    13   6 C        2.969     0.006    27.879     8.661
    14   6 C        3.903     0.025    20.092     6.372
    15   6 C        3.762    -0.104    22.532     6.767
    16   6 C        3.762    -0.104    22.526     6.766
    17   6 C        3.761    -0.106    22.581     6.774
    18   6 C        2.924    -0.049    29.229     8.866
    19   6 C        2.984     0.003    27.949     8.672
    20   6 C        2.976    -0.008    28.210     8.712
    21   6 C        2.978     0.018    27.605     8.618
    22   6 C        2.924    -0.030    28.753     8.794
    23   6 C        2.919    -0.030    28.739     8.791
    24   6 C        2.920    -0.032    28.797     8.800
    25   6 C        2.919    -0.030    28.742     8.791
    26   6 C        2.927    -0.031    28.766     8.796
    27   6 C        2.980    -0.001    28.054     8.688
    28   6 C        2.975    -0.006    28.162     8.705
    29   6 C        2.978     0.012    27.746     8.640
    30   6 C        2.923    -0.034    28.839     8.807
    31   6 C        2.927    -0.036    28.905     8.817
    32   6 C        2.974     0.006    27.894     8.663
    33   6 C        3.903     0.025    20.091     6.371
    34   6 C        3.761    -0.106    22.571     6.773
    35   6 C        3.762    -0.104    22.535     6.767
    36   6 C        3.762    -0.104    22.539     6.768
    37   6 C        2.925    -0.040    29.001     8.831
    38   6 C        2.926    -0.034    28.848     8.808
    39   6 C        2.986     0.002    27.967     8.675
    40   6 C        2.914    -0.039    28.966     8.825
    41   6 C        2.921    -0.036    28.885     8.813
    42   6 C        2.969     0.006    27.879     8.661
    43   6 C        3.903     0.025    20.092     6.372
    44   6 C        3.762    -0.104    22.532     6.767
    45   6 C        3.762    -0.104    22.526     6.766
    46   6 C        3.761    -0.106    22.581     6.774
    47   6 C        2.924    -0.050    29.229     8.866
    48   6 C        2.984     0.003    27.949     8.672
    49   6 C        2.976    -0.008    28.210     8.712
    50   6 C        2.978     0.018    27.605     8.618
    51   6 C        2.924    -0.030    28.753     8.794
    52   6 C        2.919    -0.030    28.739     8.791
    53   6 C        2.920    -0.032    28.797     8.800
    54   6 C        2.919    -0.030    28.742     8.792
    55   6 C        2.927    -0.031    28.766     8.796
    56   6 C        2.980    -0.001    28.054     8.688
    57   6 C        2.923    -0.034    28.839     8.807
    58   6 C        2.927    -0.036    28.905     8.817
    59   1 H        0.925     0.035     2.517     2.481
    60   1 H        0.925     0.035     2.517     2.481
    61   1 H        0.925     0.035     2.518     2.481
    62   1 H        0.925     0.035     2.515     2.480
    63   1 H        0.925     0.035     2.517     2.481
    64   1 H        0.925     0.035     2.511     2.478
    65   1 H        0.925     0.036     2.504     2.474
    66   1 H        0.925     0.033     2.549     2.497
    67   1 H        0.925     0.036     2.505     2.475
    68   1 H        0.926     0.034     2.532     2.488
    69   1 H        0.926     0.024     2.668     2.554
    70   1 H        0.926     0.030     2.592     2.517
    71   1 H        0.926     0.026     2.645     2.543
    72   1 H        0.925     0.036     2.499     2.472
    73   1 H        0.925     0.033     2.545     2.495
    74   1 H        0.925     0.036     2.509     2.477
    75   1 H        0.925     0.036     2.501     2.473
    76   1 H        0.925     0.033     2.547     2.496
    77   1 H        0.925     0.036     2.507     2.476
    78   1 H        0.925     0.035     2.519     2.482
    79   1 H        0.925     0.035     2.516     2.481
    80   1 H        0.925     0.035     2.511     2.478
    81   1 H        0.926     0.038     2.482     2.464
    82   1 H        0.926     0.029     2.607     2.525
    83   1 H        0.926     0.024     2.676     2.558
    84   1 H        0.926     0.027     2.632     2.537
    85   1 H        0.926     0.027     2.625     2.534
    86   1 H        0.926     0.027     2.636     2.539
    87   1 H        0.926     0.026     2.638     2.540
    88   1 H        0.926     0.026     2.638     2.540
    89   1 H        0.925     0.035     2.517     2.481
    90   1 H        0.925     0.035     2.517     2.481
    91   1 H        0.925     0.035     2.518     2.481
    92   1 H        0.925     0.035     2.515     2.480
    93   1 H        0.925     0.035     2.511     2.478
    94   1 H        0.925     0.035     2.517     2.481
    95   1 H        0.925     0.036     2.505     2.475
    96   1 H        0.925     0.036     2.504     2.474
    97   1 H        0.925     0.033     2.549     2.497
    98   1 H        0.926     0.034     2.532     2.488
    99   1 H        0.926     0.024     2.668     2.554
   100   1 H        0.926     0.030     2.592     2.517
   101   1 H        0.926     0.026     2.645     2.543
   102   1 H        0.925     0.033     2.545     2.495
   103   1 H        0.925     0.036     2.509     2.477
   104   1 H        0.925     0.036     2.499     2.472
   105   1 H        0.925     0.033     2.547     2.496
   106   1 H        0.925     0.036     2.501     2.473
   107   1 H        0.925     0.036     2.507     2.476
   108   1 H        0.925     0.035     2.516     2.481
   109   1 H        0.925     0.035     2.519     2.482
   110   1 H        0.925     0.035     2.511     2.478
   111   1 H        0.926     0.038     2.482     2.464
   112   1 H        0.926     0.029     2.607     2.525
   113   1 H        0.926     0.024     2.676     2.558
   114   1 H        0.926     0.027     2.632     2.537
   115   1 H        0.926     0.027     2.625     2.534
   116   1 H        0.926     0.027     2.636     2.539
   117   1 H        0.926     0.026     2.638     2.540
   118   1 H        0.926     0.026     2.638     2.540

molecular dipole:
                 x           y           z       tot (Debye)
 q only:       -0.000      -0.000      -0.085
   full:       -0.000      -0.000      -0.060       0.154

 projected vibrational frequencies (cm⁻¹)
eigval :       -0.00    -0.00    -0.00     0.00     0.00     0.00
eigval :       10.89    15.79    16.12    23.79    28.56    30.98
eigval :       31.76    33.14    33.39    35.46    42.36    51.28
eigval :       53.50    69.90    72.54    76.15    83.50    88.26
eigval :       99.51   106.32   107.50   111.10   113.07   121.55
eigval :      126.55   156.65   160.65   162.30   163.00   176.05
eigval :      176.59   185.11   190.10   190.59   197.02   205.13
eigval :      209.35   218.78   220.91   221.04   222.43   223.54
eigval :      238.63   248.01   253.66   254.25   263.41   264.39
eigval :      287.80   289.23   313.13   314.60   314.74   316.05
eigval :      316.27   322.52   332.71   338.03   347.31   349.10
eigval :      351.93   355.30   366.86   370.45   372.87   373.96
eigval :      380.96   382.50   394.18   399.24   401.86   405.83
eigval :      408.00   412.61   433.06   439.51   444.46   445.37
eigval :      455.47   458.93   470.34   473.38   482.53   488.88
eigval :      517.38   521.83   531.30   533.84   554.99   557.66
eigval :      569.00   574.84   586.38   587.44   591.59   599.32
eigval :      602.57   611.84   613.13   629.79   634.34   640.92
eigval :      665.39   665.81   673.10   674.85   679.61   684.70
eigval :      699.14   700.80   720.59   721.84   733.88   740.66
eigval :      760.84   768.59   776.47   784.13   813.61   818.03
eigval :      822.45   822.71   845.97   870.72   872.56   874.12
eigval :      876.40   879.21   879.61   881.14   882.27   883.18
eigval :      902.00   904.48   904.78   916.15   916.19   921.64
eigval :      923.71   923.78   929.45   929.63   933.20   933.50
eigval :      934.23   934.27   935.62   943.99   959.59   960.35
eigval :      960.43   960.58   960.58   962.73   962.80   962.98
eigval :      963.03   963.63   964.37   964.40   966.28   992.74
eigval :     1000.28  1014.62  1018.13  1034.76  1034.77  1034.96
eigval :     1035.11  1035.39  1035.85  1035.98  1036.00  1049.54
eigval :     1084.63  1085.16  1120.36  1121.08  1133.99  1135.16
eigval :     1145.44  1145.74  1152.52  1153.54  1155.69  1158.78
eigval :     1179.92  1183.93  1183.98  1198.17  1198.96  1209.93
eigval :     1212.92  1219.09  1226.17  1227.00  1227.32  1227.33
eigval :     1228.66  1228.68  1232.63  1235.01  1235.03  1240.50
eigval :     1251.01  1262.60  1266.14  1280.35  1282.65  1283.01
eigval :     1283.56  1283.65  1285.22  1292.13  1295.85  1311.61
eigval :     1312.05  1318.13  1318.48  1324.33  1328.40  1344.60
eigval :     1357.48  1379.12  1380.69  1395.78  1396.08  1405.59
eigval :     1405.60  1405.67  1405.71  1405.84  1406.33  1408.45
eigval :     1408.58  1422.97  1428.83  1428.87  1429.24  1429.46
eigval :     1431.12  1431.76  1438.48  1450.86  1453.97  1476.59
eigval :     1484.99  1489.67  1490.95  1490.96  1492.54  1492.54
eigval :     1494.84  1494.85  1494.86  1495.22  1495.35  1495.68
eigval :     1500.06  1501.19  1501.48  1503.37  1503.55  1506.22
eigval :     1506.39  1508.85  1510.00  1514.00  1514.00  1514.40
eigval :     1514.41  1518.52  1520.63  1520.67  1520.78  1524.30
eigval :     1525.79  1525.84  1566.74  1567.00  1581.46  1581.60
eigval :     1600.56  1600.74  1607.24  1607.32  1621.36  1621.89
eigval :     3020.08  3020.10  3021.05  3021.08  3021.49  3021.50
eigval :     3022.50  3022.52  3026.57  3026.58  3027.03  3027.05
eigval :     3028.64  3028.77  3029.45  3029.73  3031.02  3031.10
eigval :     3033.48  3033.50  3035.24  3035.29  3037.29  3037.35
eigval :     3038.54  3038.61  3040.64  3040.77  3045.82  3045.83
eigval :     3047.23  3047.25  3049.07  3049.11  3050.40  3050.42
eigval :     3064.82  3064.86  3068.03  3068.10  3069.45  3069.69
eigval :     3070.67  3070.80  3077.13  3077.28  3078.61  3078.69
eigval :     3080.38  3080.57  3084.46  3084.60  3088.56  3088.92
eigval :     3093.13  3093.35  3109.17  3109.33  3130.16  3130.29

   temp. (K)  partition function   enthalpy   heat capacity  entropy
                                   cal/mol     cal/K/mol   cal/K/mol   J/K/mol
 298.15  VIB  0.217E+26            33467.644    205.657    207.137
         ROT  0.632E+08              888.752      2.981     38.676
         INT  0.137E+34            34356.396    208.637    245.813
         TR   0.202E+29             1481.254      4.968     45.731
         TOT                       35837.6502   213.6056   291.5443  1219.8214

       T/K    H(0)-H(T)+PV         H(T)/Eh          T*S/Eh         G(T)/Eh
   ------------------------------------------------------------------------
    298.15    0.571109E-01    0.104798E+01    0.138522E+00    0.909459E+00
   ------------------------------------------------------------------------

         :::::::::::::::::::::::::::::::::::::::::::::::::::::
         ::                  THERMODYNAMIC                  ::
         :::::::::::::::::::::::::::::::::::::::::::::::::::::
         :: total free energy        -153.955242011531 Eh   ::
         ::.................................................::
         :: total energy             -154.864700902391 Eh   ::
         :: zero point energy           0.990870065730 Eh   ::
         :: G(RRHO) w/o ZPVE           -0.081411174870 Eh   ::
         :: G(RRHO) contrib.            0.909458890860 Eh   ::
         :::::::::::::::::::::::::::::::::::::::::::::::::::::

           -------------------------------------------------
          | TOTAL ENERGY             -154.864700902391 Eh   |
          | TOTAL ENTHALPY           -153.816719905785 Eh   |
          | TOTAL FREE ENERGY        -153.955242011531 Eh   |
          | GRADIENT NORM               0.000060983476 Eh/α |
          | HOMO-LUMO GAP               1.449901608591 eV   |
           -------------------------------------------------

 * finished run on 2025/07/16 at 10:36:42.576
