   * xtb version 6.7.1 (edcfbbe) compiled by 'albert@albert-system' on 2024-07-22

   ID    Z sym.   atoms
    1    7 N      1, 6, 17, 20, 31, 36
    2    6 C      2-5, 7-16, 18, 19, 21-30, 32-35
    3    1 H      37-52

          program call               : xtb data2507/gas/α-2CbPN/α-2CbPN_gas_S0_finalOpt.xtbopt.xyz --gfn 2 --spinpol --tblite --uhf 2 --ohess vtight --parallel 40 --molden --ceasefiles --namespace data2507/gas/α-2CbPN/α-2CbPN_gas_T1_preOpt
 * total energy  :   -89.8472222 Eh     change       -0.2880505E-07 Eh
 * total energy  :   -89.8513261 Eh     change       -0.4103808E-02 Eh
 * total energy  :   -89.8528737 Eh     change       -0.1547622E-02 Eh
 * total energy  :   -89.8532675 Eh     change       -0.3938237E-03 Eh
 * total energy  :   -89.8534428 Eh     change       -0.1753194E-03 Eh
 * total energy  :   -89.8534927 Eh     change       -0.4990079E-04 Eh
 * total energy  :   -89.8535041 Eh     change       -0.1140321E-04 Eh
 * total energy  :   -89.8535422 Eh     change       -0.3806051E-04 Eh
 * total energy  :   -89.8535702 Eh     change       -0.2802610E-04 Eh
 * total energy  :   -89.8535857 Eh     change       -0.1551989E-04 Eh
 * total energy  :   -89.8538314 Eh     change       -0.1644739E-05 Eh
 * total energy  :   -89.8538327 Eh     change       -0.1278560E-05 Eh
 * total energy  :   -89.8538334 Eh     change       -0.7906561E-06 Eh
 * total energy  :   -89.8538340 Eh     change       -0.5142963E-06 Eh
 * total energy  :   -89.8538343 Eh     change       -0.3001460E-06 Eh
 * total energy  :   -89.8538346 Eh     change       -0.3603609E-06 Eh
 * total energy  :   -89.8538349 Eh     change       -0.2436189E-06 Eh
 * total energy  :   -89.8538351 Eh     change       -0.1998824E-06 Eh
 * total energy  :   -89.8538351 Eh     change       -0.6978827E-07 Eh
   *** GEOMETRY OPTIMIZATION CONVERGED AFTER 43 ITERATIONS ***

 final structure:
================
52
 xtb: 6.7.1 (edcfbbe)
N            5.84347458867127       -1.88905608183042        0.77409840447827
C            4.85937393924933       -1.32595986235490        0.54702572489292
C            3.66510814668208       -0.68471018205070        0.25430747297455
C            2.44589928821285       -1.32544410744292        0.45599142028758
C            1.24007103479069       -0.68959820327700        0.24229873422109
N            0.04774410315320       -1.31885889417298        0.55060115382726
C           -0.29639886790890       -2.62116079048888        0.22471261330857
C            0.40275491347813       -3.55687410632632       -0.52380211454000
C           -0.19813743542135       -4.78150570528411       -0.75415634802600
C           -1.46869230830014       -5.07221662728661       -0.26366465346666
C           -2.18726593495801       -4.13168606987982        0.45250827016267
C           -1.60228827636323       -2.89848303949058        0.69793267644290
C           -2.06530699060274       -1.70328233566125        1.34188567143308
C           -3.22249112756060       -1.30584818997877        1.99355779150096
C           -3.26342611398159       -0.01395047689723        2.49370541429852
C           -2.15726713757252        0.82111544035196        2.34295211868708
N           -1.04862060225212        0.46960462019928        1.71669389250338
C           -1.01680415915220       -0.75435701285893        1.22162668804689
C            1.23733909099029        0.69601011203529       -0.24016871964649
N            0.04273570139957        1.31966342151436       -0.55104037306601
C           -0.30823986157381        2.62032742227570       -0.22589721623198
C            0.38490069532808        3.55934201147201        0.52407519165992
C           -0.22224789536155        4.78113310010908        0.75310849076534
C           -1.49310646875250        5.06585007890508        0.25989054288535
C           -2.20570714372897        4.12193406285274       -0.45779448200624
C           -1.61440267026374        2.89149499164848       -0.70192513417454
C           -2.07041276512698        1.69411481292816       -1.34683463754773
C           -3.22431573426354        1.29122804343912       -2.00096813499350
C           -3.25806294608982       -0.00082161899576       -2.50125500340097
C           -2.14828469299602       -0.83064168329327       -2.34817409835302
N           -1.04266866567960       -0.47392635578217       -1.71950707306048
C           -1.01769254656124        0.75015807158962       -1.22434991457848
C            2.44062555812797        1.33749255297106       -0.45130434932677
C            3.66239410288909        0.70246884530262       -0.24704011728285
C            4.85425859190772        1.34928630857753       -0.53728492948256
N            5.83623709851992        1.91693055903263       -0.76224078513662
H            2.45445790232663       -2.32884165962163        0.85722501847443
H            1.37496976225026       -3.33668404344031       -0.93451592100233
H            0.32854572031749       -5.52590623541310       -1.33143506383203
H           -1.90161111433837       -6.04188752676093       -0.45741712498844
H           -3.18338725473567       -4.34582115132542        0.80866039611847
H           -4.05889615748825       -1.97917814078169        2.10926849737823
H           -4.14213521642911        0.35255483074174        2.99988255255604
H           -2.16109777589417        1.82951614907777        2.73267987888208
H            1.35727602859370        3.34375459359714        0.93684288358360
H            0.29969607091747        5.52802999608695        1.33146591393507
H           -1.93100936094111        6.03346564778603        0.45270596571646
H           -3.20207600231607        4.33134591196433       -0.81604883708743
H           -4.06361758749644        1.96062730865634       -2.11852446587285
H           -4.13394666554204       -0.37146824091804       -3.00930642530100
H           -2.14655486672185       -1.83907801514115       -2.73782889885094
H            2.44534535518061        2.34091451429339       -0.85253917321023

 projected vibrational frequencies (cm⁻¹)
eigval :       -0.00    -0.00     0.00     0.00     0.00     0.00
eigval :       18.87    25.47    33.89    39.01    43.75    55.81
eigval :       91.51    97.24    98.56    99.09   125.44   136.61
eigval :      139.16   145.17   173.41   174.44   189.48   202.34
eigval :      253.17   275.06   279.28   279.81   303.16   320.74
eigval :      336.45   354.16   375.08   387.68   388.40   403.65
eigval :      416.17   419.31   437.35   438.73   447.30   473.63
eigval :      476.81   510.24   511.33   526.17   537.24   539.04
eigval :      547.86   558.97   585.14   587.15   587.86   595.95
eigval :      596.17   639.54   651.17   665.53   682.06   683.59
eigval :      686.41   717.16   717.67   731.74   756.44   764.47
eigval :      771.99   772.02   788.61   789.46   833.94   860.79
eigval :      865.58   881.13   890.74   895.14   895.20   898.83
eigval :      905.07   906.34   907.34   909.84   911.01   920.78
eigval :      921.75   936.25  1016.93  1017.64  1069.67  1070.59
eigval :     1074.54  1083.94  1087.57  1112.62  1128.51  1140.54
eigval :     1143.74  1147.31  1158.28  1166.92  1174.25  1175.76
eigval :     1202.79  1208.35  1217.91  1228.56  1258.37  1271.86
eigval :     1273.39  1283.15  1287.57  1296.42  1317.79  1326.99
eigval :     1327.76  1330.24  1344.96  1348.11  1363.46  1373.52
eigval :     1385.13  1397.32  1402.87  1418.71  1436.73  1444.02
eigval :     1455.05  1455.47  1477.71  1477.87  1536.06  1536.75
eigval :     1553.18  1553.27  1572.59  1573.67  1586.76  1590.26
eigval :     2221.01  2239.96  3071.18  3071.23  3079.98  3080.02
eigval :     3084.87  3085.17  3086.47  3086.48  3093.12  3093.15
eigval :     3100.30  3100.59  3104.28  3104.87  3108.72  3109.00

   temp. (K)  partition function   enthalpy   heat capacity  entropy
                                   cal/mol     cal/K/mol   cal/K/mol   J/K/mol
 298.15  VIB  0.152E+12            15751.518    101.043     95.979
         ROT  0.109E+08              888.752      2.981     35.187
         INT  0.166E+19            16640.271    104.024    131.165
         TR   0.956E+28             1481.254      4.968     44.250
         TOT                       18121.5245   108.9919   175.4154   733.9379

       T/K    H(0)-H(T)+PV         H(T)/Eh          T*S/Eh         G(T)/Eh
   ------------------------------------------------------------------------
    298.15    0.288785E-01    0.399308E+00    0.833455E-01    0.315962E+00
   ------------------------------------------------------------------------

         :::::::::::::::::::::::::::::::::::::::::::::::::::::
         ::                  THERMODYNAMIC                  ::
         :::::::::::::::::::::::::::::::::::::::::::::::::::::
         :: total free energy         -89.537872743960 Eh   ::
         ::.................................................::
         :: total energy              -89.853835183770 Eh   ::
         :: zero point energy           0.370429459364 Eh   ::
         :: G(RRHO) w/o ZPVE           -0.054467019554 Eh   ::
         :: G(RRHO) contrib.            0.315962439810 Eh   ::
         :::::::::::::::::::::::::::::::::::::::::::::::::::::

           -------------------------------------------------
          | TOTAL ENERGY              -89.853835183770 Eh   |
          | TOTAL ENTHALPY            -89.454527236881 Eh   |
          | TOTAL FREE ENERGY         -89.537872743960 Eh   |
          | GRADIENT NORM               0.000038127262 Eh/α |
           -------------------------------------------------

 * finished run on 2025/07/16 at 18:04:28.299
