   * xtb version 6.7.1 (edcfbbe) compiled by 'albert@albert-system' on 2024-07-22

   ID    Z sym.   atoms
    1    7 N      1, 6, 17, 20, 31, 36
    2    6 C      2-5, 7-16, 18, 19, 21-30, 32-35
    3    1 H      37-52

          program call               : xtb data2507/gas/α-2CbPN/α-2CbPN_gas_S0_crest.xyz --gfn 2 --ohess vtight --parallel 40 --molden --ceasefiles --namespace data2507/gas/α-2CbPN/α-2CbPN_gas_S0_finalOpt
          :  Hamiltonian                  GFN2-xTB          :
 * total energy  :   -89.9451272 Eh     change       -0.4217100E-08 Eh
 * total energy  :   -89.9451251 Eh     change        0.2185728E-05 Eh
 * total energy  :   -89.9451274 Eh     change       -0.2329785E-05 Eh
 * total energy  :   -89.9451279 Eh     change       -0.5666265E-06 Eh
 * total energy  :   -89.9451271 Eh     change        0.8115156E-06 Eh
 * total energy  :   -89.9451292 Eh     change       -0.2016219E-05 Eh
 * total energy  :   -89.9451300 Eh     change       -0.8167740E-06 Eh
 * total energy  :   -89.9451304 Eh     change       -0.3924072E-06 Eh
 * total energy  :   -89.9451311 Eh     change       -0.7551953E-06 Eh
 * total energy  :   -89.9451313 Eh     change       -0.1691270E-06 Eh
 * total energy  :   -89.9451313 Eh     change       -0.5186331E-07 Eh
   *** GEOMETRY OPTIMIZATION CONVERGED AFTER 11 ITERATIONS ***

 final structure:
================
52
 xtb: 6.7.1 (edcfbbe)
N            5.90445041874582       -1.85744363204470        0.76259789705685
C            4.92631772363053       -1.30346662187503        0.54106352961795
C            3.70635422057544       -0.64233708007015        0.26922434398537
C            2.49911871708162       -1.27638982619317        0.53931101804894
C            1.28967436796794       -0.64312639815733        0.28350349648063
N            0.09533016321141       -1.27759423511982        0.61534774748088
C           -0.31146481838351       -2.54025346040874        0.20521424391929
C            0.37470727372695       -3.49212030492503       -0.52982099214632
C           -0.28312981771858       -4.67087447887179       -0.83098715985434
C           -1.59383828313157       -4.89894314929358       -0.42110639687445
C           -2.29101793663816       -3.94327485551917        0.29135017736470
C           -1.64965868686318       -2.75289966604124        0.60563813365050
C           -2.07138783763938       -1.55715728002120        1.27897056043285
C           -3.23447091769325       -1.10828067715318        1.88263608788601
C           -3.21899891345730        0.16869300318042        2.42435803897686
C           -2.05783443786987        0.93107444917128        2.36607253762352
N           -0.93121699693004        0.52894072350462        1.79783449660002
C           -0.96368154785653       -0.67453503626435        1.25327516939619
C            1.28741114530703        0.65001166038928       -0.28166198510090
N            0.09095075446886        1.27896457692444       -0.61636368929660
C           -0.32280095558980        2.53962277628283       -0.20697216343565
C            0.35741879300052        3.49498401416564        0.52905641353212
C           -0.30674709116759        4.67050743828611        0.82897333737886
C           -1.61790717089008        4.89200237259407        0.41695361189153
C           -2.30912906663969        3.93282928988678       -0.29659922534002
C           -1.66133153909076        2.74564495927797       -0.60973854191446
C           -2.07597873312667        1.54783356264903       -1.28379407026578
C           -3.23579977475490        1.09316125928301       -1.88939905270389
C           -3.21299465903175       -0.18364234958519       -2.43126447650728
C           -2.04809490110066       -0.94016351745975       -2.37117418691334
N           -0.92449882495427       -0.53246872895602       -1.80092422187267
C           -0.96393804865305        0.67074678959195       -1.25625050856840
C            2.49460905207959        1.28875249956131       -0.53448052335066
C            3.70404096202220        0.66020191870584       -0.26133495727220
C            4.92167024190848        1.32684056653068       -0.53015300990233
N            5.89784315260437        1.88515982350595       -0.74931866731973
H            2.50331481950513       -2.25954221626526        0.98606950848495
H            1.38164875696399       -3.31982759145787       -0.87636211623696
H            0.23111975647573       -5.42941975006330       -1.40181785638466
H           -2.07211460744472       -5.83290087781158       -0.67514578288825
H           -3.31370604467884       -4.10967118341804        0.59399027054650
H           -4.11834508753316       -1.72732446067727        1.92884299490794
H           -4.09885282989694        0.57363909686741        2.89871546754856
H           -2.02116968164252        1.92431846053685        2.79221940764563
H            1.36464181704799        3.32777725817751        0.87726512503228
H            0.20281731238858        5.43168376089668        1.40050262227616
H           -2.10125013411877        5.82358400434027        0.67013057991971
H           -3.33213499944053        4.09410811917637       -0.60093507737294
H           -4.12267497788633        1.70778422079459       -1.93709315402904
H           -4.09000815670125       -0.59295206476170       -2.90713488295826
H           -2.00570981881329       -1.93314824482606       -2.79739442191186
H            2.49548353652455        2.27188864925970       -0.98129008286363

          :  Hamiltonian                  GFN2-xTB          :
         :: gradient norm              0.000081881389 Eh/a0 ::
         :: HOMO-LUMO gap              2.170725478008 eV    ::
         :: SCC energy               -91.631264023586 Eh    ::
         :: -> dispersion             -0.085842297889 Eh    ::
         :: repulsion energy           1.686132685588 Eh    ::

    * Orbital Energies and Occupations

         #    Occupation            Energy/Eh            Energy/eV
      -------------------------------------------------------------
         1        2.0000           -0.7058449             -19.2070
       ...           ...                  ...                  ...
        71        2.0000           -0.4380219             -11.9192
        72        2.0000           -0.4371200             -11.8946
        73        2.0000           -0.4360905             -11.8666
        74        2.0000           -0.4350715             -11.8389
        75        2.0000           -0.4333730             -11.7927
        76        2.0000           -0.4296233             -11.6906
        77        2.0000           -0.4283908             -11.6571
        78        2.0000           -0.4031923             -10.9714
        79        2.0000           -0.3967934             -10.7973
        80        2.0000           -0.3910626             -10.6414
        81        2.0000           -0.3880737             -10.5600
        82        2.0000           -0.3848357             -10.4719
        83        2.0000           -0.3842754             -10.4567 (HOMO)
        84                         -0.3045026              -8.2859 (LUMO)
        85                         -0.2818536              -7.6696
        86                         -0.2720821              -7.4037
        87                         -0.2708206              -7.3694
        88                         -0.2503390              -6.8121
        89                         -0.2408780              -6.5546
        90                         -0.2253519              -6.1321
        91                         -0.2223745              -6.0511
        92                         -0.2177855              -5.9262
        93                         -0.2140474              -5.8245
        94                         -0.2097751              -5.7083
       ...                                ...                  ...
       160                          1.1775003              32.0414
      -------------------------------------------------------------
                  HL-Gap            0.0797728 Eh            2.1707 eV

     #   Z          covCN         q      C6AA      α(0)
     1   7 N        0.911    -0.211    25.590     7.316
     2   6 C        1.910     0.115    28.261     8.586
     3   6 C        2.976     0.024    27.472     8.598
     4   6 C        2.929    -0.032    28.808     8.802
     5   6 C        2.912     0.074    26.342     8.416
     6   7 N        2.801    -0.037    21.947     6.958
     7   6 C        3.078     0.055    26.688     8.470
     8   6 C        2.910    -0.042    29.047     8.838
     9   6 C        2.925    -0.028    28.710     8.787
    10   6 C        2.920    -0.037    28.910     8.817
    11   6 C        2.913    -0.030    28.753     8.793
    12   6 C        3.068    -0.014    28.286     8.721
    13   6 C        3.064    -0.026    28.597     8.769
    14   6 C        2.920    -0.017    28.425     8.743
    15   6 C        2.918    -0.051    29.264     8.871
    16   6 C        2.932     0.060    26.646     8.466
    17   7 N        1.833    -0.268    27.820     7.816
    18   6 C        3.094     0.141    24.838     8.168
    19   6 C        2.912     0.074    26.342     8.416
    20   7 N        2.801    -0.037    21.947     6.958
    21   6 C        3.078     0.055    26.688     8.470
    22   6 C        2.910    -0.042    29.047     8.838
    23   6 C        2.925    -0.028    28.710     8.787
    24   6 C        2.920    -0.037    28.910     8.817
    25   6 C        2.913    -0.030    28.753     8.793
    26   6 C        3.068    -0.014    28.286     8.721
    27   6 C        3.064    -0.026    28.597     8.769
    28   6 C        2.920    -0.017    28.425     8.743
    29   6 C        2.918    -0.051    29.264     8.871
    30   6 C        2.932     0.060    26.646     8.466
    31   7 N        1.833    -0.268    27.820     7.816
    32   6 C        3.094     0.141    24.838     8.168
    33   6 C        2.929    -0.032    28.808     8.802
    34   6 C        2.976     0.024    27.472     8.598
    35   6 C        1.910     0.115    28.261     8.586
    36   7 N        0.911    -0.211    25.590     7.316
    37   1 H        0.926     0.063     2.168     2.302
    38   1 H        0.926     0.037     2.494     2.469
    39   1 H        0.926     0.040     2.450     2.448
    40   1 H        0.926     0.037     2.490     2.467
    41   1 H        0.926     0.037     2.492     2.468
    42   1 H        0.926     0.038     2.479     2.462
    43   1 H        0.926     0.037     2.492     2.468
    44   1 H        0.925     0.037     2.491     2.468
    45   1 H        0.926     0.037     2.494     2.469
    46   1 H        0.926     0.040     2.450     2.448
    47   1 H        0.926     0.037     2.490     2.467
    48   1 H        0.926     0.037     2.492     2.468
    49   1 H        0.926     0.038     2.479     2.462
    50   1 H        0.926     0.037     2.492     2.468
    51   1 H        0.925     0.037     2.491     2.468
    52   1 H        0.926     0.063     2.167     2.302

molecular dipole:
                 x           y           z       tot (Debye)
 q only:       -2.089      -0.005      -0.002
   full:       -3.465      -0.008      -0.004       8.807

 projected vibrational frequencies (cm⁻¹)
eigval :       -0.00    -0.00     0.00     0.00     0.00     0.00
eigval :       23.09    29.04    36.90    43.11    46.30    55.06
eigval :       91.17    97.07   101.55   106.15   122.28   136.28
eigval :      142.43   150.02   172.74   180.38   197.49   205.51
eigval :      261.66   274.69   282.66   283.81   312.88   313.19
eigval :      354.14   391.21   394.47   397.39   422.11   423.33
eigval :      425.72   431.28   438.06   448.57   481.96   482.21
eigval :      515.25   517.01   533.04   533.24   546.30   548.78
eigval :      556.37   574.03   591.47   591.89   596.85   604.69
eigval :      655.13   657.44   670.73   685.95   686.71   691.20
eigval :      714.22   723.92   725.41   752.36   762.77   771.85
eigval :      774.62   775.11   795.11   795.96   843.28   865.48
eigval :      868.43   882.41   891.43   902.83   902.91   905.43
eigval :      906.30   909.44   911.60   911.96   916.32   924.30
eigval :      924.49   964.46  1021.51  1021.75  1072.75  1072.94
eigval :     1076.53  1089.48  1095.24  1122.46  1137.27  1150.34
eigval :     1151.64  1168.92  1169.82  1179.96  1180.45  1214.26
eigval :     1216.05  1223.45  1223.82  1233.57  1266.79  1285.81
eigval :     1286.77  1295.10  1296.21  1316.13  1328.60  1344.91
eigval :     1345.11  1355.85  1356.44  1360.94  1378.61  1406.83
eigval :     1413.18  1428.57  1434.37  1463.76  1466.74  1481.81
eigval :     1481.97  1491.70  1510.69  1555.91  1567.28  1568.60
eigval :     1576.26  1576.57  1596.96  1597.04  1612.81  1613.84
eigval :     2374.24  2374.52  3068.05  3068.06  3078.09  3078.10
eigval :     3082.89  3082.91  3088.31  3088.32  3095.67  3095.83
eigval :     3098.25  3098.73  3101.51  3101.72  3102.23  3102.44

   temp. (K)  partition function   enthalpy   heat capacity  entropy
                                   cal/mol     cal/K/mol   cal/K/mol   J/K/mol
 298.15  VIB  0.572E+11            15399.018     99.504     93.738
         ROT  0.106E+08              888.752      2.981     35.121
         INT  0.604E+18            16287.771    102.485    128.859
         TR   0.956E+28             1481.254      4.968     44.250
         TOT                       17769.0244   107.4534   173.1090   724.2882

       T/K    H(0)-H(T)+PV         H(T)/Eh          T*S/Eh         G(T)/Eh
   ------------------------------------------------------------------------
    298.15    0.283167E-01    0.403300E+00    0.822497E-01    0.321050E+00
   ------------------------------------------------------------------------

         :::::::::::::::::::::::::::::::::::::::::::::::::::::
         ::                  THERMODYNAMIC                  ::
         :::::::::::::::::::::::::::::::::::::::::::::::::::::
         :: total free energy         -89.624081004643 Eh   ::
         ::.................................................::
         :: total energy              -89.945131337993 Eh   ::
         :: zero point energy           0.374983274910 Eh   ::
         :: G(RRHO) w/o ZPVE           -0.053932941560 Eh   ::
         :: G(RRHO) contrib.            0.321050333350 Eh   ::
         :::::::::::::::::::::::::::::::::::::::::::::::::::::

           -------------------------------------------------
          | TOTAL ENERGY              -89.945131337993 Eh   |
          | TOTAL ENTHALPY            -89.541831320195 Eh   |
          | TOTAL FREE ENERGY         -89.624081004643 Eh   |
          | GRADIENT NORM               0.000081670830 Eh/α |
          | HOMO-LUMO GAP               2.170727677831 eV   |
           -------------------------------------------------

 * finished run on 2025/07/16 at 18:04:23.486
