   * xtb version 6.7.1 (edcfbbe) compiled by 'albert@albert-system' on 2024-07-22

   ID    Z sym.   atoms
    1    7 N      1, 6, 17, 20, 31, 36
    2    6 C      2-5, 7-16, 18, 19, 21-30, 32-35
    3    1 H      37-52

          program call               : xtb data2507/gas/α-2CbPN/α-2CbPN_gas_T1_crest.xyz --gfn 2 --spinpol --tblite --uhf 2 --ohess vtight --parallel 40 --molden --ceasefiles --namespace data2507/gas/α-2CbPN/α-2CbPN_gas_T1_finalOpt
 * total energy  :   -89.8536280 Eh     change       -0.1663970E-07 Eh
 * total energy  :   -89.8537294 Eh     change       -0.1014062E-03 Eh
 * total energy  :   -89.8537677 Eh     change       -0.3835123E-04 Eh
 * total energy  :   -89.8537855 Eh     change       -0.1776619E-04 Eh
 * total energy  :   -89.8537894 Eh     change       -0.3905003E-05 Eh
 * total energy  :   -89.8537925 Eh     change       -0.3119046E-05 Eh
 * total energy  :   -89.8537991 Eh     change       -0.6602574E-05 Eh
 * total energy  :   -89.8538048 Eh     change       -0.5737401E-05 Eh
 * total energy  :   -89.8538103 Eh     change       -0.5492145E-05 Eh
 * total energy  :   -89.8538134 Eh     change       -0.3063719E-05 Eh
 * total energy  :   -89.8538209 Eh     change       -0.2079772E-05 Eh
 * total energy  :   -89.8538232 Eh     change       -0.2295625E-05 Eh
 * total energy  :   -89.8538260 Eh     change       -0.2791815E-05 Eh
 * total energy  :   -89.8538293 Eh     change       -0.3267701E-05 Eh
 * total energy  :   -89.8538318 Eh     change       -0.2545539E-05 Eh
 * total energy  :   -89.8538334 Eh     change       -0.1605276E-05 Eh
 * total energy  :   -89.8538343 Eh     change       -0.8896249E-06 Eh
 * total energy  :   -89.8538347 Eh     change       -0.3647132E-06 Eh
 * total energy  :   -89.8538347 Eh     change       -0.1501292E-08 Eh
   *** GEOMETRY OPTIMIZATION CONVERGED AFTER 22 ITERATIONS ***

 final structure:
================
52
 xtb: 6.7.1 (edcfbbe)
N            5.85628185315692       -1.94153969768223        0.66301368776583
C            4.87305087123158       -1.36492416660337        0.46818698907537
C            3.67986570614369       -0.70613250369377        0.21240466269079
C            2.45948516503822       -1.35437977232805        0.37986496616616
C            1.25474433269309       -0.70530126900699        0.20266899316104
N            0.06157947084507       -1.34900328124316        0.47589831499256
C           -0.28380047965222       -2.63093271781194        0.07834508057612
C            0.41397288425929       -3.52371903688177       -0.72206608394075
C           -0.18764981539642       -4.73349542164864       -1.01929790628602
C           -1.45759743804488       -5.05065603225425       -0.54385460545756
C           -2.17501559326731       -4.15103211820792        0.22416663502397
C           -1.58935406313304       -2.93343451589321        0.53678233858612
C           -2.05109531447784       -1.77544624813663        1.24631274923821
C           -3.20785820569509       -1.41368164917865        1.91918293511309
C           -3.24769225277608       -0.15140222804451        2.49003179815412
C           -2.14087532934292        0.68984560362143        2.38549256990317
N           -1.03278598635088        0.37271642501735        1.74019267331260
C           -1.00197838457003       -0.82199371702215        1.17816725569037
C            1.25447471089166        0.70487856297963       -0.20213254148230
N            0.06108713497079        1.34833423094216       -0.47494476025285
C           -0.28380196443088        2.63070112119476       -0.07832294087611
C            0.41450436642771        3.52405118827412        0.72101471512428
C           -0.18652632748098        4.73440482934896        1.01708611585089
C           -1.45647073046063        5.05159785363634        0.54165550166087
C           -2.17451149993622        4.15139116499957       -0.22509355378369
C           -1.58941502709640        2.93323490209641       -0.53658516938074
C           -2.05180981329017        1.77475861468414       -1.24486442780841
C           -3.20901725798860        1.41277187044610       -1.91685932585095
C           -3.24953081294117        0.15003137820324       -2.48662705209542
C           -2.14285164994504       -0.69138948576785       -2.38205276448575
N           -1.03434869782187       -0.37400634028179       -1.73758900481754
C           -1.00291681143108        0.82107843585227       -1.17641070012105
C            2.45905107425577        1.35418631039921       -0.37976099195504
C            3.67963107680689        0.70630269832170       -0.21235946307596
C            4.87261979130581        1.36558455068113       -0.46807600547835
N            5.85548325379453        1.94273242959337       -0.66274579142607
H            2.46621818875535       -2.37841348807438        0.72510432702014
H            1.38565311682005       -3.28119102060924       -1.12132309976375
H            0.33793323874305       -5.44475327847132       -1.63789066552616
H           -1.89098426900173       -6.00808608878936       -0.79028096125516
H           -3.17070345827077       -4.38443423961107        0.56925211395797
H           -4.04481667517435       -2.09167706633123        1.99757996591430
H           -4.12606496144299        0.18729076977928        3.01578376136898
H           -2.14377167142992        1.67509911976625        2.83051895006265
H            1.38617599022810        3.28158583199721        1.12032435361210
H            0.33956170975126        5.44612873366856        1.63471164507308
H           -1.88935488608583        6.00950807835601        0.78709522778886
H           -3.17022337834222        4.38479383038599       -0.57011005558452
H           -4.04581451033530        2.09095511918446       -1.99538008310260
H           -4.12831609881908       -0.18889207679347       -3.01154170221715
H           -2.14623547163114       -1.67703569298255       -2.82620584647371
H            2.46551624214029        2.37814698201906       -0.72520467338622

 projected vibrational frequencies (cm⁻¹)
eigval :       -0.00    -0.00    -0.00    -0.00     0.00     0.00
eigval :       19.59    25.51    33.72    39.08    43.61    55.27
eigval :       91.47    96.60    98.29    98.82   125.67   136.59
eigval :      139.13   145.10   173.50   174.29   189.55   202.45
eigval :      253.12   275.16   279.22   279.79   303.47   320.79
eigval :      336.51   354.28   375.19   387.74   388.45   403.61
eigval :      415.71   419.29   437.47   438.75   447.38   473.64
eigval :      476.75   510.24   511.30   526.29   537.20   539.02
eigval :      547.47   558.98   585.02   587.12   587.90   595.96
eigval :      596.18   639.58   651.20   665.43   681.92   683.57
eigval :      686.37   717.19   717.57   731.75   756.23   764.47
eigval :      771.97   772.01   788.51   789.36   833.85   860.84
eigval :      865.55   881.21   890.81   895.04   895.07   898.85
eigval :      905.04   906.25   907.35   909.87   910.99   920.76
eigval :      921.75   936.21  1016.92  1017.59  1069.68  1070.51
eigval :     1074.54  1083.88  1087.50  1112.64  1128.96  1140.57
eigval :     1143.72  1147.28  1158.34  1166.92  1174.21  1175.70
eigval :     1202.77  1208.27  1217.88  1228.55  1258.32  1271.81
eigval :     1273.33  1283.13  1287.49  1296.51  1317.72  1326.94
eigval :     1327.81  1330.12  1344.96  1347.89  1363.43  1373.44
eigval :     1385.05  1397.19  1402.82  1418.87  1436.57  1444.02
eigval :     1455.08  1455.47  1477.59  1477.89  1535.26  1536.94
eigval :     1553.15  1553.19  1572.35  1573.64  1586.72  1589.80
eigval :     2221.10  2239.64  3071.11  3071.13  3080.04  3080.07
eigval :     3084.81  3085.14  3086.44  3086.45  3093.10  3093.13
eigval :     3100.34  3100.52  3104.31  3104.85  3108.84  3108.90

   temp. (K)  partition function   enthalpy   heat capacity  entropy
                                   cal/mol     cal/K/mol   cal/K/mol   J/K/mol
 298.15  VIB  0.150E+12            15752.804    101.034     95.971
         ROT  0.109E+08              888.752      2.981     35.188
         INT  0.164E+19            16641.556    104.014    131.158
         TR   0.956E+28             1481.254      4.968     44.250
         TOT                       18122.8100   108.9826   175.4083   733.9082

       T/K    H(0)-H(T)+PV         H(T)/Eh          T*S/Eh         G(T)/Eh
   ------------------------------------------------------------------------
    298.15    0.288805E-01    0.399298E+00    0.833421E-01    0.315956E+00
   ------------------------------------------------------------------------

         :::::::::::::::::::::::::::::::::::::::::::::::::::::
         ::                  THERMODYNAMIC                  ::
         :::::::::::::::::::::::::::::::::::::::::::::::::::::
         :: total free energy         -89.537878395571 Eh   ::
         ::.................................................::
         :: total energy              -89.853834611934 Eh   ::
         :: zero point energy           0.370417808008 Eh   ::
         :: G(RRHO) w/o ZPVE           -0.054461591646 Eh   ::
         :: G(RRHO) contrib.            0.315956216363 Eh   ::
         :::::::::::::::::::::::::::::::::::::::::::::::::::::

           -------------------------------------------------
          | TOTAL ENERGY              -89.853834611934 Eh   |
          | TOTAL ENTHALPY            -89.454536267941 Eh   |
          | TOTAL FREE ENERGY         -89.537878395571 Eh   |
          | GRADIENT NORM               0.000185524016 Eh/α |
           -------------------------------------------------

 * finished run on 2025/07/16 at 18:07:19.592
