   * xtb version 6.7.1 (edcfbbe) compiled by 'albert@albert-system' on 2024-07-22

   ID    Z sym.   atoms
    1    7 N      1, 6, 17, 20, 31, 36
    2    6 C      2-5, 7-16, 18, 19, 21-30, 32-35
    3    1 H      37-52

          program call               : xtb data2507/gas/α-2CbPN/α-2CbPN.xyz --gfn 2 --ohess vtight --parallel 40 --molden --ceasefiles --namespace data2507/gas/α-2CbPN/α-2CbPN_gas_S0_preOpt
          :  Hamiltonian                  GFN2-xTB          :
 * total energy  :   -89.9235283 Eh     change       -0.3143498E-08 Eh
 * total energy  :   -89.9377399 Eh     change       -0.1421166E-01 Eh
 * total energy  :   -89.9410755 Eh     change       -0.3335560E-02 Eh
 * total energy  :   -89.9412068 Eh     change       -0.1313062E-03 Eh
 * total energy  :   -89.9422074 Eh     change       -0.1000636E-02 Eh
 * total energy  :   -89.9424360 Eh     change       -0.2285353E-03 Eh
 * total energy  :   -89.9426058 Eh     change       -0.1698302E-03 Eh
 * total energy  :   -89.9427133 Eh     change       -0.1074914E-03 Eh
 * total energy  :   -89.9427924 Eh     change       -0.7912710E-04 Eh
 * total energy  :   -89.9429260 Eh     change       -0.1335752E-03 Eh
 * total energy  :   -89.9451287 Eh     change       -0.3531236E-06 Eh
 * total energy  :   -89.9451290 Eh     change       -0.3271889E-06 Eh
 * total energy  :   -89.9451293 Eh     change       -0.2851767E-06 Eh
 * total energy  :   -89.9451295 Eh     change       -0.2119124E-06 Eh
 * total energy  :   -89.9451297 Eh     change       -0.1663146E-06 Eh
 * total energy  :   -89.9451298 Eh     change       -0.1307282E-06 Eh
 * total energy  :   -89.9451299 Eh     change       -0.1154273E-06 Eh
 * total energy  :   -89.9451300 Eh     change       -0.1019999E-06 Eh
 * total energy  :   -89.9451301 Eh     change       -0.9027075E-07 Eh
   *** GEOMETRY OPTIMIZATION CONVERGED AFTER 63 ITERATIONS ***

 final structure:
================
52
 xtb: 6.7.1 (edcfbbe)
N           -1.88898224006780        6.33918542053890       -0.70903770415937
C           -1.32820626375000        5.36162278202431       -0.50267947691936
C           -0.65792082896086        4.14277001968155       -0.24890714983603
C           -1.29581481485407        2.93437434747968       -0.50426869148747
C           -0.65360312296775        1.72604800980546       -0.26589348573534
N           -1.29341655915535        0.53076034229423       -0.58357290421551
C           -2.54584351578245        0.12149910679971       -0.14553229901662
C           -3.48124877605070        0.80453421381004        0.61320525536534
C           -4.65226317085971        0.14471536322916        0.93922471868917
C           -4.88854781561896       -1.16495693591987        0.53068809073586
C           -3.94874918479043       -1.85915004090853       -0.20540198929125
C           -2.76639328114573       -1.21576051359415       -0.54482466461556
C           -1.58612374495704       -1.63429982435021       -1.24683470378631
C           -1.15042360262926       -2.79501654337993       -1.86455450163302
C            0.11354611986684       -2.77658253749569       -2.43587465329363
C            0.87607042346144       -1.61488667462965       -2.39158741396093
N            0.48624070535539       -0.49044561711436       -1.81061906875067
C           -0.70422590607718       -0.52575520576197       -1.23834461392560
C            0.65336388092637        1.72616090194507        0.26649972192481
N            1.29336813672072        0.53100354110528        0.58428074967205
C            2.54576092900408        0.12192423307775        0.14593619132535
C            3.48095275027238        0.80516929249653       -0.61287281248159
C            4.65192886063115        0.14548992800060       -0.93930320794793
C            4.88837806242837       -1.16425686265780       -0.53110819253808
C            3.94879144818573       -1.85865409336485        0.20506162554865
C            2.76648470900177       -1.21539807530135        0.54490663429573
C            1.58636924524817       -1.63417692186185        1.24703138850888
C            1.15086107102376       -2.79508582735212        1.86452160569017
C           -0.11305753997877       -2.77692771570029        2.43596481327113
C           -0.87571297045084       -1.61530480364827        2.39201904233697
N           -0.48606380140161       -0.49067974705077        1.81127927307743
C            0.70435554494346       -0.52572001951436        1.23888558355017
C            1.29549859316567        2.93459804972845        0.50453229265111
C            0.65760354182631        4.14288140061721        0.24863750113964
C            1.32796305664885        5.36183948981793        0.50168451844825
N            1.88884191788531        6.33945843194721        0.70742870368110
H           -2.28988636618631        2.93682643072785       -0.92618491219897
H           -3.30197600167253        1.81057983495403        0.95880743831478
H           -5.39804404644656        0.65657994586444        1.52871677388950
H           -5.81613723598488       -1.64478223708807        0.80437839172540
H           -4.12116699054856       -2.88106733384661       -0.50727915411847
H           -1.76966064749111       -3.67928431638223       -1.89930931194734
H            0.50804546931539       -3.65449115980282       -2.92248322204490
H            1.85909802335206       -1.57590709179141       -2.84061075727983
H            3.30154432661553        1.81126847770143       -0.95824565164318
H            5.39752402038972        0.65751520872312       -1.52888973623342
H            5.81591504336144       -1.64398414410737       -0.80515198809046
H            4.12133514064865       -2.88062665217527        0.50667916097312
H            1.77017820512016       -3.67931043007068        1.89895495796455
H           -0.50741685984802       -3.65499802766660        2.92239650262387
H           -1.85868959377649       -1.57653860804291        2.84117291819057
H            2.28955465605621        2.93724118819786        0.92648141356347

          :  Hamiltonian                  GFN2-xTB          :
         :: gradient norm              0.000040643139 Eh/a0 ::
         :: HOMO-LUMO gap              2.171434549909 eV    ::
         :: SCC energy               -91.631276931251 Eh    ::
         :: -> dispersion             -0.085771139368 Eh    ::
         :: repulsion energy           1.686146825493 Eh    ::

    * Orbital Energies and Occupations

         #    Occupation            Energy/Eh            Energy/eV
      -------------------------------------------------------------
         1        2.0000           -0.7058207             -19.2064
       ...           ...                  ...                  ...
        71        2.0000           -0.4380042             -11.9187
        72        2.0000           -0.4371010             -11.8941
        73        2.0000           -0.4360807             -11.8664
        74        2.0000           -0.4350516             -11.8384
        75        2.0000           -0.4333491             -11.7920
        76        2.0000           -0.4296225             -11.6906
        77        2.0000           -0.4283731             -11.6566
        78        2.0000           -0.4031373             -10.9699
        79        2.0000           -0.3968265             -10.7982
        80        2.0000           -0.3910640             -10.6414
        81        2.0000           -0.3880642             -10.5598
        82        2.0000           -0.3848072             -10.4711
        83        2.0000           -0.3842633             -10.4563 (HOMO)
        84                         -0.3044645              -8.2849 (LUMO)
        85                         -0.2818289              -7.6690
        86                         -0.2720453              -7.4027
        87                         -0.2708313              -7.3697
        88                         -0.2502938              -6.8108
        89                         -0.2409132              -6.5556
        90                         -0.2253604              -6.1324
        91                         -0.2223411              -6.0502
        92                         -0.2177545              -5.9254
        93                         -0.2140036              -5.8233
        94                         -0.2097461              -5.7075
       ...                                ...                  ...
       160                          1.1775860              32.0437
      -------------------------------------------------------------
                  HL-Gap            0.0797988 Eh            2.1714 eV

     #   Z          covCN         q      C6AA      α(0)
     1   7 N        0.911    -0.211    25.590     7.316
     2   6 C        1.910     0.115    28.262     8.586
     3   6 C        2.976     0.024    27.473     8.598
     4   6 C        2.929    -0.032    28.809     8.802
     5   6 C        2.912     0.074    26.343     8.416
     6   7 N        2.801    -0.036    21.944     6.957
     7   6 C        3.078     0.055    26.689     8.470
     8   6 C        2.910    -0.042    29.048     8.838
     9   6 C        2.925    -0.028    28.710     8.787
    10   6 C        2.920    -0.037    28.910     8.817
    11   6 C        2.913    -0.030    28.753     8.793
    12   6 C        3.068    -0.014    28.286     8.721
    13   6 C        3.064    -0.026    28.596     8.769
    14   6 C        2.920    -0.017    28.425     8.743
    15   6 C        2.918    -0.051    29.264     8.871
    16   6 C        2.932     0.060    26.646     8.466
    17   7 N        1.833    -0.268    27.820     7.816
    18   6 C        3.094     0.140    24.838     8.168
    19   6 C        2.912     0.074    26.343     8.416
    20   7 N        2.801    -0.036    21.944     6.957
    21   6 C        3.078     0.055    26.689     8.470
    22   6 C        2.910    -0.042    29.048     8.838
    23   6 C        2.925    -0.028    28.710     8.787
    24   6 C        2.920    -0.037    28.910     8.817
    25   6 C        2.913    -0.030    28.753     8.793
    26   6 C        3.068    -0.014    28.286     8.721
    27   6 C        3.064    -0.026    28.596     8.769
    28   6 C        2.920    -0.017    28.425     8.743
    29   6 C        2.918    -0.051    29.264     8.871
    30   6 C        2.932     0.060    26.646     8.466
    31   7 N        1.833    -0.268    27.819     7.816
    32   6 C        3.094     0.140    24.838     8.168
    33   6 C        2.929    -0.032    28.809     8.802
    34   6 C        2.976     0.024    27.473     8.598
    35   6 C        1.910     0.115    28.262     8.586
    36   7 N        0.911    -0.211    25.590     7.316
    37   1 H        0.926     0.063     2.168     2.302
    38   1 H        0.926     0.037     2.493     2.469
    39   1 H        0.926     0.040     2.450     2.448
    40   1 H        0.926     0.037     2.490     2.467
    41   1 H        0.926     0.037     2.491     2.468
    42   1 H        0.926     0.038     2.479     2.462
    43   1 H        0.926     0.037     2.492     2.468
    44   1 H        0.925     0.037     2.491     2.468
    45   1 H        0.926     0.037     2.493     2.469
    46   1 H        0.926     0.040     2.450     2.448
    47   1 H        0.926     0.037     2.490     2.467
    48   1 H        0.926     0.037     2.491     2.468
    49   1 H        0.926     0.038     2.479     2.462
    50   1 H        0.926     0.037     2.492     2.469
    51   1 H        0.925     0.037     2.491     2.468
    52   1 H        0.926     0.063     2.168     2.302

molecular dipole:
                 x           y           z       tot (Debye)
 q only:       -0.000      -2.090       0.000
   full:       -0.000      -3.465       0.000       8.808

 projected vibrational frequencies (cm⁻¹)
eigval :       -0.00    -0.00     0.00     0.00     0.00     0.00
eigval :       23.04    28.82    36.78    43.02    46.22    55.00
eigval :       91.25    97.05   101.51   106.02   122.33   136.25
eigval :      142.36   149.93   172.76   180.18   197.48   205.56
eigval :      261.57   274.80   282.62   283.75   312.90   313.10
eigval :      354.10   391.15   394.47   397.37   422.10   423.32
eigval :      425.71   431.29   438.08   448.63   481.96   482.17
eigval :      515.25   517.00   533.00   533.24   546.29   548.77
eigval :      556.32   574.08   591.39   591.89   596.86   604.68
eigval :      655.17   657.40   670.71   685.97   686.72   691.16
eigval :      714.20   723.90   725.43   752.39   762.76   771.87
eigval :      774.64   775.12   795.12   795.96   843.28   865.48
eigval :      868.44   882.47   891.47   902.82   902.91   905.46
eigval :      906.34   909.45   911.62   911.98   916.33   924.31
eigval :      924.51   964.50  1021.52  1021.76  1072.76  1072.95
eigval :     1076.53  1089.47  1095.24  1122.48  1137.27  1150.35
eigval :     1151.65  1168.94  1169.88  1179.96  1180.46  1214.28
eigval :     1216.07  1223.51  1223.83  1233.58  1266.82  1285.82
eigval :     1286.78  1295.13  1296.22  1316.16  1328.63  1344.91
eigval :     1345.11  1355.86  1356.44  1360.98  1378.61  1406.86
eigval :     1413.18  1428.60  1434.45  1463.77  1466.75  1481.81
eigval :     1481.97  1491.74  1510.72  1555.88  1567.28  1568.60
eigval :     1576.26  1576.57  1596.95  1597.03  1612.80  1613.83
eigval :     2374.33  2374.58  3068.01  3068.02  3078.06  3078.07
eigval :     3082.89  3082.90  3088.30  3088.31  3095.67  3095.83
eigval :     3098.27  3098.75  3101.50  3101.71  3102.22  3102.44

   temp. (K)  partition function   enthalpy   heat capacity  entropy
                                   cal/mol     cal/K/mol   cal/K/mol   J/K/mol
 298.15  VIB  0.583E+11            15400.430     99.495     93.750
         ROT  0.106E+08              888.752      2.981     35.123
         INT  0.616E+18            16289.182    102.476    128.873
         TR   0.956E+28             1481.254      4.968     44.250
         TOT                       17770.4361   107.4437   173.1230   724.3464

       T/K    H(0)-H(T)+PV         H(T)/Eh          T*S/Eh         G(T)/Eh
   ------------------------------------------------------------------------
    298.15    0.283190E-01    0.403301E+00    0.822563E-01    0.321045E+00
   ------------------------------------------------------------------------

         :::::::::::::::::::::::::::::::::::::::::::::::::::::
         ::                  THERMODYNAMIC                  ::
         :::::::::::::::::::::::::::::::::::::::::::::::::::::
         :: total free energy         -89.624085113678 Eh   ::
         ::.................................................::
         :: total energy              -89.945130105756 Eh   ::
         :: zero point energy           0.374982300957 Eh   ::
         :: G(RRHO) w/o ZPVE           -0.053937308878 Eh   ::
         :: G(RRHO) contrib.            0.321044992078 Eh   ::
         :::::::::::::::::::::::::::::::::::::::::::::::::::::

           -------------------------------------------------
          | TOTAL ENERGY              -89.945130105756 Eh   |
          | TOTAL ENTHALPY            -89.541828812281 Eh   |
          | TOTAL FREE ENERGY         -89.624085113678 Eh   |
          | GRADIENT NORM               0.000040752043 Eh/α |
          | HOMO-LUMO GAP               2.171436568429 eV   |
           -------------------------------------------------

 * finished run on 2025/07/16 at 18:02:23.651
