   * xtb version 6.7.1 (edcfbbe) compiled by 'albert@albert-system' on 2024-07-22

   ID    Z sym.   atoms
    1    8 O      1, 3
    2   16 S      2
    3    6 C      4-65
    4    1 H      66-103

          program call               : xtb data2507/gas/SF-DPSO/SF-DPSO_gas_S0_finalOpt.xtbopt.xyz --gfn 2 --spinpol --tblite --uhf 2 --ohess vtight --parallel 40 --molden --ceasefiles --namespace data2507/gas/SF-DPSO/SF-DPSO_gas_T1_preOpt
 * total energy  :  -163.4428878 Eh     change        0.3582508E-07 Eh
 * total energy  :  -163.4476318 Eh     change       -0.4743980E-02 Eh
 * total energy  :  -163.4503687 Eh     change       -0.2736914E-02 Eh
 * total energy  :  -163.4496568 Eh     change        0.7118760E-03 Eh
 * total energy  :  -163.4526787 Eh     change       -0.3021849E-02 Eh
 * total energy  :  -163.4534347 Eh     change       -0.7559922E-03 Eh
 * total energy  :  -163.4542626 Eh     change       -0.8278979E-03 Eh
 * total energy  :  -163.4544353 Eh     change       -0.1727711E-03 Eh
 * total energy  :  -163.4547230 Eh     change       -0.2876301E-03 Eh
 * total energy  :  -163.4549577 Eh     change       -0.2347562E-03 Eh
 * total energy  :  -163.4560611 Eh     change       -0.4879146E-06 Eh
 * total energy  :  -163.4560616 Eh     change       -0.4766426E-06 Eh
 * total energy  :  -163.4560621 Eh     change       -0.5184757E-06 Eh
 * total energy  :  -163.4560625 Eh     change       -0.4100339E-06 Eh
 * total energy  :  -163.4560630 Eh     change       -0.4669045E-06 Eh
 * total energy  :  -163.4560635 Eh     change       -0.5399513E-06 Eh
 * total energy  :  -163.4560640 Eh     change       -0.5308398E-06 Eh
 * total energy  :  -163.4560650 Eh     change       -0.9622484E-06 Eh
 * total energy  :  -163.4560650 Eh     change       -0.1595004E-07 Eh
   *** GEOMETRY OPTIMIZATION CONVERGED AFTER 260 ITERATIONS ***

 final structure:
================
103
 xtb: 6.7.1 (edcfbbe)
O           -0.06945605253021        4.74934185964244        3.03764581296737
S           -0.01335880815034        4.07528478744089        1.76560734845283
O            0.00508232965016        4.87091586383015        0.56504620297693
C           -1.38786712515871        2.92406356418091        1.67402941474653
C           -2.00649318403596        2.50705293939901        2.83740463054833
C           -3.02931268583778        1.58069867414773        2.76913658809182
C           -3.43785466456223        1.06466515418621        1.53827621546321
C           -4.52805329214769        0.08313126006662        1.46427102399660
C           -4.62124385828082       -0.94061554698068        2.40918693872714
C           -5.63622126126538       -1.87880303634981        2.36181986633634
C           -6.58183538763992       -1.78903469969760        1.35284825074330
C           -6.49355159710969       -0.76127112439571        0.40150133587199
C           -5.48102665653921        0.16721392345409        0.44532087602116
C           -7.62324152731644       -0.86147195847100       -0.59380379406543
C           -8.47590749575657        0.38246503138552       -0.66581096810942
C           -9.17314016017908        0.99990255533487        0.34892782487893
C           -9.89976154774350        2.14455478513419        0.04912112794287
C           -9.92329522130284        2.65375525236808       -1.24061528234006
C           -9.22248814488689        2.03498104134079       -2.26339855873672
C           -8.49499202277648        0.89295328116650       -1.97183995196070
C           -7.67352537192546        0.03731797503441       -2.81354104000390
C           -7.36814549741651        0.10351696412882       -4.16297692387637
C           -6.54218943923440       -0.86848563606039       -4.70455820180703
C           -6.02915854482719       -1.88779382255581       -3.91644241634901
C           -6.33103578876250       -1.96091742971015       -2.56299271728664
C           -7.15238584899599       -0.99649985377871       -2.02215707056955
C           -8.36987183772445       -2.07388530987314       -0.09275547386165
C           -9.50738283006764       -2.65186049778112       -0.61150050083099
C          -10.02521558152975       -3.77431537636697        0.02098907681261
C           -9.41214620377210       -4.30187519070861        1.14787861388198
C           -8.26761859892109       -3.72351527516595        1.67216827936052
C           -7.74509281146929       -2.60304784929550        1.04663283762360
C           -2.79844845676821        1.50106516621032        0.37639736712980
C           -1.77237332186112        2.42367560555609        0.44414005546010
C            1.37844640814826        2.96711421377126        1.74812987052018
C            2.02524118274407        2.67692814570885        0.54811904879139
C            3.06484967883294        1.78850637348078        0.52423762462298
C            3.49857964439870        1.11469748771147        1.70706629526826
C            4.56784549224215        0.19007615129842        1.68287149925920
C            4.77462320885666       -0.75848369417752        2.75506472702857
C            5.78161049444764       -1.66346871574993        2.75349425207730
C            6.70283630167560       -1.68848017479227        1.66988401749165
C            6.51889165743589       -0.74211255387460        0.59607808958899
C            5.50342249711276        0.14500189109143        0.58714583239575
C            7.61070404473719       -0.92818955571562       -0.43125877849700
C            8.44415142678945        0.31217488826050       -0.65295723082432
C            9.16824086370474        1.03174945761472        0.27205814379471
C            9.86824378419698        2.14918183056942       -0.16241849009730
C            9.83986247465308        2.53163111065078       -1.49555418340965
C            9.11218849960784        1.81039967007665       -2.42832263459016
C            8.41067155272649        0.69444758848857       -2.00223855006893
C            7.57173482646171       -0.24611999696712       -2.72735694276541
C            7.21800825713090       -0.31227914633237       -4.06508764454694
C            6.38580890138493       -1.33926539922002       -4.48060918032220
C            5.91373436465661       -2.28334138482569       -3.58044919872938
C            6.26429121694615       -2.22399993273770       -2.23838696819777
C            7.09207330441700       -1.20448764553580       -1.82187240003693
C            8.39910865251216       -2.07357994635086        0.15457003923305
C            9.50958357238956       -2.69208870193762       -0.35065731342783
C           10.08295663978648       -3.73999481560714        0.37471485884924
C            9.53509114081525       -4.15000643222974        1.59408375880348
C            8.42063748360641       -3.54104332982989        2.11698049307129
C            7.82552013747530       -2.48222415730990        1.39890414974560
C            2.79772046766189        1.42999888912217        2.91154593942656
C            1.77062740022239        2.33292215043737        2.92632590756032
H           -1.69085023074150        2.93543874927002        3.77581205087411
H           -3.53559020292225        1.27120127551844        3.67129410527398
H           -3.86792137638184       -1.01207178039212        3.18001478438821
H           -5.68739945539964       -2.66708429231601        3.09809263494102
H           -5.43610810377451        0.96559504928308       -0.28078356477868
H           -9.15469920576353        0.60249390064735        1.35341173585988
H          -10.45327713386832        2.64446603247488        0.83019194654242
H          -10.49591611053119        3.54557433367499       -1.44966122243257
H           -9.24353636125546        2.43553875755051       -3.26600885961978
H           -7.76489451820986        0.89532587702096       -4.78079434213253
H           -6.29390025837893       -0.83275034498511       -5.75534938188543
H           -5.38739442912191       -2.63436432737421       -4.36072034757381
H           -5.93232395754667       -2.75513507718981       -1.94839494925704
H           -9.98463763249445       -2.24056934224813       -1.48906352249732
H          -10.91683689158189       -4.24236970296366       -0.36932819917273
H           -9.83402894202275       -5.17579323144316        1.62254506723560
H           -7.79359872035245       -4.13751392707799        2.54974135311693
H           -3.09896939843133        1.09884659691123       -0.57974950325034
H           -1.27343235504856        2.77859596391573       -0.44393049771139
H            1.69563776400252        3.18497365093647       -0.34487194218413
H            3.53744200083538        1.56405168315961       -0.41824532034023
H            4.06660324282345       -0.77093882991971        3.56808112983185
H            5.89251674889765       -2.37180688383963        3.56104276309549
H            5.42003735746093        0.85460372179666       -0.22049492360535
H            9.19003202292519        0.73355518153052        1.31023819110097
H           10.44178728140995        2.72794222699746        0.54630398246446
H           10.39297830459504        3.40467725498188       -1.80961922450609
H            9.09297579562703        2.11263341737253       -3.46478190948106
H            7.58237596013515        0.42031370231624       -4.76970030348641
H            6.09969692718891       -1.40668917070526       -5.52008872868478
H            5.26563556632889       -3.07430081613400       -3.92794737771289
H            5.89697533502870       -2.95905045966875       -1.53686864086086
H            9.93797830664804       -2.37855388653068       -1.29153516163513
H           10.95948775394646       -4.23823682878241       -0.00982841519776
H           10.00288444450554       -4.96297864634267        2.13032798498250
H            7.99953362995045       -3.85981765122858        3.05822790430611
H            3.11408424270916        0.98738707052079        3.84214996975446
H            1.26459134300257        2.59451015250810        3.84264247848507

 projected vibrational frequencies (cm⁻¹)
eigval :       -0.00    -0.00    -0.00    -0.00     0.00     0.00
eigval :        2.11     3.92     5.16    13.21    17.60    21.55
eigval :       23.70    31.89    35.86    37.57    44.14    45.98
eigval :       52.56    55.65    62.10    67.37    80.00    82.50
eigval :       83.61   103.81   117.49   118.77   126.18   130.29
eigval :      133.50   142.75   148.52   155.39   167.43   171.95
eigval :      176.49   207.22   221.38   223.81   230.30   232.50
eigval :      233.66   237.96   253.75   267.30   288.87   290.91
eigval :      303.72   323.96   331.96   339.15   343.51   346.72
eigval :      358.23   364.82   367.34   377.73   385.65   387.37
eigval :      392.22   407.09   410.08   414.10   414.28   415.72
eigval :      420.70   436.50   442.89   450.34   456.83   460.99
eigval :      467.57   470.79   473.88   483.32   497.84   502.21
eigval :      506.18   518.37   519.58   526.50   529.38   538.11
eigval :      539.21   540.75   572.03   587.83   588.22   590.50
eigval :      597.69   598.71   601.90   604.40   605.37   618.20
eigval :      627.67   635.64   640.49   649.51   666.51   681.75
eigval :      685.02   687.29   687.54   690.32   694.61   702.65
eigval :      707.79   714.35   730.09   730.50   739.99   743.37
eigval :      752.69   754.13   763.27   767.55   775.78   778.71
eigval :      782.25   785.80   786.18   788.37   802.61   807.97
eigval :      813.15   833.53   836.55   842.02   873.27   878.83
eigval :      878.89   879.08   879.83   879.97   885.38   890.74
eigval :      894.98   900.17   900.70   902.11   903.64   907.20
eigval :      908.18   910.66   910.75   911.48   911.77   913.56
eigval :      914.45   915.03   917.58   919.63   926.83   927.31
eigval :      927.40   927.81   928.33   928.37   942.31   957.23
eigval :      973.72   994.28  1003.79  1007.37  1008.75  1011.08
eigval :     1051.54  1061.99  1071.22  1073.40  1073.78  1076.26
eigval :     1076.89  1078.24  1078.78  1080.00  1099.23  1117.31
eigval :     1122.10  1125.10  1129.09  1134.31  1137.26  1143.20
eigval :     1143.58  1154.79  1157.97  1162.93  1171.34  1177.49
eigval :     1177.50  1177.94  1179.00  1180.89  1181.42  1185.49
eigval :     1198.72  1201.28  1208.53  1209.52  1209.84  1223.56
eigval :     1224.64  1227.38  1235.23  1243.22  1246.81  1250.77
eigval :     1254.46  1256.60  1260.67  1260.88  1261.17  1270.28
eigval :     1278.21  1285.13  1285.17  1302.90  1303.92  1323.52
eigval :     1326.38  1326.70  1327.21  1327.66  1333.21  1339.70
eigval :     1361.37  1361.75  1365.36  1366.39  1382.02  1390.51
eigval :     1397.08  1403.24  1421.25  1424.97  1426.99  1427.99
eigval :     1429.33  1430.35  1430.76  1446.79  1460.99  1461.70
eigval :     1462.69  1465.10  1468.57  1470.01  1471.43  1483.59
eigval :     1499.86  1529.69  1560.75  1566.22  1568.71  1570.69
eigval :     1577.23  1582.73  1584.66  1592.26  1593.85  1594.86
eigval :     1596.22  1599.84  1602.42  1602.45  1603.84  1603.90
eigval :     1628.92  3073.44  3074.47  3074.55  3074.71  3075.61
eigval :     3076.75  3077.29  3077.59  3078.15  3078.50  3079.03
eigval :     3079.26  3079.73  3080.48  3082.50  3084.66  3085.40
eigval :     3085.66  3086.17  3086.47  3086.96  3087.91  3090.00
eigval :     3091.35  3092.21  3093.23  3093.29  3093.83  3094.15
eigval :     3094.71  3095.04  3098.61  3100.34  3102.34  3103.78
eigval :     3104.03  3109.62  3110.51

   temp. (K)  partition function   enthalpy   heat capacity  entropy
                                   cal/mol     cal/K/mol   cal/K/mol   J/K/mol
 298.15  VIB  0.147E+27            30547.557    191.182    194.150
         ROT  0.303E+09              888.752      2.981     41.790
         INT  0.444E+35            31436.309    194.163    235.939
         TR   0.239E+29             1481.254      4.968     46.066
         TOT                       32917.5633   199.1311   282.0049  1179.9084

       T/K    H(0)-H(T)+PV         H(T)/Eh          T*S/Eh         G(T)/Eh
   ------------------------------------------------------------------------
    298.15    0.524575E-01    0.829541E+00    0.133990E+00    0.695552E+00
   ------------------------------------------------------------------------

         :::::::::::::::::::::::::::::::::::::::::::::::::::::
         ::                  THERMODYNAMIC                  ::
         :::::::::::::::::::::::::::::::::::::::::::::::::::::
         :: total free energy        -162.760513503351 Eh   ::
         ::.................................................::
         :: total energy             -163.456065008918 Eh   ::
         :: zero point energy           0.777083645429 Eh   ::
         :: G(RRHO) w/o ZPVE           -0.081532139862 Eh   ::
         :: G(RRHO) contrib.            0.695551505567 Eh   ::
         :::::::::::::::::::::::::::::::::::::::::::::::::::::

           -------------------------------------------------
          | TOTAL ENERGY             -163.456065008918 Eh   |
          | TOTAL ENTHALPY           -162.626523887357 Eh   |
          | TOTAL FREE ENERGY        -162.760513503351 Eh   |
          | GRADIENT NORM               0.000062385061 Eh/α |
           -------------------------------------------------

 * finished run on 2025/07/21 at 02:16:57.919
