   * xtb version 6.7.1 (edcfbbe) compiled by 'albert@albert-system' on 2024-07-22

   ID    Z sym.   atoms
    1    8 O      1, 3
    2   16 S      2
    3    6 C      4-65
    4    1 H      66-103

          program call               : xtb data2507/gas/SF-DPSO/SF-DPSO_gas_S0_crest.xyz --gfn 2 --ohess vtight --parallel 40 --molden --ceasefiles --namespace data2507/gas/SF-DPSO/SF-DPSO_gas_S0_finalOpt
          :  Hamiltonian                  GFN2-xTB          :
 * total energy  :  -163.5494291 Eh     change       -0.9058851E-09 Eh
 * total energy  :  -163.5494302 Eh     change       -0.1071917E-05 Eh
 * total energy  :  -163.5494314 Eh     change       -0.1148671E-05 Eh
 * total energy  :  -163.5494342 Eh     change       -0.2833115E-05 Eh
 * total energy  :  -163.5494354 Eh     change       -0.1195098E-05 Eh
 * total energy  :  -163.5494371 Eh     change       -0.1687696E-05 Eh
 * total energy  :  -163.5494396 Eh     change       -0.2505160E-05 Eh
 * total energy  :  -163.5494414 Eh     change       -0.1832518E-05 Eh
 * total energy  :  -163.5494425 Eh     change       -0.1044997E-05 Eh
 * total energy  :  -163.5494434 Eh     change       -0.9813843E-06 Eh
 * total energy  :  -163.5495204 Eh     change       -0.4051388E-06 Eh
 * total energy  :  -163.5495210 Eh     change       -0.6872173E-06 Eh
 * total energy  :  -163.5495222 Eh     change       -0.1167124E-05 Eh
 * total energy  :  -163.5495239 Eh     change       -0.1654435E-05 Eh
 * total energy  :  -163.5495257 Eh     change       -0.1855619E-05 Eh
 * total energy  :  -163.5495275 Eh     change       -0.1760537E-05 Eh
 * total energy  :  -163.5495291 Eh     change       -0.1573730E-05 Eh
 * total energy  :  -163.5495305 Eh     change       -0.1419969E-05 Eh
 * total energy  :  -163.5495305 Eh     change       -0.6288019E-08 Eh
   *** GEOMETRY OPTIMIZATION CONVERGED AFTER 94 ITERATIONS ***

 final structure:
================
103
 xtb: 6.7.1 (edcfbbe)
O            0.09375535579402        4.47794120703654        2.26194306618416
S            0.01692891739613        3.69731071872411        1.05445142032655
O           -0.00370072766125        4.38749205944387       -0.20882305272332
C           -1.42388669387142        2.63176361523770        1.15740926869633
C           -2.01930251974552        2.40309631083604        2.38270372272692
C           -3.11009920524297        1.55768557380336        2.46031690873735
C           -3.61140088693036        0.94179596287549        1.31325916349328
C           -4.77927953184363        0.05332780411626        1.39368220156247
C           -4.89479456989666       -0.86654927837832        2.43684615266514
C           -5.98263544488178       -1.71542376438449        2.53445186456732
C           -6.97934678965014       -1.63588545538461        1.57536957392554
C           -6.87006568786649       -0.70889263576467        0.52778626525921
C           -5.78379465919003        0.12743877320426        0.42538655897984
C           -8.06909088395720       -0.79473066266119       -0.38385762762541
C           -8.82705396197354        0.50633400243430       -0.50150957306679
C           -9.39861599562466        1.25523030125915        0.50320954192122
C          -10.05669152658771        2.42848982007782        0.15903204142083
C          -10.13689571457462        2.83606714309033       -1.16404192142590
C           -9.56266583483288        2.08456003382893       -2.17683662511299
C           -8.90417029605102        0.91320585054751       -1.84112807046753
C           -8.21422512423673       -0.06962271848893       -2.66199415502490
C           -8.00594584113612       -0.13397514241361       -4.02979387907850
C           -7.29757677737686       -1.20880237649541       -4.54304031916354
C           -6.80498131867094       -2.20123050250423       -3.70906048269012
C           -7.01054315215502       -2.14397360349303       -2.33687147983746
C           -7.71521059532962       -1.07734083176926       -1.82406018856753
C           -8.87323283690819       -1.89461761107081        0.26602315780349
C          -10.08345476550053       -2.41803534016559       -0.13228088209124
C          -10.64662478264640       -3.43323974141022        0.62937636495279
C          -10.00689804531275       -3.90921025088068        1.76426098940721
C           -8.78940587629889       -3.38524440332993        2.16768268432664
C           -8.22116164819615       -2.37227381140028        1.41250740535371
C           -2.99455217231468        1.18959589730068        0.08613693419686
C           -1.89900531217154        2.02854980090111        0.00866664744314
C            1.37628629529276        2.52438251360747        1.04180239605635
C            2.05207057587468        2.26608827432069       -0.13457027779656
C            3.08992694906481        1.35279699717505       -0.13566195890847
C            3.44861234078723        0.68759324698163        1.03701526680569
C            4.55626193450331       -0.27815631447401        1.03563416644143
C            4.44823133019782       -1.47755318415337        1.74108034781262
C            5.47453665106281       -2.40501077124157        1.75114685158161
C            6.63514739951383       -2.12406316243643        1.04852975399399
C            6.75026098746400       -0.91733294523821        0.34200195799041
C            5.72687129653952        0.00034064050548        0.32534389625064
C            8.09278391884409       -0.82791173729308       -0.34048385181816
C            8.89954706016142        0.38098615299145        0.06957441429677
C            9.30707922375376        0.74718512420464        1.33324259447222
C           10.05314660731077        1.90967024346181        1.47523527784221
C           10.38034308037747        2.68306499888802        0.37167763354068
C            9.97135282341427        2.31725568362293       -0.90078568278227
C            9.22655425119972        1.15911921350962       -1.05020054181873
C            8.66350619238539        0.52575917047347       -2.23241104581978
C            8.69863892553011        0.88864575760919       -3.56864408597522
C            8.06006103779350        0.07758488348581       -4.49322671463848
C            7.39815341767894       -1.07385528112252       -4.09425772075253
C            7.35903493398351       -1.44436799381372       -2.75651787672865
C            7.99354122589366       -0.64041930698631       -1.83551206274139
C            8.73057126740893       -2.13610871182018        0.05991015310262
C            9.97759659510190       -2.61632528173463       -0.27410706491037
C           10.35929118188033       -3.85884717814241        0.21410789760037
C            9.50610365645938       -4.59932823720543        1.01878985339874
C            8.25110018760119       -4.11940914101291        1.35678444708254
C            7.86327169989410       -2.88035780022362        0.87339973643051
C            2.74617611002721        0.95971451348644        2.21198533299886
C            1.71315823026999        1.87744994960967        2.21556793557233
H           -1.63150731100883        2.91071430055146        3.25211509604723
H           -3.59620352197472        1.39132138657116        3.41002515932649
H           -4.10346878046160       -0.92997103392172        3.16946514135379
H           -6.05079301637906       -2.42640498791198        3.34431736219211
H           -5.71865773675079        0.84935055170203       -0.37547931726020
H           -9.33632207179670        0.93658238149671        1.53369752212917
H          -10.51168956807672        3.03080583213653        0.93140873229493
H          -10.65423805661816        3.75259974900854       -1.40747396597457
H           -9.62766275974603        2.40639273283792       -3.20557964571853
H           -8.38739093383458        0.63637651790450       -4.68335136947615
H           -7.12633787238268       -1.27554210923694       -5.60760819662773
H           -6.25542290490512       -3.02939292426204       -4.13184220720530
H           -6.62811091993169       -2.91747538295013       -1.68652829929517
H          -10.58164236718443       -2.04651634287920       -1.01591761823625
H          -11.59517293560716       -3.85722442225591        0.33462090981683
H          -10.46530537522896       -4.69931163488805        2.34096925155718
H           -8.29484918724226       -3.75887237675000        3.05202136999273
H           -3.36983511730529        0.70818311964127       -0.80470624463314
H           -1.41479006114174        2.23944022437975       -0.93194851571828
H            1.76179599842160        2.79807529368139       -1.02711773881025
H            3.61912465393892        1.13910137552801       -1.05241586303531
H            3.53147358229218       -1.69368533396297        2.27004179185178
H            5.36926386865798       -3.33125821912896        2.29616004433841
H            5.83407811408440        0.93378920039188       -0.20747516902594
H            9.05257538539206        0.14372498361230        2.19253729269081
H           10.38284183890144        2.21493732498514        2.45732897328434
H           10.96215343879425        3.58314702048972        0.50694328644127
H           10.22860577504995        2.92287215546252       -1.75703041710424
H            9.21246466060136        1.78440570695478       -3.88433509812456
H            8.07758554824174        0.34512492524013       -5.53972318326250
H            6.90744405759390       -1.69045320443998       -4.83289210892881
H            6.84420561149111       -2.34174776475674       -2.44480626012166
H           10.64179827699785       -2.03902439552001       -0.90067171895707
H           11.33301059699325       -4.25359526899655       -0.03576449639424
H            9.82562570848710       -5.56351414802940        1.38655178836377
H            7.59007438186499       -4.69941738615271        1.98358789159745
H            3.03178645163561        0.46689102011432        3.12927571065728
H            1.17666577144582        2.11668135024929        3.12032270067377

          :  Hamiltonian                  GFN2-xTB          :
         :: gradient norm              0.000058774759 Eh/a0 ::
         :: HOMO-LUMO gap              2.862529990656 eV    ::
         :: SCC energy              -166.598718683602 Eh    ::
         :: -> dispersion             -0.153375487168 Eh    ::
         :: repulsion energy           3.049188196024 Eh    ::

    * Orbital Energies and Occupations

         #    Occupation            Energy/Eh            Energy/eV
      -------------------------------------------------------------
         1        2.0000           -0.7611297             -20.7114
       ...           ...                  ...                  ...
       140        2.0000           -0.4150610             -11.2944
       141        2.0000           -0.4142683             -11.2728
       142        2.0000           -0.4050035             -11.0207
       143        2.0000           -0.4047780             -11.0146
       144        2.0000           -0.4003594             -10.8943
       145        2.0000           -0.4001976             -10.8899
       146        2.0000           -0.3985544             -10.8452
       147        2.0000           -0.3982279             -10.8363
       148        2.0000           -0.3959320             -10.7739
       149        2.0000           -0.3859503             -10.5022
       150        2.0000           -0.3854108             -10.4876
       151        2.0000           -0.3808669             -10.3639
       152        2.0000           -0.3804654             -10.3530 (HOMO)
       153                         -0.2752694              -7.4905 (LUMO)
       154                         -0.2687054              -7.3118
       155                         -0.2549999              -6.9389
       156                         -0.2547611              -6.9324
       157                         -0.2459557              -6.6928
       158                         -0.2422521              -6.5920
       159                         -0.2411833              -6.5629
       160                         -0.2367711              -6.4429
       161                         -0.2321365              -6.3168
       162                         -0.2319374              -6.3113
       163                         -0.2291456              -6.2354
       ...                                ...                  ...
       303                          1.2095097              32.9124
      -------------------------------------------------------------
                  HL-Gap            0.1051960 Eh            2.8625 eV

     #   Z          covCN         q      C6AA      α(0)
     1   8 O        0.860    -0.541    24.706     6.664
     2  16 S        3.815     0.936   108.505    17.532
     3   8 O        0.860    -0.541    24.700     6.663
     4   6 C        2.971    -0.077    29.909     8.971
     5   6 C        2.953    -0.027    28.680     8.784
     6   6 C        2.926    -0.031    28.764     8.795
     7   6 C        2.977     0.018    27.600     8.618
     8   6 C        2.980     0.007    27.858     8.658
     9   6 C        2.926    -0.037    28.921     8.819
    10   6 C        2.913    -0.034    28.845     8.807
    11   6 C        3.037     0.002    27.954     8.672
    12   6 C        3.054     0.008    27.793     8.646
    13   6 C        2.918    -0.037    28.914     8.818
    14   6 C        3.979     0.009    20.351     6.409
    15   6 C        3.057     0.006    27.831     8.652
    16   6 C        2.914    -0.033    28.814     8.802
    17   6 C        2.923    -0.031    28.772     8.796
    18   6 C        2.921    -0.032    28.791     8.799
    19   6 C        2.915    -0.033    28.827     8.804
    20   6 C        3.036     0.001    27.966     8.674
    21   6 C        3.036     0.001    27.959     8.673
    22   6 C        2.915    -0.033    28.833     8.805
    23   6 C        2.921    -0.032    28.801     8.801
    24   6 C        2.923    -0.032    28.791     8.799
    25   6 C        2.914    -0.033    28.828     8.804
    26   6 C        3.056     0.006    27.838     8.653
    27   6 C        3.058     0.007    27.797     8.646
    28   6 C        2.914    -0.032    28.798     8.800
    29   6 C        2.923    -0.030    28.760     8.795
    30   6 C        2.921    -0.032    28.796     8.800
    31   6 C        2.914    -0.033    28.827     8.804
    32   6 C        3.036     0.001    27.963     8.674
    33   6 C        2.926    -0.030    28.745     8.792
    34   6 C        2.956    -0.028    28.696     8.786
    35   6 C        2.971    -0.077    29.909     8.971
    36   6 C        2.952    -0.027    28.663     8.781
    37   6 C        2.926    -0.030    28.745     8.792
    38   6 C        2.977     0.018    27.601     8.618
    39   6 C        2.980     0.007    27.856     8.658
    40   6 C        2.926    -0.037    28.920     8.819
    41   6 C        2.913    -0.034    28.845     8.807
    42   6 C        3.037     0.002    27.954     8.672
    43   6 C        3.054     0.008    27.791     8.646
    44   6 C        2.919    -0.037    28.913     8.818
    45   6 C        3.979     0.009    20.351     6.409
    46   6 C        3.056     0.006    27.833     8.652
    47   6 C        2.914    -0.033    28.815     8.802
    48   6 C        2.923    -0.031    28.773     8.796
    49   6 C        2.921    -0.032    28.791     8.799
    50   6 C        2.915    -0.033    28.828     8.804
    51   6 C        3.036     0.001    27.965     8.674
    52   6 C        3.036     0.001    27.959     8.673
    53   6 C        2.915    -0.033    28.832     8.805
    54   6 C        2.921    -0.032    28.800     8.800
    55   6 C        2.923    -0.032    28.789     8.799
    56   6 C        2.914    -0.033    28.827     8.804
    57   6 C        3.056     0.006    27.837     8.653
    58   6 C        3.058     0.007    27.797     8.646
    59   6 C        2.914    -0.032    28.797     8.800
    60   6 C        2.923    -0.030    28.760     8.795
    61   6 C        2.921    -0.032    28.796     8.800
    62   6 C        2.914    -0.033    28.827     8.804
    63   6 C        3.036     0.001    27.963     8.674
    64   6 C        2.926    -0.030    28.761     8.795
    65   6 C        2.957    -0.028    28.708     8.788
    66   1 H        0.926     0.060     2.195     2.317
    67   1 H        0.926     0.049     2.326     2.385
    68   1 H        0.926     0.034     2.528     2.486
    69   1 H        0.926     0.036     2.509     2.477
    70   1 H        0.926     0.033     2.537     2.491
    71   1 H        0.926     0.028     2.616     2.529
    72   1 H        0.926     0.032     2.551     2.498
    73   1 H        0.926     0.033     2.549     2.497
    74   1 H        0.926     0.033     2.543     2.494
    75   1 H        0.926     0.033     2.543     2.494
    76   1 H        0.926     0.032     2.559     2.502
    77   1 H        0.926     0.031     2.568     2.506
    78   1 H        0.926     0.027     2.625     2.534
    79   1 H        0.926     0.030     2.588     2.516
    80   1 H        0.926     0.033     2.546     2.495
    81   1 H        0.926     0.032     2.553     2.499
    82   1 H        0.926     0.032     2.552     2.498
    83   1 H        0.926     0.049     2.338     2.391
    84   1 H        0.926     0.054     2.272     2.357
    85   1 H        0.926     0.062     2.177     2.307
    86   1 H        0.926     0.049     2.328     2.386
    87   1 H        0.926     0.034     2.533     2.489
    88   1 H        0.926     0.035     2.512     2.478
    89   1 H        0.926     0.034     2.533     2.489
    90   1 H        0.926     0.028     2.617     2.530
    91   1 H        0.926     0.032     2.553     2.499
    92   1 H        0.926     0.033     2.550     2.497
    93   1 H        0.926     0.033     2.543     2.494
    94   1 H        0.926     0.033     2.542     2.493
    95   1 H        0.926     0.032     2.556     2.500
    96   1 H        0.926     0.032     2.565     2.504
    97   1 H        0.926     0.027     2.625     2.534
    98   1 H        0.926     0.030     2.587     2.515
    99   1 H        0.926     0.033     2.546     2.495
   100   1 H        0.926     0.032     2.554     2.499
   101   1 H        0.926     0.032     2.553     2.499
   102   1 H        0.926     0.049     2.336     2.390
   103   1 H        0.926     0.051     2.306     2.375

molecular dipole:
                 x           y           z       tot (Debye)
 q only:       -0.079      -2.671      -0.062
   full:       -0.084      -2.627      -0.046       6.681

 projected vibrational frequencies (cm⁻¹)
eigval :       -0.00    -0.00    -0.00    -0.00     0.00     0.00
eigval :        1.20     3.80     5.51    15.12    18.29    21.19
eigval :       22.03    32.28    35.01    38.35    44.12    45.67
eigval :       49.42    57.82    61.48    73.22    80.85    82.38
eigval :       84.84   113.08   118.29   124.51   126.42   131.64
eigval :      133.96   147.07   150.67   157.94   166.09   170.70
eigval :      186.84   211.39   223.98   232.56   233.35   233.42
eigval :      234.52   244.73   263.11   282.70   291.15   305.85
eigval :      314.35   332.83   338.04   343.49   346.36   357.51
eigval :      366.18   368.67   371.44   386.52   387.36   395.15
eigval :      402.15   411.60   414.15   414.24   414.96   417.72
eigval :      421.86   449.07   453.56   465.71   470.12   471.90
eigval :      473.52   481.17   484.78   496.29   499.56   506.28
eigval :      506.39   524.96   525.98   536.03   538.61   538.83
eigval :      550.23   572.33   572.71   590.46   590.63   597.48
eigval :      598.61   604.66   604.76   616.08   622.38   628.62
eigval :      628.75   639.63   643.89   683.50   684.10   687.21
eigval :      687.96   690.40   691.29   702.59   705.11   707.66
eigval :      708.40   727.21   734.34   740.06   740.07   754.29
eigval :      754.33   767.78   767.84   776.13   776.21   786.35
eigval :      786.36   801.05   805.65   806.50   811.56   836.54
eigval :      837.68   873.76   875.96   878.99   879.00   879.32
eigval :      879.34   880.08   880.09   885.92   886.64   900.48
eigval :      900.56   908.18   908.35   910.65   910.67   911.23
eigval :      911.94   913.44   915.51   917.76   918.88   919.73
eigval :      920.12   927.36   927.46   927.48   928.11   928.17
eigval :      928.48   928.49   928.90   942.50   943.37   992.97
eigval :      997.44  1008.85  1008.86  1011.22  1011.42  1071.74
eigval :     1071.96  1073.83  1073.84  1076.72  1076.74  1077.87
eigval :     1077.91  1079.80  1079.89  1089.99  1117.64  1118.47
eigval :     1123.56  1132.74  1134.37  1134.43  1143.63  1143.65
eigval :     1154.75  1154.90  1171.45  1171.74  1177.76  1177.97
eigval :     1178.05  1178.07  1181.47  1181.63  1183.89  1186.68
eigval :     1199.11  1199.22  1209.62  1209.63  1224.52  1224.66
eigval :     1227.29  1227.61  1237.71  1246.76  1247.18  1253.35
eigval :     1257.80  1260.74  1261.11  1261.15  1261.42  1277.93
eigval :     1278.30  1285.32  1285.38  1304.30  1304.65  1322.27
eigval :     1323.14  1326.78  1326.83  1327.12  1327.13  1362.17
eigval :     1362.39  1366.80  1366.85  1390.01  1391.40  1422.57
eigval :     1422.70  1428.94  1428.96  1431.77  1431.81  1432.26
eigval :     1432.31  1448.23  1448.32  1462.22  1462.25  1464.03
eigval :     1464.19  1472.40  1472.41  1484.57  1484.78  1572.16
eigval :     1572.54  1576.79  1576.95  1580.79  1581.99  1585.60
eigval :     1585.61  1593.72  1593.75  1596.48  1596.49  1598.51
eigval :     1598.55  1604.11  1604.12  1604.55  1604.56  1604.86
eigval :     1604.90  3073.50  3073.66  3074.58  3074.63  3074.68
eigval :     3074.71  3077.27  3077.36  3077.45  3077.57  3078.37
eigval :     3078.38  3079.05  3079.09  3082.99  3083.34  3084.77
eigval :     3084.86  3085.77  3085.80  3086.79  3086.87  3086.90
eigval :     3087.00  3087.22  3087.57  3090.01  3090.20  3092.53
eigval :     3092.63  3093.56  3093.60  3094.33  3094.37  3102.31
eigval :     3102.99  3104.08  3104.45

   temp. (K)  partition function   enthalpy   heat capacity  entropy
                                   cal/mol     cal/K/mol   cal/K/mol   J/K/mol
 298.15  VIB  0.119E+27            30136.006    188.967    191.926
         ROT  0.311E+09              888.752      2.981     41.842
         INT  0.371E+35            31024.759    191.948    233.768
         TR   0.239E+29             1481.254      4.968     46.066
         TOT                       32506.0125   196.9157   279.8338  1170.8246

       T/K    H(0)-H(T)+PV         H(T)/Eh          T*S/Eh         G(T)/Eh
   ------------------------------------------------------------------------
    298.15    0.518016E-01    0.833060E+00    0.132958E+00    0.700102E+00
   ------------------------------------------------------------------------

         :::::::::::::::::::::::::::::::::::::::::::::::::::::
         ::                  THERMODYNAMIC                  ::
         :::::::::::::::::::::::::::::::::::::::::::::::::::::
         :: total free energy        -162.849428556247 Eh   ::
         ::.................................................::
         :: total energy             -163.549530488123 Eh   ::
         :: zero point energy           0.781258371266 Eh   ::
         :: G(RRHO) w/o ZPVE           -0.081156439390 Eh   ::
         :: G(RRHO) contrib.            0.700101931876 Eh   ::
         :::::::::::::::::::::::::::::::::::::::::::::::::::::

           -------------------------------------------------
          | TOTAL ENERGY             -163.549530488123 Eh   |
          | TOTAL ENTHALPY           -162.716470488583 Eh   |
          | TOTAL FREE ENERGY        -162.849428556247 Eh   |
          | GRADIENT NORM               0.000058772831 Eh/α |
          | HOMO-LUMO GAP               2.862529153368 eV   |
           -------------------------------------------------

 * finished run on 2025/07/21 at 02:16:05.299
