   * xtb version 6.7.1 (edcfbbe) compiled by 'albert@albert-system' on 2024-07-22

   ID    Z sym.   atoms
    1    8 O      1, 3
    2   16 S      2
    3    6 C      4-65
    4    1 H      66-103

          program call               : xtb data2507/gas/SF-DPSO/SF-DPSO_gas_T1_crest.xyz --gfn 2 --spinpol --tblite --uhf 2 --ohess vtight --parallel 40 --molden --ceasefiles --namespace data2507/gas/SF-DPSO/SF-DPSO_gas_T1_finalOpt
 * total energy  :  -163.4599149 Eh     change        0.1054104E-07 Eh
 * total energy  :  -163.4599404 Eh     change       -0.2555102E-04 Eh
 * total energy  :  -163.4599508 Eh     change       -0.1036628E-04 Eh
 * total energy  :  -163.4599546 Eh     change       -0.3843049E-05 Eh
 * total energy  :  -163.4599608 Eh     change       -0.6175054E-05 Eh
 * total energy  :  -163.4599697 Eh     change       -0.8932430E-05 Eh
 * total energy  :  -163.4599798 Eh     change       -0.1004050E-04 Eh
 * total energy  :  -163.4599896 Eh     change       -0.9863950E-05 Eh
 * total energy  :  -163.4599992 Eh     change       -0.9553603E-05 Eh
 * total energy  :  -163.4600102 Eh     change       -0.1098458E-04 Eh
 * total energy  :  -163.4608468 Eh     change       -0.9953559E-06 Eh
 * total energy  :  -163.4608477 Eh     change       -0.8958391E-06 Eh
 * total energy  :  -163.4608485 Eh     change       -0.7964552E-06 Eh
 * total energy  :  -163.4608493 Eh     change       -0.7948512E-06 Eh
 * total energy  :  -163.4608500 Eh     change       -0.6273411E-06 Eh
 * total energy  :  -163.4608507 Eh     change       -0.7437944E-06 Eh
 * total energy  :  -163.4608515 Eh     change       -0.8305724E-06 Eh
 * total energy  :  -163.4608523 Eh     change       -0.7696394E-06 Eh
 * total energy  :  -163.4608523 Eh     change       -0.3321628E-07 Eh
   *** GEOMETRY OPTIMIZATION CONVERGED AFTER 94 ITERATIONS ***

 final structure:
================
103
 xtb: 6.7.1 (edcfbbe)
O            0.82770926225114        6.95368282632934        1.79439215727178
S            0.46967681200086        6.58901240122757        0.44903552461432
O            0.11701643376028        7.63312542783784       -0.47671559084857
C           -0.83993011431839        5.35611465980549        0.47159066930950
C           -0.76086382701274        4.31102892158667        1.37531659251057
C           -1.64090637273003        3.25154648592585        1.27235216701459
C           -2.61060280684475        3.23079793832926        0.26819406082238
C           -3.52932447057547        2.09213785290532        0.12979060114009
C           -4.88056136645997        2.31288839053782       -0.14146950163976
C           -5.76343372750149        1.26217455363955       -0.30928788864594
C           -5.28414844941483       -0.03416190088578       -0.21283130337127
C           -3.92843635538239       -0.26550253815406        0.07207602805048
C           -3.05374705380891        0.78216071015345        0.24580578796143
C           -3.64380776682281       -1.74647244658168        0.11274266604608
C           -2.56955435648981       -2.21042486144725       -0.84039114764834
C           -2.46105545232888       -1.96485003281120       -2.19137290770403
C           -1.38203477855434       -2.50851208331044       -2.87588052398221
C           -0.44077077166080       -3.28584007824166       -2.21810396920154
C           -0.54751452399866       -3.53495770032394       -0.85939228879710
C           -1.61753777155196       -2.99121009028924       -0.16851607776532
C           -1.97445529572186       -3.04240125322509        1.23979279610402
C           -1.36131067462580       -3.66417698962538        2.31476293590363
C           -1.91429768698896       -3.50531018578725        3.57512838372469
C           -3.05564369722133       -2.73982693323020        3.76144716087424
C           -3.68156472128542       -2.12136320829486        2.68693489082624
C           -3.13462380503411       -2.27787912637487        1.43244618118229
C           -5.00085211650006       -2.33188883217469       -0.21131778894214
C           -5.35287939549360       -3.65834099558795       -0.32717681557880
C           -6.67432667673397       -3.96669692561313       -0.62099843212202
C           -7.61779153731113       -2.96401359842902       -0.79055167006696
C           -7.26657691037196       -1.62910490656617       -0.67365051090630
C           -5.94910590413108       -1.31380078989301       -0.38239607906989
C           -2.68747697003094        4.30646186079052       -0.61802493322638
C           -1.79617406527209        5.35849021255813       -0.52646253445270
C            1.70517656299741        5.51419120171127       -0.23902190051564
C            2.48685849253310        4.74323754045185        0.62503850814444
C            3.11444684947203        3.62256297246735        0.16414839046627
C            2.96470995811034        3.19137438691471       -1.19319702334432
C            3.32018031695968        1.89034211083392       -1.59943200411781
C            3.36316558384182        1.49427217454966       -2.99098567652786
C            3.38182570789336        0.19746059295049       -3.38165250335805
C            3.35441737073877       -0.82928778504226       -2.39872022943944
C            3.46398590466669       -0.44691130568377       -1.01390276231541
C            3.48836114429679        0.84273776865770       -0.62323035568020
C            3.42547655303048       -1.67651662685290       -0.14081950683393
C            2.40007694572385       -1.54807150166881        0.95994416342772
C            1.07830041613472       -1.17134525687007        0.85583858465519
C            0.34130506283730       -1.02496669908215        2.02299657192206
C            0.91256879848144       -1.27120144989241        3.26256280939708
C            2.24222591923778       -1.64271471538428        3.37160361104319
C            2.99300626780743       -1.76289368656340        2.21314269945335
C            4.40833778530160       -2.03189821739489        2.01547943065614
C            5.42206965262546       -2.30691972479930        2.91854252364134
C            6.70750056555133       -2.49334356361474        2.43598706885256
C            6.97933996668255       -2.40662117697087        1.07848277931556
C            5.96796438193042       -2.13583340328999        0.16679656170895
C            4.68935416320745       -1.94770115654314        0.64385758252037
C            3.19481144846490       -2.76845862018628       -1.15716708910073
C            3.04868788980910       -4.11327584802676       -0.94744514785186
C            2.91012267992447       -4.95482285674008       -2.05331787169541
C            2.92894770526957       -4.43754212666356       -3.35117210502534
C            3.07370679702779       -3.08935542439762       -3.58052969178404
C            3.20838277152188       -2.22431298419348       -2.47710885517910
C            2.29670415044958        4.09628439792899       -2.07826931519427
C            1.65526807566211        5.20365705636230       -1.60077155811836
H           -0.01181424453713        4.34303572587505        2.15083475494138
H           -1.58756286070372        2.43655808335474        1.97900115346558
H           -5.24278915776018        3.32843413670876       -0.20397612215218
H           -6.80579772171954        1.45079468659815       -0.51819182464353
H           -2.00463875750160        0.60290336374877        0.43234199027736
H           -3.19598715725073       -1.36127087467968       -2.70410723626086
H           -1.27477488573466       -2.32456938757763       -3.93474728379111
H            0.38872544241888       -3.69990376706376       -2.77110055623882
H            0.19384988594975       -4.13330468514620       -0.35163385847769
H           -0.46802008689838       -4.25404493391023        2.17444482997574
H           -1.44868989401881       -3.98140882934363        4.42569932209425
H           -3.46601804128381       -2.62561490162217        4.75400714939506
H           -4.57451836689829       -1.53037081845699        2.83115943721874
H           -4.61778268765554       -4.43871084145128       -0.19349589191533
H           -6.97155649556816       -5.00041662859593       -0.71800002776567
H           -8.64015291986618       -3.22904523149281       -1.01718644848614
H           -8.00420843041157       -0.85175337340377       -0.80643271854101
H           -3.42944758930662        4.29759727572686       -1.40266572286554
H           -1.82603342437679        6.18956377238317       -1.21374709828314
H            2.57062379298102        5.05904022732006        1.65360936691827
H            3.73869889288420        3.05399012673660        0.83454252409034
H            3.39916173029820        2.27072844385925       -3.73902801562621
H            3.40872103068745       -0.06690172486819       -4.42840934855669
H            3.52814878092401        1.08261376788519        0.42676364967655
H            0.63217448595410       -0.98040509704541       -0.10959819200773
H           -0.69049926704234       -0.71263660541569        1.97150048099930
H            0.31176764866865       -1.15925966173085        4.15305577637413
H            2.68935642471568       -1.81445601477170        4.33937383774281
H            5.21601078490674       -2.37534564697635        3.97627917745181
H            7.51042232190853       -2.70847664773360        3.12575476911046
H            7.98963461013046       -2.55310976062341        0.72634142155495
H            6.17858117324794       -2.07199196979184       -0.89097130641825
H            3.04722831139526       -4.51959087768021        0.05390361686637
H            2.79170157551079       -6.01736741116774       -1.90554242728050
H            2.82565905322099       -5.11535593391454       -4.18644771510757
H            3.08689020891979       -2.69287620464216       -4.58439053032806
H            2.22227139312868        3.85748913985619       -3.12669273957896
H            1.08844702377972        5.85193546042509       -2.25108792327671

 projected vibrational frequencies (cm⁻¹)
eigval :       -0.00    -0.00    -0.00    -0.00     0.00     0.00
eigval :        6.95    17.15    19.80    21.55    22.43    29.29
eigval :       38.53    39.06    42.58    49.07    53.83    56.73
eigval :       58.31    66.25    71.38    78.77    83.83    88.13
eigval :      106.83   111.77   115.85   122.87   129.25   138.48
eigval :      142.98   148.39   155.32   158.01   160.22   171.63
eigval :      190.46   208.87   221.94   226.96   230.81   234.04
eigval :      235.77   238.05   259.00   270.79   288.29   297.31
eigval :      302.47   314.43   330.20   332.98   343.17   351.49
eigval :      362.00   366.76   369.69   382.35   386.41   389.88
eigval :      391.93   409.54   410.71   414.90   415.37   416.84
eigval :      420.70   427.06   443.93   451.70   456.68   463.81
eigval :      470.01   474.43   475.44   483.76   497.92   502.42
eigval :      506.48   517.08   520.17   525.52   531.98   539.17
eigval :      540.11   545.42   571.61   583.72   588.28   590.70
eigval :      594.61   597.63   600.99   604.40   607.79   617.84
eigval :      628.55   631.78   639.59   655.18   664.25   681.05
eigval :      685.19   686.83   687.95   690.45   696.10   704.53
eigval :      708.70   715.83   728.47   731.02   739.96   748.07
eigval :      752.73   754.69   765.51   768.30   775.98   776.65
eigval :      785.62   786.41   787.06   790.08   802.53   807.24
eigval :      809.55   823.32   837.10   846.53   872.30   878.61
eigval :      879.20   879.38   879.75   882.77   885.94   892.27
eigval :      895.57   900.31   901.43   902.82   905.62   907.43
eigval :      909.14   910.90   911.51   912.22   912.38   915.38
eigval :      915.90   916.25   917.38   918.80   927.28   928.00
eigval :      928.07   928.20   930.01   934.48   942.92   955.67
eigval :      972.70   993.16  1005.06  1008.32  1008.68  1009.81
eigval :     1052.33  1061.89  1071.45  1071.97  1073.69  1074.53
eigval :     1076.96  1078.26  1079.76  1080.51  1098.47  1115.69
eigval :     1121.79  1124.78  1129.50  1133.46  1137.91  1143.43
eigval :     1144.00  1154.90  1158.03  1162.06  1169.80  1176.78
eigval :     1177.28  1177.70  1180.54  1181.42  1182.82  1184.24
eigval :     1197.34  1198.99  1207.83  1209.21  1211.37  1224.33
eigval :     1225.34  1225.96  1239.23  1243.11  1247.42  1248.35
eigval :     1253.06  1255.35  1256.88  1261.31  1262.28  1272.05
eigval :     1277.64  1285.35  1285.60  1300.91  1303.39  1322.24
eigval :     1326.13  1326.89  1327.52  1327.90  1332.72  1339.71
eigval :     1361.27  1361.67  1365.72  1366.91  1383.05  1389.87
eigval :     1396.67  1404.03  1421.48  1426.51  1427.50  1427.93
eigval :     1429.56  1431.21  1434.78  1446.55  1459.84  1461.55
eigval :     1461.97  1462.51  1466.52  1470.44  1472.14  1481.70
eigval :     1501.89  1525.97  1559.13  1565.43  1567.87  1569.07
eigval :     1575.09  1583.18  1584.66  1592.49  1593.61  1594.84
eigval :     1596.18  1599.60  1602.14  1602.51  1603.50  1604.38
eigval :     1629.45  3074.07  3074.96  3075.16  3075.40  3075.43
eigval :     3076.60  3076.92  3078.17  3078.33  3078.49  3078.58
eigval :     3078.77  3079.62  3080.57  3084.39  3084.48  3084.96
eigval :     3086.08  3086.49  3086.55  3088.18  3089.11  3090.54
eigval :     3091.17  3091.98  3093.25  3093.48  3094.22  3094.67
eigval :     3096.94  3097.57  3098.70  3100.80  3101.50  3103.16
eigval :     3103.79  3108.78  3110.20

   temp. (K)  partition function   enthalpy   heat capacity  entropy
                                   cal/mol     cal/K/mol   cal/K/mol   J/K/mol
 298.15  VIB  0.891E+23            30215.792    192.816    187.089
         ROT  0.145E+09              888.752      2.981     40.326
         INT  0.129E+32            31104.544    195.797    227.415
         TR   0.239E+29             1481.254      4.968     46.066
         TOT                       32585.7979   200.7647   273.4808  1144.2437

       T/K    H(0)-H(T)+PV         H(T)/Eh          T*S/Eh         G(T)/Eh
   ------------------------------------------------------------------------
    298.15    0.519288E-01    0.829682E+00    0.129940E+00    0.699743E+00
   ------------------------------------------------------------------------

         :::::::::::::::::::::::::::::::::::::::::::::::::::::
         ::                  THERMODYNAMIC                  ::
         :::::::::::::::::::::::::::::::::::::::::::::::::::::
         :: total free energy        -162.761109817516 Eh   ::
         ::.................................................::
         :: total energy             -163.460852332736 Eh   ::
         :: zero point energy           0.777753302191 Eh   ::
         :: G(RRHO) w/o ZPVE           -0.078010786970 Eh   ::
         :: G(RRHO) contrib.            0.699742515220 Eh   ::
         :::::::::::::::::::::::::::::::::::::::::::::::::::::

           -------------------------------------------------
          | TOTAL ENERGY             -163.460852332736 Eh   |
          | TOTAL ENTHALPY           -162.631170256157 Eh   |
          | TOTAL FREE ENERGY        -162.761109817516 Eh   |
          | GRADIENT NORM               0.000064665978 Eh/α |
           -------------------------------------------------

 * finished run on 2025/07/21 at 02:28:59.425
