   * xtb version 6.7.1 (edcfbbe) compiled by 'albert@albert-system' on 2024-07-22

   ID    Z sym.   atoms
    1    8 O      1, 3
    2   16 S      2
    3    6 C      4-65
    4    1 H      66-103

          program call               : xtb data2507/gas/SF-DPSO/SF-DPSO.xyz --gfn 2 --ohess vtight --parallel 40 --molden --ceasefiles --namespace data2507/gas/SF-DPSO/SF-DPSO_gas_S0_preOpt
          :  Hamiltonian                  GFN2-xTB          :
 * total energy  :  -163.5331122 Eh     change       -0.1122146E-08 Eh
 * total energy  :  -163.5450955 Eh     change       -0.1198334E-01 Eh
 * total energy  :  -163.5474713 Eh     change       -0.2375754E-02 Eh
 * total energy  :  -163.5480891 Eh     change       -0.6178694E-03 Eh
 * total energy  :  -163.5484238 Eh     change       -0.3346436E-03 Eh
 * total energy  :  -163.5485634 Eh     change       -0.1395803E-03 Eh
 * total energy  :  -163.5487319 Eh     change       -0.1685287E-03 Eh
 * total energy  :  -163.5488824 Eh     change       -0.1504896E-03 Eh
 * total energy  :  -163.5490249 Eh     change       -0.1425651E-03 Eh
 * total energy  :  -163.5491435 Eh     change       -0.1185177E-03 Eh
 * total energy  :  -163.5494305 Eh     change       -0.2535895E-05 Eh
 * total energy  :  -163.5494333 Eh     change       -0.2737115E-05 Eh
 * total energy  :  -163.5494362 Eh     change       -0.2929051E-05 Eh
 * total energy  :  -163.5494389 Eh     change       -0.2698807E-05 Eh
 * total energy  :  -163.5494407 Eh     change       -0.1856553E-05 Eh
 * total energy  :  -163.5494418 Eh     change       -0.1016018E-05 Eh
 * total energy  :  -163.5494424 Eh     change       -0.6457049E-06 Eh
 * total energy  :  -163.5494431 Eh     change       -0.7479834E-06 Eh
 * total energy  :  -163.5494432 Eh     change       -0.7377992E-08 Eh
   *** GEOMETRY OPTIMIZATION CONVERGED AFTER 44 ITERATIONS ***

 final structure:
================
103
 xtb: 6.7.1 (edcfbbe)
O            0.10707525629963        3.47819225277915        3.67501853820139
S            0.02243487064430        3.17065446681731        2.27083211181987
O           -0.00212883634362        4.26031937066936        1.33025626047151
C           -1.42232745420111        2.13971365274848        2.00352999324396
C           -1.98976574750042        1.47176304780017        3.07137350986355
C           -3.08730189904992        0.65922957227920        2.85823096050837
C           -3.62477358370201        0.51705160391165        1.57867566655001
C           -4.80449276533967       -0.33104846337734        1.35761127356639
C           -4.90586593123641       -1.57467735884720        1.98263309107563
C           -6.00749957268757       -2.38990729877007        1.79477571379162
C           -7.03278941123650       -1.94759516173996        0.97457413756543
C           -6.93717877828833       -0.69593580569406        0.34774412173539
C           -5.83679638476130        0.10883390108235        0.52525865131683
C           -8.16881971834970       -0.42132875128515       -0.47917873985200
C           -8.89817664936311        0.83479238675966       -0.06508582065224
C           -9.41470356173265        1.15355065962128        1.17125966829409
C          -10.05549322853946        2.37593120772612        1.32354916817307
C          -10.17275136924289        3.25415724649586        0.25675859883063
C           -9.65359695858909        2.93610435256294       -0.98807195566072
C           -9.01263133117320        1.71866391380386       -1.14751744168523
C           -8.37735882942652        1.11223954670437       -2.30706627003123
C           -8.22033751119293        1.56719698737452       -3.60581426065095
C           -7.55946287504275        0.75842536818190       -4.51664373780798
C           -7.06335483890991       -0.48076647947777       -4.14068257868821
C           -7.21715043118470       -0.94373902845891       -2.84051916844235
C           -7.87431375943077       -0.14232918753329       -1.93327298962665
C           -8.97597077735925       -1.67759017397770       -0.25798001148612
C          -10.21150393930148       -2.00136077067020       -0.77360205512380
C          -10.77220655979193       -3.22331690027390       -0.42670115441375
C          -10.10514103888674       -4.09735569431139        0.41878119291082
C           -8.86221223755661       -3.77499854610683        0.93915449920179
C           -8.29633067335579       -2.55754345645392        0.59730119100450
C           -3.03572188376222        1.20289403024779        0.51564217421506
C           -1.93214908020142        2.00806556617784        0.72611387041260
C            1.38255130929647        2.07885043577805        1.84371610486853
C            2.08180081750423        2.27554588752606        0.66921835301929
C            3.12960913838399        1.43097556784287        0.35244655988288
C            3.47393028274708        0.38083785835510        1.20365860826445
C            4.59814900695467       -0.50702268881015        0.87585547899755
C            4.49515270532108       -1.88359419099799        1.08094857001219
C            5.54196140688169       -2.73835026829930        0.78558174506522
C            6.71839828737980       -2.20480654312590        0.28457859336755
C            6.82714153433240       -0.82116030466653        0.07904269289613
C            5.78310451386086        0.02681237319158        0.36298260415069
C            8.19196756709323       -0.47020478632137       -0.45979508033261
C            8.94432527901142        0.50843775083027        0.41021064677786
C            9.28730602303569        0.38148297757427        1.73807274256484
C            9.98811571716934        1.41771160573387        2.34069502468800
C           10.33421533279773        2.55273414506816        1.62306873152799
C            9.99008979455846        2.68322023683955        0.28709046862464
C            9.29082399851518        1.65372025908610       -0.32081068771526
C            8.79755033515915        1.49961665998731       -1.68052386057168
C            8.87745055434232        2.33508010503246       -2.78235603720492
C            8.30557249408599        1.91812875195631       -3.97381643893311
C            7.66522111270742        0.69155137233594       -4.06619080259693
C            7.58100198968155       -0.15137810390074       -2.96584453712465
C            8.14914294981225        0.26021564428255       -1.78052089369265
C            8.84936210988643       -1.82632135560975       -0.54271821139301
C           10.12134009823984       -2.13452981944262       -0.97205159954942
C           10.51849198234128       -3.46494775042872       -0.95901021239401
C            9.65580640609794       -4.46029611043758       -0.52449830856069
C            8.37558186531778       -4.15398852444578       -0.09229125537897
C            7.97223933481521       -2.82865887238007       -0.10233799943150
C            2.74547022399582        0.19492699950243        2.37952166503539
C            1.70363824974611        1.04366497017244        2.70111396442754
H           -1.57669562304683        1.62020202883925        4.05688445412069
H           -3.55156731061485        0.15134061596110        3.69035689116329
H           -4.09347262891734       -1.91411563463479        2.60855475690131
H           -6.06500664980944       -3.35249096777906        2.28071664803910
H           -5.78151424058226        1.07821170514569        0.05191592274083
H           -9.32338883402553        0.46833701611273        2.00160442706111
H          -10.46764544403392        2.64576293652077        2.28463976262269
H          -10.67588034395482        4.19939154291557        0.39930614038131
H           -9.74736546694674        3.62366201709167       -1.81546019781750
H           -8.60484422783957        2.53133752057148       -3.90356833232057
H           -7.42877951051874        1.09695642979185       -5.53418405377973
H           -6.55197342574046       -1.09391541108265       -4.86810444576722
H           -6.83207810516396       -1.90970593957335       -2.54705276829627
H          -10.73092579785353       -1.31991934891591       -1.43152589469225
H          -11.74034217230280       -3.49637750739973       -0.81980803064348
H          -10.56212661268435       -5.04217790101806        0.67463161949045
H           -8.34648346491113       -4.45853216081170        1.59721313525022
H           -3.43959782594626        1.08960452878185       -0.47948211370794
H           -1.46868746943301        2.55375418917160       -0.08081533312522
H            1.80178960095237        3.09896611655310        0.03087732480994
H            3.67901925552743        1.57394549934548       -0.56618555480935
H            3.56755248358767       -2.28920893756780        1.45783595358386
H            5.44126772812230       -3.80170031133452        0.94434888512363
H            5.88497737033359        1.09242532821119        0.21866148952414
H            9.01746707342414       -0.50337217575007        2.29624573665313
H           10.26687425523022        1.33858452098385        3.38109078474165
H           10.87952847093226        3.34589605734937        2.11343605522438
H           10.26172855884288        3.56927971984532       -0.26716668614663
H            9.37493231114063        3.29117488269160       -2.71562568037172
H            8.35912251000603        2.55669350099079       -4.84353231591725
H            7.22727404751392        0.38759031449181       -5.00554196985944
H            7.08311969960350       -1.10768371164398       -3.03711198377065
H           10.79299927385881       -1.35881654033133       -1.30992829299507
H           11.51196800563386       -3.72796566634987       -1.29099742212497
H            9.98788099596295       -5.48826626721373       -0.52318078261332
H            7.70727993011449       -4.93222080260473        0.24531595656052
H            3.01889966506834       -0.60226017200092        3.05452117718912
H            1.14897898723778        0.92907364563625        3.61913889961700

          :  Hamiltonian                  GFN2-xTB          :
         :: gradient norm              0.000063973705 Eh/a0 ::
         :: HOMO-LUMO gap              2.866524092715 eV    ::
         :: SCC energy              -166.598747379069 Eh    ::
         :: -> dispersion             -0.153360326092 Eh    ::
         :: repulsion energy           3.049304225423 Eh    ::

    * Orbital Energies and Occupations

         #    Occupation            Energy/Eh            Energy/eV
      -------------------------------------------------------------
         1        2.0000           -0.7610803             -20.7100
       ...           ...                  ...                  ...
       140        2.0000           -0.4149971             -11.2926
       141        2.0000           -0.4142424             -11.2721
       142        2.0000           -0.4049425             -11.0190
       143        2.0000           -0.4046795             -11.0119
       144        2.0000           -0.4003027             -10.8928
       145        2.0000           -0.4001057             -10.8874
       146        2.0000           -0.3984922             -10.8435
       147        2.0000           -0.3981331             -10.8338
       148        2.0000           -0.3958973             -10.7729
       149        2.0000           -0.3858926             -10.5007
       150        2.0000           -0.3853465             -10.4858
       151        2.0000           -0.3808053             -10.3622
       152        2.0000           -0.3803959             -10.3511 (HOMO)
       153                         -0.2750532              -7.4846 (LUMO)
       154                         -0.2685860              -7.3086
       155                         -0.2549236              -6.9368
       156                         -0.2546482              -6.9293
       157                         -0.2459297              -6.6921
       158                         -0.2422218              -6.5912
       159                         -0.2411752              -6.5627
       160                         -0.2368688              -6.4455
       161                         -0.2320917              -6.3155
       162                         -0.2318542              -6.3091
       163                         -0.2290768              -6.2335
       ...                                ...                  ...
       303                          1.2094021              32.9095
      -------------------------------------------------------------
                  HL-Gap            0.1053428 Eh            2.8665 eV

     #   Z          covCN         q      C6AA      α(0)
     1   8 O        0.860    -0.541    24.715     6.665
     2  16 S        3.815     0.936   108.511    17.532
     3   8 O        0.860    -0.541    24.701     6.663
     4   6 C        2.971    -0.076    29.906     8.970
     5   6 C        2.954    -0.027    28.680     8.784
     6   6 C        2.926    -0.031    28.765     8.795
     7   6 C        2.977     0.018    27.599     8.617
     8   6 C        2.980     0.007    27.858     8.658
     9   6 C        2.926    -0.037    28.921     8.819
    10   6 C        2.913    -0.034    28.845     8.807
    11   6 C        3.037     0.002    27.955     8.672
    12   6 C        3.054     0.008    27.792     8.646
    13   6 C        2.918    -0.037    28.913     8.818
    14   6 C        3.979     0.009    20.351     6.409
    15   6 C        3.057     0.006    27.831     8.652
    16   6 C        2.914    -0.033    28.815     8.802
    17   6 C        2.923    -0.031    28.772     8.796
    18   6 C        2.921    -0.032    28.791     8.799
    19   6 C        2.915    -0.033    28.827     8.804
    20   6 C        3.036     0.001    27.965     8.674
    21   6 C        3.036     0.001    27.958     8.673
    22   6 C        2.915    -0.033    28.833     8.805
    23   6 C        2.921    -0.032    28.801     8.801
    24   6 C        2.923    -0.032    28.791     8.799
    25   6 C        2.914    -0.033    28.827     8.804
    26   6 C        3.056     0.006    27.838     8.653
    27   6 C        3.058     0.007    27.797     8.646
    28   6 C        2.914    -0.032    28.798     8.800
    29   6 C        2.923    -0.030    28.760     8.795
    30   6 C        2.921    -0.032    28.796     8.800
    31   6 C        2.914    -0.033    28.827     8.804
    32   6 C        3.036     0.001    27.963     8.674
    33   6 C        2.926    -0.030    28.744     8.792
    34   6 C        2.955    -0.028    28.693     8.786
    35   6 C        2.971    -0.076    29.906     8.970
    36   6 C        2.952    -0.026    28.660     8.781
    37   6 C        2.926    -0.030    28.744     8.792
    38   6 C        2.977     0.018    27.600     8.618
    39   6 C        2.980     0.007    27.856     8.658
    40   6 C        2.926    -0.037    28.921     8.819
    41   6 C        2.913    -0.034    28.845     8.807
    42   6 C        3.037     0.002    27.955     8.672
    43   6 C        3.055     0.008    27.790     8.645
    44   6 C        2.919    -0.037    28.913     8.818
    45   6 C        3.979     0.009    20.351     6.409
    46   6 C        3.057     0.006    27.833     8.652
    47   6 C        2.914    -0.033    28.815     8.802
    48   6 C        2.923    -0.031    28.773     8.796
    49   6 C        2.921    -0.032    28.791     8.799
    50   6 C        2.915    -0.033    28.828     8.804
    51   6 C        3.036     0.001    27.965     8.674
    52   6 C        3.036     0.001    27.959     8.673
    53   6 C        2.915    -0.033    28.832     8.805
    54   6 C        2.921    -0.032    28.799     8.800
    55   6 C        2.923    -0.032    28.789     8.799
    56   6 C        2.914    -0.033    28.827     8.804
    57   6 C        3.056     0.006    27.838     8.653
    58   6 C        3.058     0.007    27.797     8.646
    59   6 C        2.914    -0.032    28.797     8.800
    60   6 C        2.923    -0.030    28.760     8.795
    61   6 C        2.921    -0.032    28.796     8.800
    62   6 C        2.914    -0.033    28.827     8.804
    63   6 C        3.036     0.001    27.963     8.674
    64   6 C        2.926    -0.030    28.761     8.795
    65   6 C        2.957    -0.028    28.707     8.788
    66   1 H        0.926     0.060     2.200     2.320
    67   1 H        0.926     0.049     2.327     2.386
    68   1 H        0.926     0.034     2.529     2.487
    69   1 H        0.926     0.036     2.509     2.477
    70   1 H        0.926     0.033     2.537     2.491
    71   1 H        0.926     0.028     2.616     2.529
    72   1 H        0.926     0.032     2.551     2.498
    73   1 H        0.926     0.033     2.549     2.497
    74   1 H        0.926     0.033     2.543     2.494
    75   1 H        0.926     0.033     2.544     2.494
    76   1 H        0.926     0.032     2.559     2.502
    77   1 H        0.926     0.031     2.567     2.506
    78   1 H        0.926     0.027     2.625     2.533
    79   1 H        0.926     0.030     2.588     2.516
    80   1 H        0.926     0.033     2.546     2.495
    81   1 H        0.926     0.032     2.553     2.499
    82   1 H        0.926     0.032     2.552     2.498
    83   1 H        0.926     0.049     2.338     2.391
    84   1 H        0.926     0.055     2.263     2.352
    85   1 H        0.926     0.062     2.172     2.305
    86   1 H        0.926     0.049     2.327     2.386
    87   1 H        0.926     0.034     2.534     2.489
    88   1 H        0.926     0.035     2.512     2.478
    89   1 H        0.926     0.034     2.534     2.489
    90   1 H        0.926     0.028     2.618     2.530
    91   1 H        0.926     0.032     2.553     2.499
    92   1 H        0.926     0.033     2.550     2.497
    93   1 H        0.926     0.033     2.543     2.494
    94   1 H        0.926     0.033     2.543     2.494
    95   1 H        0.926     0.032     2.557     2.500
    96   1 H        0.926     0.032     2.565     2.504
    97   1 H        0.926     0.027     2.624     2.533
    98   1 H        0.926     0.030     2.587     2.515
    99   1 H        0.926     0.033     2.546     2.495
   100   1 H        0.926     0.032     2.554     2.499
   101   1 H        0.926     0.032     2.554     2.499
   102   1 H        0.926     0.049     2.337     2.391
   103   1 H        0.926     0.050     2.315     2.379

molecular dipole:
                 x           y           z       tot (Debye)
 q only:       -0.083      -2.457      -0.978
   full:       -0.089      -2.420      -0.943       6.606

 projected vibrational frequencies (cm⁻¹)
eigval :       -0.00    -0.00    -0.00    -0.00     0.00     0.00
eigval :       -0.96     3.81     5.54    15.04    18.23    21.02
eigval :       21.84    31.97    35.19    38.37    43.99    45.60
eigval :       49.38    57.45    61.59    73.34    80.50    82.39
eigval :       84.77   113.16   118.23   124.40   126.31   131.64
eigval :      133.94   147.18   151.19   157.77   166.01   170.94
eigval :      186.38   211.53   224.04   232.66   233.36   233.41
eigval :      234.58   243.99   262.72   282.33   290.94   306.98
eigval :      313.96   332.78   338.42   343.70   346.85   357.21
eigval :      365.91   368.74   371.02   386.58   387.35   395.89
eigval :      401.39   411.54   414.11   414.28   414.90   417.72
eigval :      421.65   449.08   453.38   465.64   470.12   471.95
eigval :      473.43   481.33   485.05   496.29   499.44   506.27
eigval :      506.33   525.05   525.94   536.27   538.62   538.85
eigval :      550.31   572.31   572.72   590.45   590.62   597.50
eigval :      598.61   604.63   604.76   616.01   622.52   628.75
eigval :      628.77   639.59   643.93   683.50   684.08   687.20
eigval :      687.98   690.38   691.22   702.68   705.18   707.68
eigval :      708.46   727.19   734.37   740.06   740.07   754.29
eigval :      754.37   767.75   767.83   776.15   776.23   786.33
eigval :      786.35   800.94   805.54   806.59   811.70   836.50
eigval :      837.65   873.58   876.06   878.99   878.99   879.33
eigval :      879.36   880.07   880.08   885.97   886.62   900.49
eigval :      900.57   908.15   908.34   910.63   910.66   911.07
eigval :      911.95   913.27   915.50   917.95   918.82   919.82
eigval :      920.18   927.34   927.45   927.47   928.11   928.18
eigval :      928.47   928.48   928.86   942.52   943.37   992.98
eigval :      997.45  1008.87  1008.87  1011.21  1011.40  1071.81
eigval :     1072.05  1073.84  1073.85  1076.78  1076.81  1077.70
eigval :     1077.86  1079.82  1080.00  1089.92  1117.66  1118.28
eigval :     1123.59  1132.60  1134.37  1134.48  1143.65  1143.67
eigval :     1154.67  1154.81  1171.49  1171.75  1177.74  1177.95
eigval :     1178.08  1178.08  1181.45  1181.63  1183.69  1186.56
eigval :     1199.06  1199.13  1209.61  1209.65  1224.48  1224.57
eigval :     1227.31  1227.61  1237.51  1246.77  1247.11  1253.13
eigval :     1257.70  1260.72  1261.07  1261.33  1261.47  1277.90
eigval :     1278.11  1285.14  1285.30  1304.28  1304.67  1322.33
eigval :     1323.20  1326.81  1326.89  1327.13  1327.14  1362.20
eigval :     1362.43  1366.79  1366.81  1389.97  1391.39  1422.51
eigval :     1422.64  1429.00  1429.00  1431.78  1432.00  1432.26
eigval :     1432.41  1448.19  1448.28  1462.22  1462.24  1464.06
eigval :     1464.23  1472.26  1472.39  1484.66  1484.83  1572.26
eigval :     1572.63  1576.83  1577.05  1580.84  1582.05  1585.60
eigval :     1585.60  1593.73  1593.77  1596.51  1596.53  1598.52
eigval :     1598.55  1604.10  1604.13  1604.57  1604.57  1604.88
eigval :     1604.94  3073.55  3073.68  3074.57  3074.64  3074.67
eigval :     3074.73  3077.32  3077.33  3077.38  3077.52  3078.35
eigval :     3078.37  3079.04  3079.11  3083.03  3083.31  3084.81
eigval :     3084.88  3085.71  3085.82  3086.72  3086.84  3086.85
eigval :     3086.93  3087.20  3087.45  3089.90  3090.17  3092.57
eigval :     3092.67  3093.57  3093.63  3094.33  3094.37  3102.38
eigval :     3103.15  3104.24  3104.51

   temp. (K)  partition function   enthalpy   heat capacity  entropy
                                   cal/mol     cal/K/mol   cal/K/mol   J/K/mol
 298.15  VIB  0.709E+24            29547.550    187.960    184.700
         ROT  0.312E+09              888.752      2.981     41.851
         INT  0.221E+33            30436.302    190.941    226.551
         TR   0.239E+29             1481.254      4.968     46.066
         TOT                       31917.5560   195.9094   272.6164  1140.6271

       T/K    H(0)-H(T)+PV         H(T)/Eh          T*S/Eh         G(T)/Eh
   ------------------------------------------------------------------------
    298.15    0.508639E-01    0.832114E+00    0.129529E+00    0.702585E+00
   ------------------------------------------------------------------------

         :::::::::::::::::::::::::::::::::::::::::::::::::::::
         ::                  THERMODYNAMIC                  ::
         :::::::::::::::::::::::::::::::::::::::::::::::::::::
         :: total free energy        -162.846857893716 Eh   ::
         ::.................................................::
         :: total energy             -163.549443153643 Eh   ::
         :: zero point energy           0.781250260157 Eh   ::
         :: G(RRHO) w/o ZPVE           -0.078665000230 Eh   ::
         :: G(RRHO) contrib.            0.702585259928 Eh   ::
         :::::::::::::::::::::::::::::::::::::::::::::::::::::

           -------------------------------------------------
          | TOTAL ENERGY             -163.549443153643 Eh   |
          | TOTAL ENTHALPY           -162.717329030455 Eh   |
          | TOTAL FREE ENERGY        -162.846857893716 Eh   |
          | GRADIENT NORM               0.000063983930 Eh/α |
          | HOMO-LUMO GAP               2.866522887147 eV   |
           -------------------------------------------------

 * finished run on 2025/07/21 at 01:53:28.021
