   * xtb version 6.7.1 (edcfbbe) compiled by 'albert@albert-system' on 2024-07-22

   ID    Z sym.   atoms
    1    6 C      1-26, 28-39, 41-46
    2   16 S      27, 40
    3    1 H      47-72

          program call               : xtb data2507/gas/[2,1-b]IF/[2,1-b]IF_gas_S0_finalOpt.xtbopt.xyz --gfn 2 --spinpol --tblite --uhf 2 --ohess vtight --parallel 40 --molden --ceasefiles --namespace data2507/gas/[2,1-b]IF/[2,1-b]IF_gas_T1_preOpt
 * total energy  :  -113.8849636 Eh     change       -0.3170626E-08 Eh
 * total energy  :  -113.8937254 Eh     change       -0.8761825E-02 Eh
 * total energy  :  -113.8965900 Eh     change       -0.2864586E-02 Eh
 * total energy  :  -113.8967116 Eh     change       -0.1215946E-03 Eh
 * total energy  :  -113.8967493 Eh     change       -0.3771859E-04 Eh
 * total energy  :  -113.8967553 Eh     change       -0.6006530E-05 Eh
 * total energy  :  -113.8967587 Eh     change       -0.3360983E-05 Eh
 * total energy  :  -113.8967611 Eh     change       -0.2401064E-05 Eh
 * total energy  :  -113.8967630 Eh     change       -0.1914488E-05 Eh
 * total energy  :  -113.8967646 Eh     change       -0.1626870E-05 Eh
 * total energy  :  -113.8967700 Eh     change       -0.9411058E-06 Eh
 * total energy  :  -113.8967707 Eh     change       -0.6800575E-06 Eh
 * total energy  :  -113.8967713 Eh     change       -0.6349947E-06 Eh
 * total energy  :  -113.8967719 Eh     change       -0.5892987E-06 Eh
 * total energy  :  -113.8967726 Eh     change       -0.6273509E-06 Eh
 * total energy  :  -113.8967732 Eh     change       -0.6450937E-06 Eh
 * total energy  :  -113.8967739 Eh     change       -0.7057763E-06 Eh
 * total energy  :  -113.8967747 Eh     change       -0.8129804E-06 Eh
 * total energy  :  -113.8967747 Eh     change       -0.6476711E-08 Eh
   *** GEOMETRY OPTIMIZATION CONVERGED AFTER 22 ITERATIONS ***

 final structure:
================
72
 xtb: 6.7.1 (edcfbbe)
C           -2.22800411317828       -0.01806757418813       -3.18859861784365
C           -3.12950904301062       -0.01248650584541       -2.20127758256373
C           -2.77622084772883       -0.00455786217113       -0.73194761945729
C           -1.30324152684846       -0.00204473363139       -0.48147305212615
C           -0.40769946996405       -0.00819235986575       -1.49043516879708
C           -0.82775395589375       -0.01666809703786       -2.89798902079467
C            0.28000171565009       -0.02192946333023       -3.68099535138761
C            1.45294078957064       -0.01747696345036       -2.82766795033499
C            1.01292444690641       -0.00883341329945       -1.49037622232797
C            1.91236394494136       -0.00206529445140       -0.28646334813931
C            3.33608705580336       -0.00798371000566       -0.74898456824501
C            4.51145713641100       -0.00603755399416        0.06278292371858
C            4.69774144296332        0.00119547307564        1.43316327030413
C            6.00070616196465        0.00071786428227        1.92766065407515
C            7.09113700200824       -0.00675500605889        1.07348086881221
C            6.92181170170676       -0.01400778426608       -0.31007226129660
C            5.63616314157190       -0.01369680185615       -0.82095275944125
C            5.14033707726110       -0.02013795844247       -2.15930300668327
C            3.73552941479769       -0.01674963135644       -2.11270839223801
C            2.79654382711770       -0.02130404809495       -3.16773632854418
C            1.64792851809347       -1.28871401814403        0.47896766154366
C            1.91418183707940       -2.47652440105367       -0.19824138415784
C            1.66390649312676       -3.70846152759157        0.37198577767146
C            1.12920530330576       -3.77859741096713        1.64917775885554
C            0.86150507894135       -2.61518712177186        2.33785793323729
C            1.12180545507325       -1.37448306986530        1.75956591799115
S            0.72838632863997        0.02199591999262        2.76413122328094
C            1.12684225300309        1.40244616897898        1.73962476556940
C            0.87110163323454        2.65225401725544        2.30009478070869
C            1.14334867709840        3.80471176859487        1.59498202894685
C            1.67807202653029        3.71434982198066        0.31906912806047
C            1.92371230478999        2.47347709456547       -0.23350749804536
C            1.65280088777600        1.29644735151641        0.46048260726304
C           -3.38278532313314       -1.25877076935081       -0.11449673481156
C           -2.58518141760925       -2.36903502011669        0.13868399176181
C           -3.12422567633356       -3.53847551000430        0.64214593868976
C           -4.48281817251176       -3.62229062774414        0.89836974839197
C           -5.29095151812429       -2.52960987806796        0.65662922168404
C           -4.74315467610710       -1.35561491529469        0.15446931382812
S           -5.84883461243398       -0.00478434832068       -0.12825475917549
C           -4.74594327877942        1.35106782068425        0.14106861326569
C           -5.29613376744477        2.52883236880424        0.63163901009274
C           -4.49023715055243        3.62552181251841        0.86244204008032
C           -3.13150176672744        3.54202188791786        0.60685579070286
C           -2.59007202718276        2.36876385798227        0.11496418723547
C           -3.38539635130082        1.25438227805049       -0.12704183048658
H           -2.54341868423271       -0.02380794313562       -4.22274736259943
H           -4.18741672897265       -0.01365834428724       -2.41985783842244
H           -1.00533360611331        0.00420577257502        0.55637443580331
H            0.31637178040582       -0.02857001458737       -4.75521480837700
H            3.85757937046507        0.00701508216580        2.11133873054303
H            6.16126033262043        0.00622339647215        2.99565142063280
H            8.08959964420620       -0.00698702927658        1.48537149125628
H            7.77907853466495       -0.01979606449343       -0.96748938647855
H            5.74109098271544       -0.02663229029415       -3.05038321245756
H            3.12369040216294       -0.02802235528431       -4.19578279366826
H            2.32015156880923       -2.41944284587082       -1.19764708472212
H            1.88065565975213       -4.61066730565777       -0.17936151703614
H            0.92225625021382       -4.73448267890425        2.10590660599959
H            0.44381198106113       -2.64469895283974        3.33322270321596
H            0.45334221224600        2.69752009048372        3.29484219991879
H            0.93992923961384        4.76779885388345        2.03796483885744
H            1.89843097897328        4.60778280600122       -0.24498785583843
H            2.32966174634498        2.40067481610260       -1.23189014090426
H           -1.52756059653292       -2.32095221531858       -0.07678182206403
H           -2.47988775957539       -4.38464114817127        0.82664094591802
H           -4.91198829248743       -4.53332539579199        1.28695128129237
H           -6.35202185054179       -2.57029512608948        0.85083262068485
H           -6.35726681265376        2.56923691776252        0.82556365504118
H           -4.92125397433412        4.53946505827034        1.24205011140544
H           -2.48895686730073        4.39136053110051        0.78283680227879
H           -1.53238655652892        2.32068283032020       -0.10025213235423

 projected vibrational frequencies (cm⁻¹)
eigval :       -0.00    -0.00    -0.00    -0.00    -0.00     0.00
eigval :       11.16    17.73    22.96    28.11    33.89    36.78
eigval :       41.79    58.79    59.95    77.02    94.61   102.43
eigval :      110.42   111.93   137.78   141.58   151.87   165.70
eigval :      188.36   197.14   207.32   231.76   244.02   245.98
eigval :      271.34   275.67   278.22   300.45   307.85   325.87
eigval :      333.18   348.51   349.56   352.40   362.68   366.38
eigval :      399.09   415.26   417.17   417.40   423.27   423.50
eigval :      436.88   445.33   450.62   469.78   471.64   486.95
eigval :      489.00   495.41   500.14   504.38   510.29   519.90
eigval :      531.23   565.34   581.16   589.02   592.00   613.32
eigval :      619.51   635.87   638.79   643.20   657.89   658.41
eigval :      669.76   677.32   680.98   682.81   690.23   701.21
eigval :      701.28   709.10   713.42   732.99   737.00   762.23
eigval :      771.36   775.05   777.75   778.06   785.33   792.77
eigval :      809.31   820.75   823.38   837.84   851.98   853.53
eigval :      876.72   876.77   879.66   880.55   881.93   894.20
eigval :      897.63   901.15   911.69   913.08   913.46   914.63
eigval :      915.32   919.46   923.25   923.41   925.68   926.70
eigval :      955.26   958.47  1011.70  1034.75  1037.45  1043.42
eigval :     1050.06  1068.46  1097.09  1097.24  1098.10  1099.40
eigval :     1100.42  1103.83  1122.70  1131.33  1145.74  1148.91
eigval :     1150.59  1157.84  1161.01  1162.79  1177.45  1177.48
eigval :     1179.00  1179.21  1180.24  1191.95  1194.82  1197.57
eigval :     1210.64  1211.41  1222.53  1224.45  1243.88  1248.49
eigval :     1252.52  1254.61  1255.39  1267.97  1272.77  1293.13
eigval :     1318.34  1322.32  1322.89  1326.86  1328.92  1350.17
eigval :     1361.08  1385.26  1389.00  1401.16  1408.11  1412.78
eigval :     1417.69  1441.17  1446.58  1450.37  1457.40  1457.90
eigval :     1460.31  1464.14  1489.51  1544.63  1565.99  1567.48
eigval :     1575.71  1578.12  1579.91  1580.22  1582.68  1587.93
eigval :     1589.33  1592.81  1608.27  1634.11  3062.94  3074.50
eigval :     3078.99  3079.15  3079.98  3081.60  3081.85  3084.05
eigval :     3084.67  3084.92  3085.02  3085.10  3087.51  3088.44
eigval :     3092.07  3092.39  3092.93  3092.99  3093.71  3095.34
eigval :     3099.66  3099.93  3100.48  3100.89  3134.09  3135.65

   temp. (K)  partition function   enthalpy   heat capacity  entropy
                                   cal/mol     cal/K/mol   cal/K/mol   J/K/mol
 298.15  VIB  0.139E+16            20592.955    134.461    125.152
         ROT  0.465E+08              888.752      2.981     38.067
         INT  0.645E+23            21481.707    137.442    163.219
         TR   0.149E+29             1481.254      4.968     45.130
         TOT                       22962.9614   142.4105   208.3496   871.7346

       T/K    H(0)-H(T)+PV         H(T)/Eh          T*S/Eh         G(T)/Eh
   ------------------------------------------------------------------------
    298.15    0.365938E-01    0.572746E+00    0.989936E-01    0.473753E+00
   ------------------------------------------------------------------------

         :::::::::::::::::::::::::::::::::::::::::::::::::::::
         ::                  THERMODYNAMIC                  ::
         :::::::::::::::::::::::::::::::::::::::::::::::::::::
         :: total free energy        -113.423021906042 Eh   ::
         ::.................................................::
         :: total energy             -113.896774722530 Eh   ::
         :: zero point energy           0.536152610545 Eh   ::
         :: G(RRHO) w/o ZPVE           -0.062399794057 Eh   ::
         :: G(RRHO) contrib.            0.473752816488 Eh   ::
         :::::::::::::::::::::::::::::::::::::::::::::::::::::

           -------------------------------------------------
          | TOTAL ENERGY             -113.896774722530 Eh   |
          | TOTAL ENTHALPY           -113.324028303774 Eh   |
          | TOTAL FREE ENERGY        -113.423021906042 Eh   |
          | GRADIENT NORM               0.000053882950 Eh/α |
           -------------------------------------------------

 * finished run on 2025/09/08 at 20:20:03.979
