   * xtb version 6.7.1 (edcfbbe) compiled by 'albert@albert-system' on 2024-07-22

   ID    Z sym.   atoms
    1    6 C      1-26, 28-39, 41-46
    2   16 S      27, 40
    3    1 H      47-72

          program call               : xtb data2507/gas/[2,1-b]IF/[2,1-b]IF.xyz --gfn 2 --ohess vtight --parallel 40 --molden --ceasefiles --namespace data2507/gas/[2,1-b]IF/[2,1-b]IF_gas_S0_preOpt
          :  Hamiltonian                  GFN2-xTB          :
 * total energy  :  -113.8840641 Eh     change       -0.1176119E-08 Eh
 * total energy  :  -113.9022134 Eh     change       -0.1814930E-01 Eh
 * total energy  :  -113.9079980 Eh     change       -0.5784574E-02 Eh
 * total energy  :  -113.9093187 Eh     change       -0.1320785E-02 Eh
 * total energy  :  -113.9102935 Eh     change       -0.9747468E-03 Eh
 * total energy  :  -113.9109017 Eh     change       -0.6081629E-03 Eh
 * total energy  :  -113.9114480 Eh     change       -0.5463092E-03 Eh
 * total energy  :  -113.9119399 Eh     change       -0.4919293E-03 Eh
 * total energy  :  -113.9122568 Eh     change       -0.3168850E-03 Eh
 * total energy  :  -113.9124036 Eh     change       -0.1468559E-03 Eh
 * total energy  :  -113.9135383 Eh     change       -0.6986823E-06 Eh
 * total energy  :  -113.9135389 Eh     change       -0.5574632E-06 Eh
 * total energy  :  -113.9135393 Eh     change       -0.4267813E-06 Eh
 * total energy  :  -113.9135396 Eh     change       -0.3208838E-06 Eh
 * total energy  :  -113.9135398 Eh     change       -0.2472378E-06 Eh
 * total energy  :  -113.9135400 Eh     change       -0.1721585E-06 Eh
 * total energy  :  -113.9135402 Eh     change       -0.2123603E-06 Eh
 * total energy  :  -113.9135404 Eh     change       -0.1749013E-06 Eh
 * total energy  :  -113.9135404 Eh     change       -0.1229921E-08 Eh
   *** GEOMETRY OPTIMIZATION CONVERGED AFTER 44 ITERATIONS ***

 final structure:
================
72
 xtb: 6.7.1 (edcfbbe)
C           -2.44750289450100       -0.00003289771471       -3.15237779567561
C           -3.35291032792288       -0.00002669926800       -2.16732978433900
C           -3.00108124250358       -0.00000929711103       -0.69862652130950
C           -1.53142002856355        0.00001482413294       -0.44322646843999
C           -0.63960838243267        0.00000366909763       -1.44391312613632
C           -1.04972097513666       -0.00002207417761       -2.85516531475827
C            0.06963347071381       -0.00003268591798       -3.62299899408565
C            1.22884913907702       -0.00001705668413       -2.74967601928183
C            0.79697215636354        0.00000517115263       -1.43537723600030
C            1.68866865024439        0.00001557969358       -0.23429988121398
C            3.12326124945292       -0.00000353813023       -0.66956955330544
C            4.26418531608631       -0.00000299802358        0.08602965224217
C            4.48391339691028        0.00001228483210        1.48872867542284
C            5.75675414910824        0.00001159912453        1.95551467848073
C            6.87532206797721        0.00000549662032        1.06950649429796
C            6.71946264596564       -0.00001036761969       -0.27915361144435
C            5.41164769008447       -0.00001527373336       -0.82554052778168
C            4.95412131467589       -0.00003609810883       -2.12163161358366
C            3.52696141785342       -0.00002113174612       -2.07697265986427
C            2.60509489021338       -0.00002644776857       -3.08630296118684
C            1.40558657190717       -1.29362430426486        0.51224007458860
C            1.70516481178828       -2.47698895129780       -0.15900100410664
C            1.45555393734703       -3.71257420759104        0.40260766111385
C            0.89428292033701       -3.79218875774523        1.66817208841398
C            0.59513772731909       -2.63372413476498        2.35122067435950
C            0.84658802704532       -1.38848596847386        1.77776705635452
S            0.39069572156539        0.00006941079182        2.76719288371310
C            0.84661459721112        1.38858888756969        1.77772885197441
C            0.59519730007982        2.63384784926612        2.35115197188579
C            0.89437417221062        3.79228764978796        1.66807548856775
C            1.45564237243939        3.71262737861930        0.40251280667915
C            1.70522052154993        2.47702191872586       -0.15906560650354
C            1.40561162694733        1.29368168324085        0.51220448557290
C           -3.60412142821401       -1.25616387064782       -0.08066640595497
C           -2.80491837904286       -2.36462058112484        0.17589331487390
C           -3.34467312858753       -3.53316546288136        0.68086242630447
C           -4.70403148922887       -3.61761893383804        0.93289867310629
C           -5.51285139216063       -2.52638032995667        0.68703853364419
C           -4.96504367266219       -1.35211077469413        0.18530925743646
S           -6.06855355181802       -0.00005800189788       -0.09876828772020
C           -4.96508923575238        1.35203508346874        0.18529454746278
C           -5.51293619084171        2.52629164464429        0.68701123657257
C           -4.70415293165460        3.61756080885426        0.93285672046406
C           -3.34479217909732        3.53315073329054        0.68081825089771
C           -2.80499825759091        2.36461812121791        0.17586269116937
C           -3.60416418043881        1.25613098892678       -0.08068183697454
H           -2.75885164517755       -0.00004662450197       -4.18733333464493
H           -4.40993705770873       -0.00003525778831       -2.38796524711553
H           -1.23902715306522        0.00003476626441        0.59669715190992
H            0.12228717875540       -0.00005138389215       -4.69633122987599
H            3.63890276430902        0.00003579722101        2.16238569505591
H            5.94872353775850        0.00002884071757        3.01894532093145
H            7.86562923856114       -0.00000297113151        1.50281489172246
H            7.57189353856315       -0.00003903096691       -0.94359441224084
H            5.54314073010031       -0.00005397993458       -3.01913167394986
H            2.90650942892301       -0.00004640170154       -4.12489351437765
H            2.14309450129212       -2.41349134733391       -1.14428834944708
H            1.69645251801617       -4.61082243425552       -0.14504417544229
H            0.69255368763409       -4.75152361358046        2.11992192435592
H            0.15818394167335       -2.66942699066995        3.33807919204855
H            0.15824320259996        2.66958620890572        3.33800923991474
H            0.69266202770423        4.75163907294332        2.11979797985303
H            1.69655794529071        4.61085588049877       -0.14516400126283
H            2.14314500376392        2.41348863507212       -1.14435302820597
H           -1.74668517750610       -2.31890427113344       -0.03675827122359
H           -2.69973597703855       -4.37762313601724        0.86972620610923
H           -5.13316858615456       -4.52818495376084        1.32213840221384
H           -6.57423502107662       -2.56779901295543        0.87861829785767
H           -6.57432148805733        2.56767803616908        0.87858855826398
H           -5.13332019428545        4.52811653153809        1.32208727766644
H           -2.69988333712266        4.37763134346466        0.86967620639970
H           -1.74676260208028        2.31893135895426       -0.03678409243596

          :  Hamiltonian                  GFN2-xTB          :
         :: gradient norm              0.000025452048 Eh/a0 ::
         :: HOMO-LUMO gap              0.529224849571 eV    ::
         :: SCC energy              -116.016568865179 Eh    ::
         :: -> dispersion             -0.125347064081 Eh    ::
         :: repulsion energy           2.103028458952 Eh    ::

    * Orbital Energies and Occupations

         #    Occupation            Energy/Eh            Energy/eV
      -------------------------------------------------------------
         1        2.0000           -0.7248347             -19.7238
       ...           ...                  ...                  ...
        95        2.0000           -0.4186915             -11.3932
        96        2.0000           -0.4157435             -11.3130
        97        2.0000           -0.4139855             -11.2651
        98        2.0000           -0.4118189             -11.2062
        99        2.0000           -0.4105193             -11.1708
       100        2.0000           -0.4077154             -11.0945
       101        2.0000           -0.4030250             -10.9669
       102        2.0000           -0.3984960             -10.8436
       103        2.0000           -0.3871914             -10.5360
       104        2.0000           -0.3681623             -10.0182
       105        2.0000           -0.3652111              -9.9379
       106        2.0000           -0.3627313              -9.8704
       107        1.9999           -0.3358513              -9.1390 (HOMO)
       108        0.0001           -0.3164023              -8.6097 (LUMO)
       109                         -0.2848183              -7.7503
       110                         -0.2476798              -6.7397
       111                         -0.2433398              -6.6216
       112                         -0.2406158              -6.5475
       113                         -0.2393888              -6.5141
       114                         -0.2368859              -6.4460
       115                         -0.2346835              -6.3861
       116                         -0.2339070              -6.3649
       117                         -0.2240364              -6.0963
       118                         -0.2204465              -5.9987
       ...                                ...                  ...
       220                          0.7446790              20.2637
      -------------------------------------------------------------
                  HL-Gap            0.0194490 Eh            0.5292 eV

     #   Z          covCN         q      C6AA      α(0)
     1   6 C        2.895    -0.035    28.861     8.808
     2   6 C        2.919    -0.034    28.844     8.807
     3   6 C        3.922     0.029    20.018     6.359
     4   6 C        2.913    -0.009    28.240     8.714
     5   6 C        3.077     0.001    27.928     8.664
     6   6 C        3.068    -0.002    28.017     8.679
     7   6 C        3.000    -0.054    29.339     8.885
     8   6 C        3.093     0.004    27.822     8.645
     9   6 C        3.074    -0.006    28.081     8.688
    10   6 C        3.921     0.029    20.031     6.361
    11   6 C        3.063    -0.031    28.701     8.785
    12   6 C        3.075    -0.009    28.162     8.701
    13   6 C        2.903    -0.033    28.817     8.802
    14   6 C        2.915    -0.034    28.843     8.807
    15   6 C        2.915    -0.029    28.729     8.789
    16   6 C        2.903    -0.037    28.918     8.817
    17   6 C        3.100     0.006    27.761     8.634
    18   6 C        2.974    -0.080    29.998     8.984
    19   6 C        3.102     0.008    27.712     8.626
    20   6 C        2.903    -0.014    28.356     8.731
    21   6 C        3.010     0.009    27.810     8.651
    22   6 C        2.931    -0.033    28.824     8.805
    23   6 C        2.918    -0.035    28.869     8.811
    24   6 C        2.920    -0.030    28.756     8.794
    25   6 C        2.996    -0.039    28.959     8.827
    26   6 C        2.971     0.046    26.971     8.519
    27  16 S        2.151    -0.143   147.059    20.410
    28   6 C        2.971     0.046    26.971     8.519
    29   6 C        2.996    -0.039    28.959     8.827
    30   6 C        2.920    -0.030    28.756     8.794
    31   6 C        2.918    -0.035    28.869     8.811
    32   6 C        2.931    -0.033    28.824     8.805
    33   6 C        3.010     0.009    27.810     8.651
    34   6 C        3.016     0.007    27.854     8.657
    35   6 C        2.926    -0.034    28.841     8.807
    36   6 C        2.919    -0.032    28.801     8.800
    37   6 C        2.920    -0.029    28.720     8.788
    38   6 C        2.978    -0.037    28.915     8.820
    39   6 C        2.972     0.047    26.940     8.514
    40  16 S        2.132    -0.140   146.927    20.401
    41   6 C        2.972     0.047    26.940     8.514
    42   6 C        2.978    -0.037    28.915     8.820
    43   6 C        2.920    -0.029    28.720     8.788
    44   6 C        2.919    -0.032    28.801     8.800
    45   6 C        2.926    -0.034    28.841     8.807
    46   6 C        3.016     0.007    27.854     8.657
    47   1 H        0.926     0.037     2.491     2.468
    48   1 H        0.926     0.039     2.459     2.452
    49   1 H        0.926     0.050     2.325     2.385
    50   1 H        0.926     0.031     2.578     2.511
    51   1 H        0.926     0.017     2.775     2.605
    52   1 H        0.926     0.021     2.711     2.575
    53   1 H        0.926     0.023     2.691     2.565
    54   1 H        0.926     0.024     2.671     2.556
    55   1 H        0.926     0.018     2.756     2.596
    56   1 H        0.925     0.041     2.432     2.439
    57   1 H        0.926     0.038     2.480     2.462
    58   1 H        0.926     0.036     2.505     2.475
    59   1 H        0.926     0.037     2.490     2.468
    60   1 H        0.926     0.042     2.417     2.431
    61   1 H        0.926     0.042     2.417     2.431
    62   1 H        0.926     0.037     2.490     2.468
    63   1 H        0.926     0.036     2.505     2.475
    64   1 H        0.926     0.038     2.480     2.462
    65   1 H        0.926     0.035     2.520     2.482
    66   1 H        0.926     0.039     2.463     2.454
    67   1 H        0.926     0.042     2.425     2.435
    68   1 H        0.926     0.048     2.347     2.396
    69   1 H        0.926     0.048     2.347     2.396
    70   1 H        0.926     0.042     2.425     2.435
    71   1 H        0.926     0.039     2.463     2.454
    72   1 H        0.926     0.035     2.520     2.482

molecular dipole:
                 x           y           z       tot (Debye)
 q only:       -1.093       0.000      -0.176
   full:       -0.666       0.000      -0.310       1.866

 projected vibrational frequencies (cm⁻¹)
eigval :       -0.00    -0.00    -0.00     0.00     0.00     0.00
eigval :       11.33    18.48    27.42    28.58    34.21    38.43
eigval :       43.08    59.65    61.68    74.26    95.82   103.08
eigval :      110.76   112.33   139.66   142.74   151.93   166.01
eigval :      188.49   196.65   207.42   231.36   235.44   245.82
eigval :      263.47   270.92   278.00   302.77   308.65   326.25
eigval :      328.46   341.93   351.57   361.09   363.01   367.08
eigval :      403.66   415.90   417.57   420.23   423.37   427.93
eigval :      436.55   444.76   451.50   471.33   473.62   485.35
eigval :      486.53   490.03   496.11   502.83   513.72   517.82
eigval :      530.12   561.15   582.53   589.00   590.13   613.24
eigval :      629.65   638.76   646.21   648.96   659.72   661.91
eigval :      669.43   680.76   683.16   683.67   697.00   701.72
eigval :      702.81   713.60   714.67   735.24   736.83   767.67
eigval :      772.46   775.31   777.79   778.19   792.56   810.72
eigval :      820.81   830.66   849.04   853.01   858.20   864.95
eigval :      876.05   876.52   879.23   880.14   880.81   901.54
eigval :      902.49   905.62   913.05   913.23   914.80   915.87
eigval :      916.76   921.10   923.06   923.22   926.09   927.91
eigval :      943.76   957.72   998.98  1034.02  1034.20  1035.24
eigval :     1045.04  1049.46  1085.34  1097.46  1098.08  1098.87
eigval :     1099.94  1124.44  1125.86  1135.62  1143.12  1149.20
eigval :     1151.03  1157.91  1160.75  1166.76  1177.71  1177.87
eigval :     1179.09  1179.86  1180.36  1193.33  1196.25  1201.04
eigval :     1209.80  1216.70  1224.00  1225.89  1248.99  1250.30
eigval :     1253.30  1255.33  1257.29  1272.00  1315.24  1317.96
eigval :     1322.35  1323.75  1327.67  1328.17  1343.58  1348.00
eigval :     1356.79  1397.19  1400.87  1407.53  1409.59  1413.48
eigval :     1417.32  1429.79  1446.51  1457.64  1459.52  1464.25
eigval :     1502.17  1542.06  1566.90  1567.52  1569.83  1576.15
eigval :     1578.30  1579.56  1583.22  1583.58  1587.06  1590.41
eigval :     1602.80  1613.92  1624.92  1664.95  3063.75  3067.93
eigval :     3069.07  3069.50  3076.12  3080.48  3080.54  3082.29
eigval :     3082.55  3084.29  3085.11  3085.50  3085.70  3087.37
eigval :     3087.52  3090.43  3092.85  3093.29  3095.44  3096.03
eigval :     3100.56  3100.94  3102.62  3102.93  3139.02  3144.73

   temp. (K)  partition function   enthalpy   heat capacity  entropy
                                   cal/mol     cal/K/mol   cal/K/mol   J/K/mol
 298.15  VIB  0.984E+15            20549.366    134.217    124.852
         ROT  0.463E+08              888.752      2.981     38.059
         INT  0.456E+23            21438.118    137.198    162.911
         TR   0.149E+29             1481.254      4.968     45.130
         TOT                       22919.3721   142.1663   208.0413   870.4447

       T/K    H(0)-H(T)+PV         H(T)/Eh          T*S/Eh         G(T)/Eh
   ------------------------------------------------------------------------
    298.15    0.365243E-01    0.574046E+00    0.988471E-01    0.475199E+00
   ------------------------------------------------------------------------

         :::::::::::::::::::::::::::::::::::::::::::::::::::::
         ::                  THERMODYNAMIC                  ::
         :::::::::::::::::::::::::::::::::::::::::::::::::::::
         :: total free energy        -113.438341458196 Eh   ::
         ::.................................................::
         :: total energy             -113.913540406199 Eh   ::
         :: zero point energy           0.537521729929 Eh   ::
         :: G(RRHO) w/o ZPVE           -0.062322781926 Eh   ::
         :: G(RRHO) contrib.            0.475198948003 Eh   ::
         :::::::::::::::::::::::::::::::::::::::::::::::::::::

           -------------------------------------------------
          | TOTAL ENERGY             -113.913540406199 Eh   |
          | TOTAL ENTHALPY           -113.339494331894 Eh   |
          | TOTAL FREE ENERGY        -113.438341458196 Eh   |
          | GRADIENT NORM               0.000025434803 Eh/α |
          | HOMO-LUMO GAP               0.529232901400 eV   |
           -------------------------------------------------

 * finished run on 2025/09/08 at 20:15:47.925
