   * xtb version 6.7.1 (edcfbbe) compiled by 'albert@albert-system' on 2024-07-22

   ID    Z sym.   atoms
    1    6 C      1-26, 28-39, 41-46
    2   16 S      27, 40
    3    1 H      47-72

          program call               : xtb data2507/gas/[2,1-b]IF/[2,1-b]IF_gas_S0_crest.xyz --gfn 2 --ohess vtight --parallel 40 --molden --ceasefiles --namespace data2507/gas/[2,1-b]IF/[2,1-b]IF_gas_S0_finalOpt
          :  Hamiltonian                  GFN2-xTB          :
 * total energy  :  -113.9135310 Eh     change       -0.5556259E-08 Eh
 * total energy  :  -113.9135318 Eh     change       -0.7613703E-06 Eh
 * total energy  :  -113.9135325 Eh     change       -0.7654983E-06 Eh
 * total energy  :  -113.9135340 Eh     change       -0.1456184E-05 Eh
 * total energy  :  -113.9135349 Eh     change       -0.9228449E-06 Eh
 * total energy  :  -113.9135350 Eh     change       -0.8662045E-07 Eh
 * total energy  :  -113.9135355 Eh     change       -0.5305994E-06 Eh
 * total energy  :  -113.9135362 Eh     change       -0.6401667E-06 Eh
 * total energy  :  -113.9135367 Eh     change       -0.5703668E-06 Eh
 * total energy  :  -113.9135372 Eh     change       -0.5023558E-06 Eh
 * total energy  :  -113.9135392 Eh     change       -0.3799993E-06 Eh
 * total energy  :  -113.9135395 Eh     change       -0.2951346E-06 Eh
 * total energy  :  -113.9135398 Eh     change       -0.2466211E-06 Eh
 * total energy  :  -113.9135400 Eh     change       -0.1967050E-06 Eh
 * total energy  :  -113.9135401 Eh     change       -0.1471792E-06 Eh
 * total energy  :  -113.9135402 Eh     change       -0.1232225E-06 Eh
 * total energy  :  -113.9135404 Eh     change       -0.1328137E-06 Eh
 * total energy  :  -113.9135405 Eh     change       -0.1229876E-06 Eh
 * total energy  :  -113.9135405 Eh     change       -0.2064681E-08 Eh
   *** GEOMETRY OPTIMIZATION CONVERGED AFTER 22 ITERATIONS ***

 final structure:
================
72
 xtb: 6.7.1 (edcfbbe)
C           -2.22593274113569       -0.01623903712556       -3.19456459671767
C           -3.13073092283641       -0.00869127215184       -2.20902467189943
C           -2.77809512793952       -0.00205356374687       -0.74049923771917
C           -1.30822575062066        0.00099923558116       -0.48584746749793
C           -0.41700046641664       -0.00662200472767       -1.48707967532693
C           -0.82803401129515       -0.01687587308610       -2.89806593766418
C            0.29073105637710       -0.02531495337724       -3.66667325146437
C            1.45054729130725       -0.02097366940869       -2.79420680665282
C            1.01964155749106       -0.00906643058595       -1.47962418135416
C            1.91249978575003       -0.00212650988528       -0.27949389530039
C            3.34673751572509       -0.01006021385256       -0.71598691395085
C            4.48824074162105       -0.00657720017874        0.03872349270689
C            4.70905753874522        0.00509089134887        1.44120376993999
C            5.98224870573720        0.00596852288900        1.90701831181778
C            7.10011170361867       -0.00473561186146        1.02019526720739
C            6.94320293502597       -0.01611645987504       -0.32830151022949
C            5.63497467588870       -0.01737841402524       -0.87369291239963
C            5.17641534641477       -0.02712475261611       -2.16939756597403
C            3.74930376470073       -0.02275575002220       -2.12362984398853
C            2.82648100795230       -0.02786882181559       -3.13206041411721
C            1.62673937815878       -1.28887382747642        0.47783113319950
C            1.92002970952862       -2.47848768124399       -0.18508841058921
C            1.66873449866016       -3.70875463186207        0.38733467615960
C            1.11241012084920       -3.77647052161712        1.65577529172069
C            0.81931004305673       -2.61165431381809        2.33058783649796
C            1.07205770844121       -1.37182532676316        1.74608338753437
S            0.62330606813124        0.02605940217628        2.72555254858205
C            1.08160383795403        1.40515525690510        1.72412239739016
C            0.83819269834664        2.65579442253205        2.28925410487086
C            1.14017480730562        3.80773794354853        1.59649469017023
C            1.69584570256711        3.71612691891225        0.32926554861903
C            1.93758382007310        2.47526228461064       -0.22404396299271
C            1.63547153616994        1.29834346047093        0.45732021840563
C           -3.37879420762082       -1.25777650235643       -0.11899906719776
C           -2.57776448289479       -2.36418362403504        0.14063797000330
C           -3.11582966021286       -3.53273633122806        0.64742301200809
C           -4.47524306686913       -3.61923861191468        0.89843795682250
C           -5.28580648978434       -2.52991212772188        0.64990198203996
C           -4.73975676440117       -1.35566943806530        0.14618984556834
S           -5.84577336443207       -0.00649203353053       -0.14156183212033
C           -4.74504456108428        1.34861962827286        0.13864641311376
C           -5.29549746494098        2.52336210082375        0.63633729024391
C           -4.48903847014618        3.61708875194097        0.87884690087548
C           -3.12941777044451        3.53463478932296        0.62753291468594
C           -2.58702741408522        2.36554896433080        0.12661814638447
C           -3.38382587049075        1.25459476804127       -0.12656252122394
H           -2.53784997654964       -0.02174576154275       -4.22933221973671
H           -4.18787613906942       -0.00809014646093       -2.42906912912060
H           -1.01501970777227        0.00771196753822        0.55387652191235
H            0.34255405930626       -0.03415621281942       -4.74000689844945
H            3.86460929157978        0.01325246450692        2.11550053392766
H            6.17502608183067        0.01495340638053        2.97026460792062
H            8.09074937355100       -0.00348749672320        1.45274407746535
H            7.79512939923580       -0.02412023530863       -0.99333844838141
H            5.76472430903119       -0.03625120733644       -3.06731547302395
H            3.12685508357085       -0.03711977047599       -4.17091036794553
H            2.35443421172894       -2.42423640363552       -1.17249197804552
H            1.90468035398574       -4.61209796890221       -0.15406208914074
H            0.90983720031798       -4.73151634458223        2.11614734305432
H            0.38629012456013       -2.63812272594441        3.31946463751334
H            0.40551475909868        2.70088137917933        3.27761253086097
H            0.94508237927257        4.77134431561089        2.04202169109613
H            1.93882602906883        4.60914925617493       -0.22595890919047
H            2.37150543286154        2.40238497033867       -1.21045649173515
H           -1.51941987390341       -2.31699683359407       -0.07105022694743
H           -2.46949237298246       -4.37563558672979        0.83842931164878
H           -4.90308666956011       -4.52988907635115        1.28889985387165
H           -6.34728018116536       -2.57285122104026        0.84066386723325
H           -6.35704638248982        2.56318521038634        0.82735316995487
H           -4.92021700420057        4.52804878835571        1.26490173925736
H           -2.48640378929168        4.38113175173750        0.81381360224491
H           -1.52863309326130        2.32126043711066       -0.08565193263253

          :  Hamiltonian                  GFN2-xTB          :
         :: gradient norm              0.000027345245 Eh/a0 ::
         :: HOMO-LUMO gap              0.529012495520 eV    ::
         :: SCC energy              -116.016563353626 Eh    ::
         :: -> dispersion             -0.125300408165 Eh    ::
         :: repulsion energy           2.103022852323 Eh    ::

    * Orbital Energies and Occupations

         #    Occupation            Energy/Eh            Energy/eV
      -------------------------------------------------------------
         1        2.0000           -0.7248494             -19.7242
       ...           ...                  ...                  ...
        95        2.0000           -0.4186770             -11.3928
        96        2.0000           -0.4157346             -11.3127
        97        2.0000           -0.4139867             -11.2652
        98        2.0000           -0.4118229             -11.2063
        99        2.0000           -0.4105038             -11.1704
       100        2.0000           -0.4077210             -11.0947
       101        2.0000           -0.4030218             -10.9668
       102        2.0000           -0.3984858             -10.8433
       103        2.0000           -0.3871974             -10.5362
       104        2.0000           -0.3681619             -10.0182
       105        2.0000           -0.3652149              -9.9380
       106        2.0000           -0.3627052              -9.8697
       107        1.9999           -0.3358507              -9.1390 (HOMO)
       108        0.0001           -0.3164097              -8.6099 (LUMO)
       109                         -0.2848251              -7.7505
       110                         -0.2476906              -6.7400
       111                         -0.2433232              -6.6212
       112                         -0.2406051              -6.5472
       113                         -0.2394001              -6.5144
       114                         -0.2368706              -6.4456
       115                         -0.2346685              -6.3857
       116                         -0.2338875              -6.3644
       117                         -0.2240143              -6.0957
       118                         -0.2204379              -5.9984
       ...                                ...                  ...
       220                          0.7446670              20.2634
      -------------------------------------------------------------
                  HL-Gap            0.0194410 Eh            0.5290 eV

     #   Z          covCN         q      C6AA      α(0)
     1   6 C        2.895    -0.035    28.861     8.808
     2   6 C        2.919    -0.034    28.844     8.807
     3   6 C        3.922     0.029    20.018     6.359
     4   6 C        2.913    -0.009    28.239     8.714
     5   6 C        3.077     0.001    27.928     8.664
     6   6 C        3.068    -0.002    28.017     8.679
     7   6 C        2.999    -0.054    29.339     8.885
     8   6 C        3.093     0.004    27.822     8.645
     9   6 C        3.074    -0.006    28.081     8.688
    10   6 C        3.922     0.029    20.031     6.361
    11   6 C        3.063    -0.031    28.701     8.785
    12   6 C        3.075    -0.009    28.162     8.701
    13   6 C        2.903    -0.033    28.817     8.802
    14   6 C        2.915    -0.034    28.843     8.807
    15   6 C        2.915    -0.029    28.729     8.789
    16   6 C        2.903    -0.037    28.918     8.817
    17   6 C        3.100     0.006    27.760     8.634
    18   6 C        2.974    -0.080    29.998     8.984
    19   6 C        3.102     0.008    27.712     8.626
    20   6 C        2.903    -0.014    28.356     8.731
    21   6 C        3.010     0.009    27.810     8.651
    22   6 C        2.931    -0.033    28.824     8.805
    23   6 C        2.918    -0.035    28.869     8.811
    24   6 C        2.920    -0.030    28.756     8.794
    25   6 C        2.996    -0.039    28.959     8.827
    26   6 C        2.971     0.046    26.971     8.519
    27  16 S        2.151    -0.143   147.059    20.410
    28   6 C        2.971     0.046    26.971     8.519
    29   6 C        2.996    -0.039    28.959     8.827
    30   6 C        2.920    -0.030    28.756     8.794
    31   6 C        2.918    -0.035    28.869     8.811
    32   6 C        2.931    -0.033    28.824     8.805
    33   6 C        3.010     0.009    27.810     8.651
    34   6 C        3.016     0.007    27.853     8.657
    35   6 C        2.926    -0.034    28.841     8.807
    36   6 C        2.919    -0.032    28.801     8.801
    37   6 C        2.920    -0.029    28.721     8.788
    38   6 C        2.978    -0.037    28.915     8.821
    39   6 C        2.972     0.047    26.941     8.514
    40  16 S        2.132    -0.140   146.926    20.401
    41   6 C        2.972     0.047    26.941     8.514
    42   6 C        2.978    -0.037    28.915     8.820
    43   6 C        2.920    -0.029    28.720     8.788
    44   6 C        2.919    -0.032    28.800     8.800
    45   6 C        2.926    -0.034    28.840     8.807
    46   6 C        3.015     0.007    27.855     8.657
    47   1 H        0.926     0.037     2.490     2.468
    48   1 H        0.926     0.039     2.459     2.452
    49   1 H        0.926     0.049     2.326     2.385
    50   1 H        0.926     0.031     2.578     2.511
    51   1 H        0.926     0.017     2.775     2.605
    52   1 H        0.926     0.021     2.711     2.575
    53   1 H        0.926     0.023     2.691     2.565
    54   1 H        0.926     0.024     2.671     2.556
    55   1 H        0.926     0.018     2.756     2.596
    56   1 H        0.925     0.041     2.432     2.439
    57   1 H        0.926     0.038     2.480     2.463
    58   1 H        0.926     0.036     2.505     2.475
    59   1 H        0.926     0.037     2.490     2.468
    60   1 H        0.926     0.042     2.417     2.431
    61   1 H        0.926     0.042     2.416     2.431
    62   1 H        0.926     0.037     2.490     2.467
    63   1 H        0.926     0.036     2.505     2.475
    64   1 H        0.926     0.038     2.480     2.463
    65   1 H        0.926     0.035     2.520     2.483
    66   1 H        0.926     0.039     2.463     2.454
    67   1 H        0.926     0.042     2.424     2.435
    68   1 H        0.926     0.048     2.347     2.396
    69   1 H        0.926     0.048     2.347     2.396
    70   1 H        0.926     0.042     2.425     2.435
    71   1 H        0.926     0.039     2.463     2.454
    72   1 H        0.926     0.035     2.520     2.482

molecular dipole:
                 x           y           z       tot (Debye)
 q only:       -1.093       0.000      -0.176
   full:       -0.667      -0.001      -0.310       1.868

 projected vibrational frequencies (cm⁻¹)
eigval :       -0.00    -0.00    -0.00     0.00     0.00     0.00
eigval :       11.44    18.09    27.07    28.20    34.24    38.25
eigval :       42.96    59.66    61.56    74.16    95.80   103.02
eigval :      110.78   112.38   139.89   142.75   151.82   165.98
eigval :      188.42   196.61   207.45   231.32   235.46   245.83
eigval :      263.35   270.85   277.97   302.95   308.64   326.23
eigval :      328.45   342.09   351.57   361.07   363.02   366.87
eigval :      403.76   415.90   417.56   420.06   423.35   427.72
eigval :      436.24   444.76   451.52   471.13   473.55   485.35
eigval :      486.55   490.03   496.11   502.70   513.63   517.83
eigval :      530.09   561.16   582.53   588.96   590.15   613.24
eigval :      629.66   638.76   646.21   649.02   659.70   662.06
eigval :      669.41   680.75   683.15   683.69   697.05   701.71
eigval :      702.86   713.69   714.68   735.19   736.82   767.67
eigval :      772.44   775.33   777.79   778.18   793.09   810.87
eigval :      820.78   830.63   849.09   852.99   858.19   864.95
eigval :      876.06   876.53   879.24   880.13   880.80   901.59
eigval :      902.54   905.65   913.05   913.23   914.79   915.68
eigval :      916.78   920.87   923.06   923.21   926.07   927.88
eigval :      943.73   957.63   998.99  1034.00  1034.23  1035.24
eigval :     1045.11  1049.43  1085.33  1097.44  1098.08  1098.86
eigval :     1099.94  1124.47  1125.98  1135.67  1143.14  1149.21
eigval :     1151.02  1157.91  1160.78  1166.75  1177.71  1177.88
eigval :     1179.10  1179.87  1180.41  1193.25  1196.24  1201.01
eigval :     1209.80  1216.69  1223.96  1225.93  1248.99  1250.30
eigval :     1253.32  1255.34  1257.27  1271.87  1315.16  1317.94
eigval :     1322.33  1323.81  1327.65  1328.20  1343.61  1348.01
eigval :     1356.82  1397.16  1400.87  1407.53  1409.60  1413.49
eigval :     1417.33  1429.79  1446.52  1457.64  1459.56  1464.27
eigval :     1502.15  1542.04  1566.93  1567.51  1569.89  1576.14
eigval :     1578.32  1579.54  1583.24  1583.60  1587.05  1590.43
eigval :     1602.85  1613.92  1625.03  1664.76  3063.77  3068.01
eigval :     3069.08  3069.52  3076.18  3080.20  3080.68  3082.30
eigval :     3082.55  3083.80  3085.13  3085.49  3085.69  3087.35
eigval :     3087.52  3090.47  3092.85  3093.29  3095.43  3096.02
eigval :     3100.56  3100.95  3102.59  3102.93  3139.05  3144.74

   temp. (K)  partition function   enthalpy   heat capacity  entropy
                                   cal/mol     cal/K/mol   cal/K/mol   J/K/mol
 298.15  VIB  0.103E+16            20551.875    134.201    124.880
         ROT  0.464E+08              888.752      2.981     38.060
         INT  0.477E+23            21440.627    137.182    162.940
         TR   0.149E+29             1481.254      4.968     45.130
         TOT                       22921.8813   142.1504   208.0708   870.5682

       T/K    H(0)-H(T)+PV         H(T)/Eh          T*S/Eh         G(T)/Eh
   ------------------------------------------------------------------------
    298.15    0.365283E-01    0.574045E+00    0.988611E-01    0.475183E+00
   ------------------------------------------------------------------------

         :::::::::::::::::::::::::::::::::::::::::::::::::::::
         ::                  THERMODYNAMIC                  ::
         :::::::::::::::::::::::::::::::::::::::::::::::::::::
         :: total free energy        -113.438357091213 Eh   ::
         ::.................................................::
         :: total energy             -113.913540501261 Eh   ::
         :: zero point energy           0.537516214499 Eh   ::
         :: G(RRHO) w/o ZPVE           -0.062332804451 Eh   ::
         :: G(RRHO) contrib.            0.475183410048 Eh   ::
         :::::::::::::::::::::::::::::::::::::::::::::::::::::

           -------------------------------------------------
          | TOTAL ENERGY             -113.913540501261 Eh   |
          | TOTAL ENTHALPY           -113.339495943718 Eh   |
          | TOTAL FREE ENERGY        -113.438357091213 Eh   |
          | GRADIENT NORM               0.000027367048 Eh/α |
          | HOMO-LUMO GAP               0.529015806010 eV   |
           -------------------------------------------------

 * finished run on 2025/09/08 at 20:19:57.412
