   * xtb version 6.7.1 (edcfbbe) compiled by 'albert@albert-system' on 2024-07-22

   ID    Z sym.   atoms
    1    6 C      1-26, 28-39, 41-46
    2   16 S      27, 40
    3    1 H      47-72

          program call               : xtb data2507/gas/[2,1-b]IF/[2,1-b]IF_gas_T1_crest.xyz --gfn 2 --spinpol --tblite --uhf 2 --ohess vtight --parallel 40 --molden --ceasefiles --namespace data2507/gas/[2,1-b]IF/[2,1-b]IF_gas_T1_finalOpt
 * total energy  :  -113.8967245 Eh     change       -0.1985441E-08 Eh
 * total energy  :  -113.8967530 Eh     change       -0.2844740E-04 Eh
 * total energy  :  -113.8967602 Eh     change       -0.7206699E-05 Eh
 * total energy  :  -113.8967611 Eh     change       -0.9418793E-06 Eh
 * total energy  :  -113.8967626 Eh     change       -0.1492756E-05 Eh
 * total energy  :  -113.8967645 Eh     change       -0.1844534E-05 Eh
 * total energy  :  -113.8967670 Eh     change       -0.2581154E-05 Eh
 * total energy  :  -113.8967690 Eh     change       -0.1948278E-05 Eh
 * total energy  :  -113.8967696 Eh     change       -0.6119428E-06 Eh
 * total energy  :  -113.8967701 Eh     change       -0.4811004E-06 Eh
 * total energy  :  -113.8967727 Eh     change       -0.8248665E-06 Eh
 * total energy  :  -113.8967735 Eh     change       -0.8004303E-06 Eh
 * total energy  :  -113.8967740 Eh     change       -0.5203575E-06 Eh
 * total energy  :  -113.8967744 Eh     change       -0.3594217E-06 Eh
 * total energy  :  -113.8967747 Eh     change       -0.2720832E-06 Eh
 * total energy  :  -113.8967749 Eh     change       -0.2794660E-06 Eh
 * total energy  :  -113.8967752 Eh     change       -0.2469425E-06 Eh
 * total energy  :  -113.8967754 Eh     change       -0.2191027E-06 Eh
 * total energy  :  -113.8967754 Eh     change       -0.4252176E-07 Eh
   *** GEOMETRY OPTIMIZATION CONVERGED AFTER 22 ITERATIONS ***

 final structure:
================
72
 xtb: 6.7.1 (edcfbbe)
C           -2.25165166329294        0.02205312565116       -3.18476875405535
C           -3.14754787097230        0.01133594458122       -2.19235246977223
C           -2.78647012585374        0.00573307922872       -0.72482906647994
C           -1.31228377328338        0.01529365438764       -0.48234523669911
C           -0.42275368963614        0.02153527769535       -1.49653128812170
C           -0.84982158328836        0.02688194238065       -2.90189437048171
C            0.25413388361585        0.03420845670525       -3.69036191502268
C            1.43136154840555        0.03099377358314       -2.84275023524569
C            0.99762104618653        0.02362308734964       -1.50352630854378
C            1.90121672223925        0.01320575102210       -0.30305096716962
C            3.32307609388164        0.00896129094533       -0.77101424586706
C            4.50180160692975       -0.00645384928020        0.03570817189116
C            4.69394385420504       -0.02180055702280        1.40522952507353
C            5.99892809092343       -0.03680522508430        1.89410685263267
C            7.08570751299341       -0.03620770135578        1.03527770883247
C            6.91048311737514       -0.02038890227280       -0.34747317441329
C            5.62272871757984       -0.00554075287258       -0.85282339254008
C            5.12127255270176        0.01065804241608       -2.18897801090424
C            3.71668597434017        0.01875882865174       -2.13645646616253
C            2.77370118792566        0.03074913720128       -3.18797651605682
C            1.63511741115641       -1.28239577303668        0.44665471443878
C            1.87840680015794       -2.46206455385120       -0.25306727159295
C            1.62426961122647       -3.70021825910676        0.30179803170316
C            1.10921447164859       -3.78499496233647        1.58616638789574
C            0.86477947320092       -2.62991051847546        2.29713284741971
C            1.12869461770047       -1.38296809132080        1.73407081798544
S            0.76709847671694        0.00148862088539        2.76670177936236
C            1.14307742268867        1.39381369629796        1.74986857490491
C            0.89286637079798        2.63687437924668        2.32759585848971
C            1.14899902434457        3.79750122911776        1.62991146583768
C            1.66188355083493        3.72220718267861        0.34408638653386
C            1.90261211315725        2.48799432752589       -0.22529832607688
C            1.64771082231771        1.30292578146947        0.46104911694631
C           -3.38023030267342       -1.25939953571769       -0.11717098015192
C           -2.57276300894787       -2.36579784684193        0.12131624085911
C           -3.10003203355764       -3.54397344809654        0.61673852394954
C           -4.45655716145206       -3.64070707882439        0.87920589731559
C           -5.27441343516517       -2.55217876453826        0.65176329071612
C           -4.73837350527188       -1.36924248201387        0.15793425496952
S           -5.85567996059886       -0.02417780088614       -0.10612609112119
C           -4.76186949220447        1.33750106938047        0.17108948839585
C           -5.31859329387867        2.50648064346574        0.67508465021645
C           -4.51969490743005        3.60674390364439        0.91315082218485
C           -3.16135410614074        3.53553476226991        0.65175546399328
C           -2.61343919840070        2.37109521018545        0.14626091136764
C           -3.40181329339108        1.25355858366805       -0.10371194388201
H           -2.57299570725343        0.02593408288008       -4.21709723298587
H           -4.20662087745202        0.00633673742313       -2.40517026043795
H           -1.00774949048694        0.01362308642059        0.55370780580829
H            0.28517813464567        0.03982864628732       -4.76475053614367
H            3.85692896338861       -0.02264231859369        2.08722098822875
H            6.16384135038413       -0.04931245518608        2.96137215433004
H            8.08588867704402       -0.04834412373411        1.44278101712297
H            7.76493589407729       -0.02019028689977       -1.00854285969552
H            5.71822133140250        0.01506777941607       -3.08261643459253
H            3.09725257155682        0.03686043829757       -4.21716528952311
H            2.26931333148815       -2.39338555397846       -1.25773810995163
H            1.82271636994714       -4.59578368071182       -0.26698976344391
H            0.89958355670776       -4.74578294537123        2.03124222429967
H            0.46289923171704       -2.67081195933238        3.29857694831424
H            0.49240732567088        2.67037172441620        3.32990148742332
H            0.95004074374594        4.75523599219993        2.08632751537054
H            1.86922937153221        4.62219911756090       -0.21445202108795
H            2.29204640177912        2.42690321182173       -1.23100878129426
H           -1.51671630884775       -2.30771805505171       -0.09920383049570
H           -2.44800546215883       -4.38659388185093        0.79013759372647
H           -4.87660224903288       -4.55859888618354        1.26157169483810
H           -6.33409735116197       -2.60302705943243        0.85103377791268
H           -6.37920288499923        2.53739008893844        0.87356116076592
H           -4.95580791324666        4.51394983486017        1.30295360796453
H           -2.52434074439204        4.38778777610933        0.83365666744687
H           -1.55628669916953        2.33253088329443       -0.07358155605403

 projected vibrational frequencies (cm⁻¹)
eigval :       -0.00    -0.00    -0.00    -0.00     0.00     0.00
eigval :       11.22    17.90    21.70    28.20    33.97    36.56
eigval :       41.86    58.85    59.83    77.10    94.53   102.49
eigval :      110.56   112.07   137.37   141.64   151.78   165.74
eigval :      188.24   197.16   207.28   231.82   244.04   245.90
eigval :      271.44   275.69   278.21   300.41   307.87   325.81
eigval :      333.20   348.48   349.55   352.41   362.77   366.33
eigval :      399.25   415.22   417.19   417.35   423.29   423.57
eigval :      436.98   445.25   450.64   469.86   471.71   486.96
eigval :      488.97   495.35   500.20   504.30   510.24   519.92
eigval :      531.20   565.35   581.14   589.02   591.92   613.40
eigval :      619.47   635.85   638.80   643.16   657.92   658.39
eigval :      669.78   677.25   680.96   682.82   690.27   701.16
eigval :      701.33   709.11   713.56   732.81   737.12   762.04
eigval :      771.38   775.06   777.79   778.15   785.21   792.64
eigval :      809.27   820.73   823.51   837.91   851.98   853.32
eigval :      876.76   876.83   879.65   880.57   881.94   894.01
eigval :      897.62   901.13   911.44   913.16   913.54   914.66
eigval :      915.24   919.34   923.27   923.43   925.70   926.74
eigval :      955.29   958.54  1011.71  1034.74  1037.41  1043.41
eigval :     1050.04  1068.53  1097.07  1097.21  1098.09  1099.34
eigval :     1100.39  1103.92  1122.76  1131.33  1145.77  1148.90
eigval :     1150.60  1157.88  1161.15  1162.77  1177.46  1177.53
eigval :     1179.04  1179.26  1180.23  1192.01  1194.82  1197.61
eigval :     1210.69  1211.45  1222.46  1224.43  1244.00  1248.51
eigval :     1252.47  1254.65  1255.40  1267.98  1272.85  1293.58
eigval :     1318.35  1322.38  1322.89  1326.89  1329.06  1350.09
eigval :     1361.05  1385.46  1389.50  1401.18  1408.18  1412.80
eigval :     1417.74  1441.21  1446.62  1450.38  1457.47  1457.92
eigval :     1460.30  1464.16  1489.42  1544.60  1566.01  1567.50
eigval :     1575.72  1578.17  1579.91  1580.23  1582.68  1587.94
eigval :     1589.31  1592.60  1608.55  1634.00  3063.14  3074.63
eigval :     3078.71  3079.48  3080.22  3081.69  3081.93  3084.02
eigval :     3084.76  3084.95  3085.09  3085.16  3087.12  3087.97
eigval :     3092.16  3092.44  3092.94  3093.05  3093.79  3095.63
eigval :     3099.71  3099.99  3100.53  3100.93  3134.14  3135.70

   temp. (K)  partition function   enthalpy   heat capacity  entropy
                                   cal/mol     cal/K/mol   cal/K/mol   J/K/mol
 298.15  VIB  0.144E+16            20594.497    134.453    125.180
         ROT  0.465E+08              888.752      2.981     38.067
         INT  0.670E+23            21483.250    137.434    163.246
         TR   0.149E+29             1481.254      4.968     45.130
         TOT                       22964.5034   142.4023   208.3766   871.8476

       T/K    H(0)-H(T)+PV         H(T)/Eh          T*S/Eh         G(T)/Eh
   ------------------------------------------------------------------------
    298.15    0.365963E-01    0.572753E+00    0.990064E-01    0.473746E+00
   ------------------------------------------------------------------------

         :::::::::::::::::::::::::::::::::::::::::::::::::::::
         ::                  THERMODYNAMIC                  ::
         :::::::::::::::::::::::::::::::::::::::::::::::::::::
         :: total free energy        -113.423029363854 Eh   ::
         ::.................................................::
         :: total energy             -113.896775440381 Eh   ::
         :: zero point energy           0.536156241398 Eh   ::
         :: G(RRHO) w/o ZPVE           -0.062410164871 Eh   ::
         :: G(RRHO) contrib.            0.473746076527 Eh   ::
         :::::::::::::::::::::::::::::::::::::::::::::::::::::

           -------------------------------------------------
          | TOTAL ENERGY             -113.896775440381 Eh   |
          | TOTAL ENTHALPY           -113.324022933292 Eh   |
          | TOTAL FREE ENERGY        -113.423029363854 Eh   |
          | GRADIENT NORM               0.000047992648 Eh/α |
           -------------------------------------------------

 * finished run on 2025/09/08 at 20:24:54.315
