   * xtb version 6.7.1 (edcfbbe) compiled by 'albert@albert-system' on 2024-07-22

   ID    Z sym.   atoms
    1    7 N      1, 12, 21
    2    6 C      2-7, 9-11, 13-15, 17-20, 22-49
    3    8 O      8, 50
    4    5 B      16
    5    1 H      51-78

          program call               : xtb data2507/toluene/BO3N/BO3N.xyz --gfn 2 --gbsa toluene --ohess vtight --parallel 40 --molden --ceasefiles --namespace data2507/toluene/BO3N/BO3N_toluene_S0_preOpt
      * Solvation model:               GBSA
        Solvent                        toluene
        Solvent mass                       9.2140E+01 g/mol
          :  Hamiltonian                  GFN2-xTB          :
 * total energy  :  -126.6290033 Eh     change       -0.6224639E-09 Eh
 * total energy  :  -126.6878697 Eh     change       -0.5886643E-01 Eh
 * total energy  :  -126.7137163 Eh     change       -0.2584657E-01 Eh
 * total energy  :  -126.7282469 Eh     change       -0.1453061E-01 Eh
 * total energy  :  -126.7388163 Eh     change       -0.1056936E-01 Eh
 * total energy  :  -126.7464216 Eh     change       -0.7605332E-02 Eh
 * total energy  :  -126.7509877 Eh     change       -0.4566077E-02 Eh
 * total energy  :  -126.7558478 Eh     change       -0.4860149E-02 Eh
 * total energy  :  -126.7556391 Eh     change        0.2086993E-03 Eh
 * total energy  :  -126.7598295 Eh     change       -0.4190395E-02 Eh
 * total energy  :  -126.7677312 Eh     change       -0.3365091E-05 Eh
 * total energy  :  -126.7677325 Eh     change       -0.1358240E-05 Eh
 * total energy  :  -126.7677334 Eh     change       -0.8355059E-06 Eh
 * total energy  :  -126.7677338 Eh     change       -0.4077343E-06 Eh
 * total energy  :  -126.7677339 Eh     change       -0.1468363E-06 Eh
 * total energy  :  -126.7677343 Eh     change       -0.3276529E-06 Eh
 * total energy  :  -126.7677346 Eh     change       -0.3452045E-06 Eh
 * total energy  :  -126.7677348 Eh     change       -0.1958245E-06 Eh
 * total energy  :  -126.7677349 Eh     change       -0.8405902E-07 Eh
   *** GEOMETRY OPTIMIZATION CONVERGED AFTER 126 ITERATIONS ***

 final structure:
================
78
 xtb: 6.7.1 (edcfbbe)
N           -8.17475429518588        5.54759349502418       -1.49411353040712
C           -7.46647287561120        4.39396533942115       -1.25493662216390
C           -6.23804370021987        4.16260841512884       -1.88916821292617
C           -5.49889974697688        3.04728448413000       -1.58336750224051
C           -5.90736474461970        2.08822191857706       -0.64318347136060
C           -7.16014002468512        2.32557318630071       -0.04245063559634
C           -7.91736914118293        3.45557084958803       -0.33699867821865
O           -7.75515905637682        1.49114727417783        0.86223935759863
C           -7.19235672069555        0.31039439929403        1.22448679851160
C           -7.91442022656581       -0.48715037221333        2.09787257943870
C           -7.39221887657972       -1.71366082255737        2.51156882282546
N           -8.13251495444893       -2.54356296966126        3.31880939993328
C           -6.14049244232465       -2.12054598042250        2.04640743333050
C           -5.42994254683711       -1.30705916928785        1.17894614843268
C           -5.93176156106943       -0.07204123692723        0.74199832673368
B           -5.14289130557654        0.81599070573897       -0.21291297934044
C           -3.73771929118108        0.25907535107814       -0.54626188073907
C           -2.73039871703172        0.89036219750445       -1.29134114506590
C           -1.51534159420410        0.30801540441291       -1.55255871971347
C           -1.22372468875631       -0.97797775185962       -1.07362595609051
N            0.01656785882353       -1.51682266714508       -1.33525549829070
C            0.41504226119391       -2.84436105354468       -1.27673649618877
C           -0.46136111163768       -3.87107618362340       -1.55403425400801
C           -0.04109456438089       -5.20634377834559       -1.53387033712978
C            1.25828292077920       -5.52522408863398       -1.25890933602876
C            2.19652087276488       -4.50698414116165       -0.98236318276045
C            3.53772135690147       -4.79766711070635       -0.70275210641488
C            4.46036849306498       -3.81144886826293       -0.41020351559869
C            5.82567636793530       -4.14954235052257       -0.13178559917103
C            6.73432230051937       -3.20342906291946        0.16665263950203
C            6.38045567910049       -1.81527392250117        0.22268814525485
C            7.33159144040521       -0.86687524205635        0.53110688960979
C            7.02621878823634        0.50472869183904        0.59463865348508
C            7.98064478921996        1.47510175381588        0.90370595267033
C            7.65335520982545        2.82521454271135        0.95762328760736
C            8.61342696271670        3.82381299309520        1.26915535941333
C            8.26655048496940        5.13878335776901        1.31267674641319
C            6.93734899659682        5.53789407586986        1.04781822753513
C            5.98642338803518        4.61228646169635        0.74716558170180
C            6.30497439721879        3.22995953105720        0.69022913940783
C            5.35265685778347        2.26399876964722        0.38427588793622
C            5.67795603175004        0.90798998722946        0.32839718116963
C            4.71913366032939       -0.07732237167430        0.01665351025597
C            5.02580740979880       -1.41873693901582       -0.04541962422829
C            4.04770898247746       -2.44588730418887       -0.37309265020975
C            2.72405231831586       -2.15728565736791       -0.65438874455122
C            1.78154063224306       -3.14464749646426       -0.97521518967225
C           -2.17512667373388       -1.61473839362469       -0.28919051553085
C           -3.40266078668423       -1.00920988770077       -0.03226453396239
O           -4.21856094775375       -1.76041724232363        0.76550588642619
H           -7.96420603111191        6.04331922188784       -2.34499445347829
H           -9.14504730957422        5.55092062445024       -1.22478924968997
H           -5.88065602128317        4.87283325558945       -2.62137511685588
H           -4.56710047356383        2.89496598632958       -2.10354506334028
H           -8.86713291361144        3.58475366501943        0.16123491449051
H           -8.87987100184587       -0.15559665577892        2.44798948687699
H           -7.63375712751565       -3.27429650080187        3.79939467293129
H           -8.88428058790774       -2.12148541005511        3.83876561284405
H           -5.71955796924522       -3.06459105355187        2.35666114792082
H           -2.91227191265245        1.88361529179186       -1.66814829382138
H           -0.77199725460764        0.83746308616724       -2.13271514898308
H            0.70663085144136       -0.86111006596950       -1.67066187328234
H           -1.48233868655722       -3.64299805228868       -1.81858446883896
H           -0.75951900801559       -5.98170836075153       -1.75730900919513
H            1.58832155890036       -6.55355082475112       -1.25285901695312
H            3.85667260908178       -5.83098586208688       -0.71564061913069
H            6.10190283569332       -5.19391547743058       -0.16969958498611
H            7.76207852197386       -3.46652432444910        0.37443989681028
H            8.34709770383853       -1.18093428608459        0.73123721945378
H            8.99784048108079        1.16767589794423        1.10507122757838
H            9.62904198946929        3.51311589657244        1.47098589636877
H            9.00346748122089        5.89261049489810        1.54997849006806
H            6.68655559447936        6.58820226110446        1.08829314830775
H            4.96770921449957        4.91236308368537        0.54491464293582
H            4.33498458480703        2.57152698396937        0.18458912410002
H            3.71538220911797        0.27135535201806       -0.17259375146839
H            2.39299701293519       -1.13244990805439       -0.60497655301073
H           -1.97650421765764       -2.57485543967709        0.16011668476720

          :  Hamiltonian                  GFN2-xTB          :
         :: gradient norm              0.000039408051 Eh/a0 ::
         :: HOMO-LUMO gap              1.669818005003 eV    ::
         :: SCC energy              -129.008290622956 Eh    ::
         :: -> dispersion             -0.105826998095 Eh    ::
         :: -> Gsolv                  -0.052715592696 Eh    ::
         :: repulsion energy           2.240555739595 Eh    ::

    * Orbital Energies and Occupations

         #    Occupation            Energy/Eh            Energy/eV
      -------------------------------------------------------------
         1        2.0000           -0.7217939             -19.6410
       ...           ...                  ...                  ...
       105        2.0000           -0.4063436             -11.0572
       106        2.0000           -0.4058436             -11.0436
       107        2.0000           -0.3998391             -10.8802
       108        2.0000           -0.3915356             -10.6542
       109        2.0000           -0.3867459             -10.5239
       110        2.0000           -0.3858749             -10.5002
       111        2.0000           -0.3841352             -10.4529
       112        2.0000           -0.3791346             -10.3168
       113        2.0000           -0.3714056             -10.1065
       114        2.0000           -0.3645060              -9.9187
       115        2.0000           -0.3577533              -9.7350
       116        2.0000           -0.3559640              -9.6863
       117        2.0000           -0.3488678              -9.4932 (HOMO)
       118                         -0.2875032              -7.8234 (LUMO)
       119                         -0.2720486              -7.4028
       120                         -0.2547861              -6.9331
       121                         -0.2411100              -6.5609
       122                         -0.2288160              -6.2264
       123                         -0.2242537              -6.1023
       124                         -0.2157979              -5.8722
       125                         -0.2112984              -5.7497
       126                         -0.2099127              -5.7120
       127                         -0.2007485              -5.4626
       128                         -0.1966650              -5.3515
       ...                                ...                  ...
       228                          0.7415845              20.1795
      -------------------------------------------------------------
                  HL-Gap            0.0613647 Eh            1.6698 eV

     #   Z          covCN         q      C6AA      α(0)
     1   7 N        2.641    -0.274    27.077     7.728
     2   6 C        2.899     0.082    26.178     8.389
     3   6 C        2.918    -0.072    29.785     8.950
     4   6 C        2.924    -0.036    28.889     8.814
     5   6 C        2.882    -0.106    30.682     9.081
     6   6 C        2.874     0.134    25.062     8.207
     7   6 C        2.921    -0.091    30.272     9.023
     8   8 O        1.712    -0.248    18.100     5.744
     9   6 C        2.871     0.135    25.046     8.204
    10   6 C        2.918    -0.103    30.597     9.071
    11   6 C        2.900     0.083    26.159     8.386
    12   7 N        2.642    -0.270    26.997     7.717
    13   6 C        2.918    -0.103    30.593     9.070
    14   6 C        2.871     0.135    25.050     8.205
    15   6 C        2.888    -0.136    31.474     9.198
    16   5 B        2.723     0.202    18.358     7.180
    17   6 C        2.881    -0.103    30.605     9.069
    18   6 C        2.924    -0.035    28.865     8.811
    19   6 C        2.921    -0.071    29.767     8.947
    20   6 C        2.903     0.072    26.399     8.425
    21   7 N        2.699    -0.149    24.226     7.310
    22   6 C        2.899     0.062    26.604     8.457
    23   6 C        2.919    -0.056    29.397     8.891
    24   6 C        2.914    -0.031    28.780     8.797
    25   6 C        2.917    -0.049    29.205     8.862
    26   6 C        2.984     0.010    27.780     8.646
    27   6 C        2.925    -0.044    29.099     8.846
    28   6 C        2.981     0.010    27.785     8.646
    29   6 C        2.912    -0.036    28.900     8.815
    30   6 C        2.913    -0.036    28.906     8.816
    31   6 C        2.980     0.011    27.776     8.645
    32   6 C        2.923    -0.044    29.093     8.845
    33   6 C        2.979     0.009    27.816     8.651
    34   6 C        2.920    -0.044    29.092     8.845
    35   6 C        2.981     0.011    27.768     8.644
    36   6 C        2.916    -0.036    28.900     8.815
    37   6 C        2.914    -0.031    28.766     8.795
    38   6 C        2.914    -0.031    28.767     8.795
    39   6 C        2.916    -0.036    28.902     8.816
    40   6 C        2.981     0.011    27.771     8.644
    41   6 C        2.921    -0.044    29.100     8.846
    42   6 C        2.980     0.008    27.826     8.653
    43   6 C        2.921    -0.044    29.103     8.847
    44   6 C        2.972     0.005    27.904     8.665
    45   6 C        2.974     0.003    27.953     8.672
    46   6 C        2.921    -0.046    29.135     8.852
    47   6 C        2.983    -0.010    28.256     8.720
    48   6 C        2.919    -0.082    30.048     8.989
    49   6 C        2.875     0.135    25.051     8.205
    50   8 O        1.712    -0.247    18.088     5.742
    51   1 H        0.860     0.169     1.280     1.772
    52   1 H        0.860     0.167     1.292     1.781
    53   1 H        0.926     0.030     2.589     2.516
    54   1 H        0.926     0.038     2.471     2.458
    55   1 H        0.926     0.034     2.523     2.484
    56   1 H        0.926     0.039     2.456     2.450
    57   1 H        0.860     0.171     1.269     1.765
    58   1 H        0.860     0.171     1.269     1.765
    59   1 H        0.926     0.040     2.454     2.450
    60   1 H        0.926     0.041     2.438     2.442
    61   1 H        0.925     0.028     2.611     2.527
    62   1 H        0.860     0.170     1.272     1.767
    63   1 H        0.926     0.036     2.503     2.474
    64   1 H        0.926     0.032     2.560     2.502
    65   1 H        0.926     0.031     2.566     2.505
    66   1 H        0.925     0.035     2.522     2.484
    67   1 H        0.926     0.032     2.563     2.503
    68   1 H        0.926     0.031     2.567     2.505
    69   1 H        0.925     0.033     2.545     2.495
    70   1 H        0.925     0.033     2.545     2.495
    71   1 H        0.926     0.032     2.563     2.504
    72   1 H        0.926     0.031     2.578     2.511
    73   1 H        0.926     0.031     2.577     2.510
    74   1 H        0.926     0.032     2.560     2.502
    75   1 H        0.925     0.032     2.552     2.498
    76   1 H        0.926     0.033     2.549     2.496
    77   1 H        0.926     0.033     2.550     2.497
    78   1 H        0.926     0.043     2.408     2.427

molecular dipole:
                 x           y           z       tot (Debye)
 q only:       -0.276       0.585      -0.152
   full:       -0.357       0.614      -0.069       1.814

 projected vibrational frequencies (cm⁻¹)
eigval :       -0.00    -0.00     0.00     0.00     0.00     0.00
eigval :        6.95     9.11    18.21    29.64    32.56    36.60
eigval :       46.07    63.69    65.14    73.52    77.85    97.50
eigval :      112.13   115.86   146.30   149.44   172.30   174.92
eigval :      189.55   191.77   208.79   217.04   228.61   250.60
eigval :      256.19   260.68   269.69   275.18   286.62   291.18
eigval :      294.36   300.58   316.03   322.59   335.64   361.16
eigval :      366.39   368.52   379.76   382.53   384.19   386.23
eigval :      396.95   414.02   422.05   427.78   429.46   434.21
eigval :      445.47   465.66   470.35   474.44   487.16   489.36
eigval :      489.63   507.26   508.10   509.37   514.41   524.90
eigval :      529.83   552.27   560.50   565.85   576.23   585.58
eigval :      589.36   591.60   593.42   595.71   600.19   601.69
eigval :      614.12   628.68   644.31   657.43   676.00   682.63
eigval :      688.86   700.37   707.85   710.96   723.60   734.60
eigval :      736.17   749.67   756.86   762.68   775.00   786.69
eigval :      787.62   801.63   802.71   804.47   806.35   811.37
eigval :      819.85   826.63   834.48   839.70   841.04   848.23
eigval :      854.77   860.18   862.99   866.22   870.39   873.84
eigval :      876.15   887.00   893.74   894.85   896.97   899.30
eigval :      904.60   916.46   919.84   926.28   926.61   971.80
eigval :      981.46   990.82  1016.29  1025.11  1032.69  1058.14
eigval :     1067.49  1080.06  1080.68  1121.04  1130.07  1139.00
eigval :     1150.75  1152.27  1164.53  1167.87  1176.94  1178.34
eigval :     1178.77  1182.86  1186.07  1190.32  1192.40  1208.76
eigval :     1222.37  1229.16  1233.23  1244.61  1250.39  1253.32
eigval :     1259.47  1269.40  1276.33  1282.38  1283.70  1294.38
eigval :     1304.87  1311.08  1321.16  1324.55  1333.52  1338.19
eigval :     1343.42  1348.67  1356.83  1361.23  1376.66  1384.91
eigval :     1401.44  1404.21  1409.96  1411.93  1417.40  1421.15
eigval :     1423.68  1433.25  1446.59  1457.49  1460.27  1467.39
eigval :     1471.65  1486.22  1491.75  1504.90  1510.15  1520.38
eigval :     1531.00  1537.98  1541.20  1543.12  1549.42  1562.02
eigval :     1575.24  1581.72  1589.79  1592.32  1593.67  1609.69
eigval :     1617.17  1619.03  3059.95  3060.04  3060.71  3062.20
eigval :     3063.76  3064.35  3065.30  3066.97  3067.11  3071.53
eigval :     3074.25  3076.24  3082.09  3083.71  3083.83  3085.30
eigval :     3091.29  3093.27  3098.77  3101.67  3105.32  3105.58
eigval :     3112.97  3426.44  3458.46  3461.30  3513.99  3517.14

   temp. (K)  partition function   enthalpy   heat capacity  entropy
                                   cal/mol     cal/K/mol   cal/K/mol   J/K/mol
 298.15  VIB  0.239E+17            22493.223    148.782    136.022
         ROT  0.152E+09              888.752      2.981     40.419
         INT  0.364E+25            23381.975    151.763    176.441
         TR   0.157E+29             1481.254      4.968     45.238
         TOT                       24863.2294   156.7310   221.6792   927.5058

       T/K    H(0)-H(T)+PV         H(T)/Eh          T*S/Eh         G(T)/Eh
   ------------------------------------------------------------------------
    298.15    0.396221E-01    0.625157E+00    0.105327E+00    0.519831E+00
   ------------------------------------------------------------------------

         :::::::::::::::::::::::::::::::::::::::::::::::::::::
         ::                  THERMODYNAMIC                  ::
         :::::::::::::::::::::::::::::::::::::::::::::::::::::
         :: total free energy        -126.247904345659 Eh   ::
         ::.................................................::
         :: total energy             -126.767734887553 Eh   ::
         :: zero point energy           0.585535405909 Eh   ::
         :: G(RRHO) w/o ZPVE           -0.065704864015 Eh   ::
         :: G(RRHO) contrib.            0.519830541894 Eh   ::
         :::::::::::::::::::::::::::::::::::::::::::::::::::::

           -------------------------------------------------
          | TOTAL ENERGY             -126.767734887553 Eh   |
          | TOTAL ENTHALPY           -126.142577403564 Eh   |
          | TOTAL FREE ENERGY        -126.247904345659 Eh   |
          | GRADIENT NORM               0.000039400380 Eh/α |
          | HOMO-LUMO GAP               1.669817816157 eV   |
           -------------------------------------------------

 * finished run on 2025/09/12 at 01:14:08.294
