   * xtb version 6.7.1 (edcfbbe) compiled by 'albert@albert-system' on 2024-07-22

   ID    Z sym.   atoms
    1    7 N      1, 12, 21
    2    6 C      2-7, 9-11, 13-15, 17-20, 22-49
    3    8 O      8, 50
    4    5 B      16
    5    1 H      51-78

          program call               : xtb data2507/toluene/BO3N/BO3N_toluene_S0_crest.xyz --gfn 2 --gbsa toluene --ohess vtight --parallel 40 --molden --ceasefiles --namespace data2507/toluene/BO3N/BO3N_toluene_S0_finalOpt
      * Solvation model:               GBSA
        Solvent                        toluene
        Solvent mass                       9.2140E+01 g/mol
          :  Hamiltonian                  GFN2-xTB          :
 * total energy  :  -126.7697251 Eh     change       -0.8927032E-08 Eh
 * total energy  :  -126.7698008 Eh     change       -0.7576105E-04 Eh
 * total energy  :  -126.7698865 Eh     change       -0.8570268E-04 Eh
 * total energy  :  -126.7699319 Eh     change       -0.4541590E-04 Eh
 * total energy  :  -126.7699925 Eh     change       -0.6054643E-04 Eh
 * total energy  :  -126.7700531 Eh     change       -0.6056608E-04 Eh
 * total energy  :  -126.7700923 Eh     change       -0.3925303E-04 Eh
 * total energy  :  -126.7701342 Eh     change       -0.4186825E-04 Eh
 * total energy  :  -126.7701744 Eh     change       -0.4025038E-04 Eh
 * total energy  :  -126.7702258 Eh     change       -0.5132217E-04 Eh
 * total energy  :  -126.7707193 Eh     change       -0.1082534E-05 Eh
 * total energy  :  -126.7707204 Eh     change       -0.1102149E-05 Eh
 * total energy  :  -126.7707215 Eh     change       -0.1115333E-05 Eh
 * total energy  :  -126.7707226 Eh     change       -0.1113134E-05 Eh
 * total energy  :  -126.7707237 Eh     change       -0.1104801E-05 Eh
 * total energy  :  -126.7707248 Eh     change       -0.1082587E-05 Eh
 * total energy  :  -126.7707258 Eh     change       -0.1056428E-05 Eh
 * total energy  :  -126.7707268 Eh     change       -0.1019153E-05 Eh
 * total energy  :  -126.7707269 Eh     change       -0.7380692E-08 Eh
   *** GEOMETRY OPTIMIZATION CONVERGED AFTER 152 ITERATIONS ***

 final structure:
================
78
 xtb: 6.7.1 (edcfbbe)
N           -6.81534089056024       -3.38645785047631        0.08092542151235
C           -5.52582746722961       -3.00398675331163        0.36985936139129
C           -4.46505951396464       -3.91255962100974        0.24772624940822
C           -3.17301153836209       -3.50033208171029        0.45950473427465
C           -2.83616124114587       -2.18089025076262        0.79923866213428
C           -3.91991090249680       -1.29200793585053        0.94584514796305
C           -5.23402204310663       -1.69639479229017        0.73171171432878
O           -3.80173830342688        0.01904039380788        1.30983157327449
C           -2.60511990415599        0.55932020771619        1.65080906125783
C           -2.60633937193902        1.87902944529780        2.07179994276590
C           -1.40893889026606        2.48945859982888        2.44550337308161
N           -1.40947678697892        3.78009016498795        2.92043059874283
C           -0.21881921636317        1.76208824622407        2.39642046073412
C           -0.23428790705192        0.44985501562504        1.95691039770534
C           -1.42113077771065       -0.18701823523418        1.56841212631510
B           -1.42135296629857       -1.61621040167182        1.04261769543554
C            0.00186537909095       -2.17334851651069        0.79733155805391
C            0.34974604827933       -3.33420768163383        0.09028440842053
C            1.64873778685768       -3.66120628285797       -0.22230009490846
C            2.70201123829395       -2.83967597170537        0.19968009384769
N            3.98716539557187       -3.07641348564310       -0.26081933088960
C            5.04291395410058       -2.17370084262228       -0.29785664513804
C            6.32805106040144       -2.62011245709396       -0.07572113093531
C            7.40687085640855       -1.72775584404467       -0.02867264858111
C            7.20428139518854       -0.38135348552259       -0.14732934693812
C            5.91028095748013        0.12125781612886       -0.40891656194670
C            5.64407471620316        1.49524511981380       -0.50075258996716
C            4.36667601958941        1.98205282816993       -0.71169173323414
C            4.09012853844120        3.38851691617615       -0.66698458678253
C            2.83537319697289        3.85943342007822       -0.79586530340301
C            1.71892610591424        2.98377756980825       -1.00741137484067
C            0.43312120602671        3.47846681058968       -1.04943249719305
C           -0.68218045092641        2.64416511879632       -1.24928548594369
C           -1.99174098995136        3.12570736724982       -1.27341910921785
C           -3.07330545319452        2.28205734241942       -1.49935993603037
C           -4.41036299609133        2.75736697737029       -1.53110332097192
C           -5.44847050889028        1.91140290352596       -1.77188923891344
C           -5.21504997238080        0.53713174120333       -1.99902556274569
C           -3.94931887877090        0.03961821784468       -1.97029810006191
C           -2.83902656236989        0.88571896371147       -1.71655412107295
C           -1.53734346441794        0.40078877737366       -1.67491612544210
C           -0.45106577914588        1.24453375806906       -1.44264128387346
C            0.86860524714256        0.75576770642966       -1.38579604180090
C            1.95159607994671        1.57525707730011       -1.15899748679130
C            3.30396439052018        1.07067385278759       -0.98697206415950
C            3.58886355639303       -0.28066638246696       -0.99381279952226
C            4.82929036354841       -0.78851498870904       -0.58127132465460
C            2.40393093045953       -1.76271773950128        1.02558284761268
C            1.08225117343913       -1.39298088997691        1.25316058630857
O            0.95704582287130       -0.20144471469356        1.91029804312354
H           -7.01309846920193       -4.37361883771731        0.11203324930246
H           -7.55131234230571       -2.79394833675431        0.42998944943063
H           -4.67759944836512       -4.93987549359184       -0.01242897455474
H           -2.38101830548398       -4.22840760448626        0.37938332979111
H           -6.02276887687269       -0.96908549752727        0.85481634893766
H           -3.53611127125936        2.42533130402398        2.10817929511885
H           -0.52489037924398        4.26120167627536        2.91844120441513
H           -2.20671330150635        4.34748000087614        2.68310518602887
H            0.71667938266723        2.21780757603308        2.68255589227183
H           -0.44051573216692       -3.96872365365878       -0.27877236393640
H            1.86277763975923       -4.53063147220703       -0.82794289623451
H            4.22696639521466       -4.04188044205518       -0.43619476049446
H            6.50399998719140       -3.67275395164255        0.09802274808049
H            8.39858359592234       -2.11735205411045        0.14979709666785
H            8.02395213322112        0.31418576400692       -0.04403065366776
H            6.46008934603702        2.19167732623640       -0.36298467959840
H            4.92064624777112        4.06002257220803       -0.49932196737928
H            2.63362323503037        4.91995936940476       -0.73397375017517
H            0.26918269983835        4.54016199178211       -0.92092148485581
H           -2.16731896590084        4.18204291842745       -1.11988778303592
H           -4.58427248893607        3.81078033602507       -1.36010339697588
H           -6.46327898951623        2.28253730540541       -1.79343418413414
H           -6.05366577339713       -0.11592931420266       -2.19176119822719
H           -3.76393205561275       -1.01228431650644       -2.13444375588849
H           -1.36207454792958       -0.65605303341150       -1.82194632643518
H            0.99394347569262       -0.30834076737105       -1.51503625075694
H            2.82927558641915       -0.98031411212850       -1.29333050328014
H            3.18356642610389       -1.13429241768702        1.42540642394972

          :  Hamiltonian                  GFN2-xTB          :
         :: gradient norm              0.000079313117 Eh/a0 ::
         :: HOMO-LUMO gap              1.761369576287 eV    ::
         :: SCC energy              -129.011435664118 Eh    ::
         :: -> dispersion             -0.130279752712 Eh    ::
         :: -> Gsolv                  -0.044183893036 Eh    ::
         :: repulsion energy           2.240708811884 Eh    ::

    * Orbital Energies and Occupations

         #    Occupation            Energy/Eh            Energy/eV
      -------------------------------------------------------------
         1        2.0000           -0.7202762             -19.5997
       ...           ...                  ...                  ...
       105        2.0000           -0.4053280             -11.0295
       106        2.0000           -0.4049702             -11.0198
       107        2.0000           -0.3961422             -10.7796
       108        2.0000           -0.3889803             -10.5847
       109        2.0000           -0.3868871             -10.5277
       110        2.0000           -0.3857819             -10.4977
       111        2.0000           -0.3839839             -10.4487
       112        2.0000           -0.3750735             -10.2063
       113        2.0000           -0.3674659              -9.9993
       114        2.0000           -0.3635470              -9.8926
       115        2.0000           -0.3577009              -9.7335
       116        2.0000           -0.3535032              -9.6193
       117        2.0000           -0.3503732              -9.5341 (HOMO)
       118                         -0.2856440              -7.7728 (LUMO)
       119                         -0.2723394              -7.4107
       120                         -0.2535892              -6.9005
       121                         -0.2393997              -6.5144
       122                         -0.2281383              -6.2080
       123                         -0.2232382              -6.0746
       124                         -0.2165245              -5.8919
       125                         -0.2100954              -5.7170
       126                         -0.2088956              -5.6843
       127                         -0.2007346              -5.4623
       128                         -0.1957698              -5.3272
       ...                                ...                  ...
       228                          0.7430615              20.2197
      -------------------------------------------------------------
                  HL-Gap            0.0647291 Eh            1.7614 eV

     #   Z          covCN         q      C6AA      α(0)
     1   7 N        2.641    -0.274    27.095     7.731
     2   6 C        2.899     0.082    26.169     8.388
     3   6 C        2.918    -0.072    29.785     8.950
     4   6 C        2.923    -0.036    28.884     8.814
     5   6 C        2.882    -0.106    30.680     9.081
     6   6 C        2.874     0.137    25.005     8.197
     7   6 C        2.921    -0.088    30.218     9.015
     8   8 O        1.712    -0.247    18.088     5.742
     9   6 C        2.872     0.137    25.016     8.199
    10   6 C        2.919    -0.102    30.561     9.065
    11   6 C        2.901     0.083    26.148     8.384
    12   7 N        2.642    -0.272    27.044     7.723
    13   6 C        2.918    -0.101    30.549     9.064
    14   6 C        2.874     0.136    25.025     8.201
    15   6 C        2.889    -0.136    31.470     9.197
    16   5 B        2.724     0.206    18.295     7.167
    17   6 C        2.882    -0.103    30.583     9.066
    18   6 C        2.924    -0.035    28.883     8.813
    19   6 C        2.919    -0.070    29.746     8.944
    20   6 C        2.904     0.072    26.384     8.422
    21   7 N        2.698    -0.154    24.330     7.326
    22   6 C        2.900     0.063    26.583     8.454
    23   6 C        2.921    -0.063    29.556     8.915
    24   6 C        2.914    -0.032    28.790     8.799
    25   6 C        2.917    -0.049    29.205     8.862
    26   6 C        2.984     0.009    27.815     8.651
    27   6 C        2.923    -0.046    29.132     8.851
    28   6 C        2.981     0.010    27.790     8.647
    29   6 C        2.911    -0.036    28.907     8.816
    30   6 C        2.912    -0.037    28.927     8.819
    31   6 C        2.979     0.010    27.786     8.647
    32   6 C        2.922    -0.047    29.156     8.855
    33   6 C        2.979     0.007    27.861     8.658
    34   6 C        2.921    -0.047    29.166     8.856
    35   6 C        2.982     0.011    27.758     8.642
    36   6 C        2.916    -0.037    28.909     8.817
    37   6 C        2.914    -0.030    28.740     8.791
    38   6 C        2.914    -0.029    28.730     8.789
    39   6 C        2.917    -0.033    28.817     8.803
    40   6 C        2.982     0.011    27.755     8.642
    41   6 C        2.922    -0.044    29.091     8.845
    42   6 C        2.981     0.007    27.868     8.659
    43   6 C        2.922    -0.042    29.045     8.838
    44   6 C        2.974     0.006    27.885     8.662
    45   6 C        2.976     0.003    27.941     8.671
    46   6 C        2.923    -0.039    28.966     8.826
    47   6 C        2.985    -0.004    28.121     8.699
    48   6 C        2.920    -0.076    29.909     8.968
    49   6 C        2.877     0.137    25.001     8.197
    50   8 O        1.712    -0.251    18.159     5.753
    51   1 H        0.860     0.169     1.282     1.773
    52   1 H        0.860     0.166     1.294     1.782
    53   1 H        0.926     0.030     2.583     2.513
    54   1 H        0.926     0.038     2.476     2.460
    55   1 H        0.926     0.034     2.533     2.489
    56   1 H        0.926     0.038     2.472     2.459
    57   1 H        0.860     0.171     1.268     1.764
    58   1 H        0.860     0.171     1.264     1.761
    59   1 H        0.926     0.036     2.496     2.471
    60   1 H        0.926     0.041     2.441     2.443
    61   1 H        0.926     0.031     2.568     2.506
    62   1 H        0.860     0.165     1.302     1.787
    63   1 H        0.925     0.028     2.611     2.527
    64   1 H        0.926     0.033     2.551     2.497
    65   1 H        0.926     0.032     2.564     2.504
    66   1 H        0.925     0.034     2.525     2.485
    67   1 H        0.926     0.032     2.551     2.498
    68   1 H        0.925     0.032     2.559     2.501
    69   1 H        0.925     0.033     2.543     2.494
    70   1 H        0.925     0.033     2.547     2.496
    71   1 H        0.925     0.032     2.561     2.503
    72   1 H        0.926     0.032     2.556     2.500
    73   1 H        0.926     0.033     2.542     2.493
    74   1 H        0.926     0.029     2.597     2.520
    75   1 H        0.925     0.030     2.582     2.513
    76   1 H        0.926     0.028     2.609     2.526
    77   1 H        0.926     0.037     2.489     2.467
    78   1 H        0.926     0.037     2.482     2.464

molecular dipole:
                 x           y           z       tot (Debye)
 q only:       -0.675      -0.318      -0.196
   full:       -0.703      -0.311      -0.075       1.964

 projected vibrational frequencies (cm⁻¹)
eigval :       -0.00    -0.00     0.00     0.00     0.00     0.00
eigval :       10.66    25.38    29.61    34.17    44.83    56.31
eigval :       64.26    68.36    71.04    78.24    91.23   102.75
eigval :      111.29   123.57   147.18   159.27   178.54   182.28
eigval :      190.55   210.67   216.56   227.37   232.71   252.69
eigval :      257.56   266.90   274.01   279.74   286.77   295.42
eigval :      302.02   307.13   317.73   334.88   337.64   354.40
eigval :      362.21   371.91   374.28   379.10   388.27   389.57
eigval :      398.88   408.18   420.27   429.97   430.62   436.19
eigval :      446.83   457.97   469.72   489.47   490.37   491.77
eigval :      503.58   506.72   511.10   513.81   516.89   529.61
eigval :      532.53   548.68   560.05   564.89   574.04   580.96
eigval :      588.78   591.09   594.73   595.26   603.73   605.76
eigval :      613.50   630.38   640.18   657.38   677.12   683.97
eigval :      687.10   701.21   708.19   710.41   722.32   726.77
eigval :      731.57   749.65   752.53   762.06   769.15   781.06
eigval :      787.06   794.84   803.76   804.67   811.25   813.19
eigval :      818.73   829.48   843.51   844.12   852.08   855.01
eigval :      855.66   862.56   865.08   868.18   872.31   872.69
eigval :      876.39   889.46   893.98   896.20   897.15   903.55
eigval :      905.73   913.06   915.54   916.96   926.40   973.68
eigval :      986.08   992.98  1018.87  1026.93  1034.72  1068.23
eigval :     1069.35  1079.30  1082.47  1118.98  1128.87  1138.60
eigval :     1150.97  1153.90  1164.93  1167.77  1175.07  1176.53
eigval :     1177.76  1184.34  1187.01  1189.31  1193.45  1207.97
eigval :     1223.11  1227.38  1235.43  1243.00  1244.31  1250.44
eigval :     1258.54  1269.99  1275.50  1281.99  1287.73  1291.92
eigval :     1309.52  1314.87  1322.58  1326.48  1332.11  1337.96
eigval :     1339.79  1343.04  1350.29  1363.94  1369.82  1389.27
eigval :     1397.15  1404.26  1412.30  1412.88  1416.18  1423.08
eigval :     1424.37  1433.20  1447.32  1458.54  1460.43  1466.69
eigval :     1471.53  1479.85  1488.96  1504.60  1509.67  1521.77
eigval :     1528.82  1539.21  1540.49  1542.95  1551.94  1561.29
eigval :     1576.26  1578.28  1587.31  1590.49  1592.81  1609.72
eigval :     1613.01  1619.37  3056.69  3059.33  3060.87  3062.21
eigval :     3063.68  3064.69  3067.14  3067.30  3067.95  3070.68
eigval :     3074.15  3074.26  3074.40  3085.05  3086.96  3087.11
eigval :     3089.86  3091.83  3094.37  3097.41  3103.26  3108.88
eigval :     3138.76  3417.82  3456.05  3459.45  3510.87  3515.73

   temp. (K)  partition function   enthalpy   heat capacity  entropy
                                   cal/mol     cal/K/mol   cal/K/mol   J/K/mol
 298.15  VIB  0.617E+15            22207.157    149.862    132.397
         ROT  0.566E+08              888.752      2.981     38.458
         INT  0.349E+23            23095.909    152.843    170.855
         TR   0.157E+29             1481.254      4.968     45.238
         TOT                       24577.1634   157.8108   216.0927   904.1319

       T/K    H(0)-H(T)+PV         H(T)/Eh          T*S/Eh         G(T)/Eh
   ------------------------------------------------------------------------
    298.15    0.391662E-01    0.625300E+00    0.102673E+00    0.522628E+00
   ------------------------------------------------------------------------

         :::::::::::::::::::::::::::::::::::::::::::::::::::::
         ::                  THERMODYNAMIC                  ::
         :::::::::::::::::::::::::::::::::::::::::::::::::::::
         :: total free energy        -126.248098977414 Eh   ::
         ::.................................................::
         :: total energy             -126.770726845567 Eh   ::
         :: zero point energy           0.586134288258 Eh   ::
         :: G(RRHO) w/o ZPVE           -0.063506420105 Eh   ::
         :: G(RRHO) contrib.            0.522627868153 Eh   ::
         :::::::::::::::::::::::::::::::::::::::::::::::::::::

           -------------------------------------------------
          | TOTAL ENERGY             -126.770726845567 Eh   |
          | TOTAL ENTHALPY           -126.145426354457 Eh   |
          | TOTAL FREE ENERGY        -126.248098977414 Eh   |
          | GRADIENT NORM               0.000079314985 Eh/α |
          | HOMO-LUMO GAP               1.761369504563 eV   |
           -------------------------------------------------

 * finished run on 2025/09/12 at 01:19:06.662
