   * xtb version 6.7.1 (edcfbbe) compiled by 'albert@albert-system' on 2024-07-22

   ID    Z sym.   atoms
    1    7 N      1, 12, 21
    2    6 C      2-7, 9-11, 13-15, 17-20, 22-49
    3    8 O      8, 50
    4    5 B      16
    5    1 H      51-78

          program call               : xtb data2507/toluene/BO3N/BO3N_toluene_S0_finalOpt.xtbopt.xyz --gfn 2 --uhf 2 --gbsa toluene --ohess vtight --parallel 40 --molden --ceasefiles --namespace data2507/toluene/BO3N/BO3N_toluene_T1_preOpt
      * Solvation model:               GBSA
        Solvent                        toluene
        Solvent mass                       9.2140E+01 g/mol
          :  Hamiltonian                  GFN2-xTB          :
 * total energy  :  -126.7036679 Eh     change       -0.6239190E-08 Eh
 * total energy  :  -126.7076376 Eh     change       -0.3969647E-02 Eh
 * total energy  :  -126.7087058 Eh     change       -0.1068224E-02 Eh
 * total energy  :  -126.7087624 Eh     change       -0.5659140E-04 Eh
 * total energy  :  -126.7087918 Eh     change       -0.2946602E-04 Eh
 * total energy  :  -126.7088026 Eh     change       -0.1076893E-04 Eh
 * total energy  :  -126.7088174 Eh     change       -0.1480964E-04 Eh
 * total energy  :  -126.7088376 Eh     change       -0.2021245E-04 Eh
 * total energy  :  -126.7088526 Eh     change       -0.1497631E-04 Eh
 * total energy  :  -126.7088635 Eh     change       -0.1088359E-04 Eh
 * total energy  :  -126.7089203 Eh     change       -0.4065481E-06 Eh
 * total energy  :  -126.7089207 Eh     change       -0.3991286E-06 Eh
 * total energy  :  -126.7089211 Eh     change       -0.3940897E-06 Eh
 * total energy  :  -126.7089215 Eh     change       -0.4034810E-06 Eh
 * total energy  :  -126.7089219 Eh     change       -0.4338197E-06 Eh
 * total energy  :  -126.7089224 Eh     change       -0.4735348E-06 Eh
 * total energy  :  -126.7089229 Eh     change       -0.4782448E-06 Eh
 * total energy  :  -126.7089233 Eh     change       -0.4211446E-06 Eh
 * total energy  :  -126.7089233 Eh     change       -0.3863718E-08 Eh
   *** GEOMETRY OPTIMIZATION CONVERGED AFTER 44 ITERATIONS ***

 final structure:
================
78
 xtb: 6.7.1 (edcfbbe)
N           -6.82965658144324       -3.46783172464871        0.13330638876733
C           -5.54375314337573       -3.06095072352927        0.39996467264637
C           -4.46770962330045       -3.94907654159092        0.25836184491641
C           -3.18051296309961       -3.51299297575582        0.44974308204108
C           -2.86219099880961       -2.18800527119993        0.78674638638749
C           -3.96067420079612       -1.31945425307268        0.95150109236998
C           -5.27030962428257       -1.74858618802432        0.75901610881362
O           -3.86225397130917       -0.00799274297380        1.31774558852475
C           -2.67000627493547        0.55878254470022        1.62736617578038
C           -2.68887023821418        1.88172142993738        2.03712830092110
C           -1.49644727331880        2.51887838516165        2.38258232351335
N           -1.51298429932649        3.81268259957645        2.84510674108827
C           -0.29393091027824        1.81246491600455        2.32142120268753
C           -0.29236706303903        0.49639290978038        1.89410893586044
C           -1.47324525336633       -0.16530121483394        1.52740567956411
B           -1.45481538635877       -1.59771956797740        1.01044698527345
C           -0.02366504639095       -2.14056331269843        0.77095377146274
C            0.33827145870810       -3.31341116660392        0.09160309563203
C            1.64241568036872       -3.64029932512472       -0.19931479978583
C            2.68741687775722       -2.80452046416631        0.21637759874400
N            3.97985406416466       -3.05849650553098       -0.21307930532687
C            5.04479680459184       -2.17065603738330       -0.27503867253629
C            6.32327419021322       -2.63127186362135       -0.05050911798134
C            7.41747653528150       -1.75254401725485       -0.02567953005415
C            7.23714330683745       -0.40749606012910       -0.17203728899816
C            5.94874814764178        0.11622358869374       -0.43689625017931
C            5.70929337691293        1.48474031726256       -0.55995484357477
C            4.43156749435010        1.99548480208104       -0.77675009371324
C            4.16746597492681        3.38596425351747       -0.74379914438306
C            2.89159999218845        3.85999761156497       -0.86236262948870
C            1.79391024927123        2.99000048855554       -1.05434315178525
C            0.47094826526637        3.48631363134661       -1.07526007834882
C           -0.63431968152038        2.65322446908109       -1.23817454751527
C           -1.95405764258995        3.12541598939130       -1.21663987937662
C           -3.05901474234758        2.27154725537151       -1.42165201542179
C           -4.37746915610120        2.74039967695750       -1.40998517023628
C           -5.44319107620172        1.88029386751698       -1.63865217004240
C           -5.21357492780409        0.53797597523398       -1.88919975128726
C           -3.91529859545962        0.04332964652373       -1.90058929741394
C           -2.82573329588670        0.88431595781301       -1.66319918253500
C           -1.49551187439517        0.40495853456644       -1.65558931767394
C           -0.40516263334062        1.25088437663283       -1.44457799403252
C            0.90818569602801        0.76760538268478       -1.42366572671628
C            2.01784426443219        1.59713231241791       -1.20151057046310
C            3.35191852658449        1.08642178499821       -1.03775679718466
C            3.62454956702292       -0.27477519958199       -1.01819753255692
C            4.84899581284864       -0.78551256545407       -0.58805358292136
C            2.37435797016565       -1.70657756864458        1.00860941285756
C            1.04796105177554       -1.33985533861614        1.21437735406102
O            0.90907138889823       -0.13464917249686        1.84067708418039
H           -7.00883624719643       -4.45851912238401        0.16100676018718
H           -7.57248458252532       -2.88878992643028        0.49004086523850
H           -4.66503556264623       -4.97972799442485       -0.00041533291399
H           -2.37722885506452       -4.22647092339941        0.35466286774956
H           -6.07011524078978       -1.03608324348946        0.89614629807766
H           -3.62824953358958        2.41018005467706        2.08548374640387
H           -0.63840593098627        4.31120391611554        2.82555263487573
H           -2.32708653225656        4.36224121105682        2.62388436544496
H            0.63751110452730        2.28736168449702        2.58869131030277
H           -0.44389733647152       -3.96166342463498       -0.27012434561439
H            1.86730258716625       -4.52247546740642       -0.78200974665109
H            4.21149270394851       -4.03021970253233       -0.36648718130952
H            6.48538756760248       -3.68175170695774        0.14724939873376
H            8.40298443892373       -2.15500469086414        0.15830548204755
H            8.06874079879270        0.27635243953153       -0.08793037165446
H            6.53602044876197        2.17255018114604       -0.44531632184800
H            4.99276442962849        4.06527312353802       -0.58414471688110
H            2.69804636987817        4.92181479943375       -0.79628942085099
H            0.31612585131930        4.54834714522050       -0.94261420692867
H           -2.13286982300024        4.17889868916724       -1.05199455278099
H           -4.56019783387547        3.78896820028409       -1.22052071702659
H           -6.45340057242528        2.26352876976573       -1.62344682673625
H           -6.04112460389701       -0.13151164284258       -2.07146488420461
H           -3.73781788398370       -1.00582276950474       -2.08823162896620
H           -1.32318028727992       -0.64915882561769       -1.82012462678185
H            1.03856295163598       -0.29312484577777       -1.57039324630906
H            2.85440265699164       -0.96873857218964       -1.30309841952796
H            3.14631633365193       -1.06468619219871        1.40152506361570

          :  Hamiltonian                  GFN2-xTB          :
         :: gradient norm              0.000042846696 Eh/a0 ::
         :: HOMO-LUMO gap              0.435249320768 eV    ::
         :: SCC energy              -128.933999333009 Eh    ::
         :: -> dispersion             -0.131008723228 Eh    ::
         :: -> Gsolv                  -0.043953230854 Eh    ::
         :: repulsion energy           2.225076032607 Eh    ::

    * Orbital Energies and Occupations

         #    Occupation            Energy/Eh            Energy/eV
      -------------------------------------------------------------
         1        2.0000           -0.7219381             -19.6449
       ...           ...                  ...                  ...
       106        2.0000           -0.4043039             -11.0017
       107        2.0000           -0.3964591             -10.7882
       108        2.0000           -0.3882654             -10.5652
       109        2.0000           -0.3874407             -10.5428
       110        2.0000           -0.3866147             -10.5203
       111        2.0000           -0.3847876             -10.4706
       112        2.0000           -0.3759087             -10.2290
       113        2.0000           -0.3679423             -10.0122
       114        2.0000           -0.3640434              -9.9061
       115        2.0000           -0.3585613              -9.7570
       116        1.9317           -0.3515895              -9.5672
       117        1.0684           -0.3466254              -9.4322
       118        0.9998           -0.2894973              -7.8776 (HOMO)
       119        0.0002           -0.2735023              -7.4424 (LUMO)
       120                         -0.2546058              -6.9282
       121                         -0.2398620              -6.5270
       122                         -0.2274354              -6.1888
       123                         -0.2230903              -6.0706
       124                         -0.2178600              -5.9283
       125                         -0.2111353              -5.7453
       126                         -0.2087878              -5.6814
       127                         -0.2016218              -5.4864
       128                         -0.1966260              -5.3505
       129                         -0.1876609              -5.1065
       ...                                ...                  ...
       228                          0.7322063              19.9243
      -------------------------------------------------------------
                  HL-Gap            0.0159950 Eh            0.4352 eV

     #   Z          covCN         q      C6AA      α(0)
     1   7 N        2.641    -0.273    27.052     7.725
     2   6 C        2.899     0.083    26.157     8.386
     3   6 C        2.918    -0.071    29.771     8.947
     4   6 C        2.923    -0.035    28.881     8.813
     5   6 C        2.882    -0.105    30.654     9.077
     6   6 C        2.874     0.138    24.988     8.195
     7   6 C        2.921    -0.088    30.212     9.014
     8   8 O        1.712    -0.245    18.059     5.738
     9   6 C        2.872     0.137    25.000     8.196
    10   6 C        2.918    -0.100    30.526     9.060
    11   6 C        2.901     0.084    26.126     8.381
    12   7 N        2.643    -0.269    26.973     7.713
    13   6 C        2.918    -0.100    30.527     9.060
    14   6 C        2.874     0.137    25.013     8.199
    15   6 C        2.888    -0.134    31.427     9.191
    16   5 B        2.724     0.206    18.296     7.167
    17   6 C        2.881    -0.100    30.514     9.056
    18   6 C        2.924    -0.035    28.869     8.811
    19   6 C        2.919    -0.068    29.706     8.938
    20   6 C        2.903     0.072    26.389     8.423
    21   7 N        2.698    -0.146    24.168     7.301
    22   6 C        2.898     0.064    26.573     8.452
    23   6 C        2.921    -0.063    29.555     8.915
    24   6 C        2.913    -0.031    28.773     8.796
    25   6 C        2.916    -0.047    29.164     8.856
    26   6 C        2.982     0.009    27.810     8.650
    27   6 C        2.922    -0.046    29.152     8.854
    28   6 C        2.980     0.009    27.821     8.652
    29   6 C        2.913    -0.041    29.022     8.834
    30   6 C        2.914    -0.040    28.986     8.828
    31   6 C        2.979     0.008    27.831     8.654
    32   6 C        2.921    -0.052    29.284     8.874
    33   6 C        2.973     0.009    27.825     8.652
    34   6 C        2.919    -0.052    29.282     8.874
    35   6 C        2.978     0.011    27.757     8.642
    36   6 C        2.919    -0.039    28.970     8.826
    37   6 C        2.914    -0.031    28.782     8.797
    38   6 C        2.914    -0.030    28.757     8.794
    39   6 C        2.920    -0.035    28.875     8.812
    40   6 C        2.979     0.011    27.767     8.644
    41   6 C        2.920    -0.048    29.186     8.859
    42   6 C        2.975     0.008    27.829     8.653
    43   6 C        2.921    -0.045    29.129     8.851
    44   6 C        2.975     0.006    27.877     8.661
    45   6 C        2.978     0.004    27.941     8.671
    46   6 C        2.922    -0.038    28.951     8.824
    47   6 C        2.983    -0.004    28.115     8.698
    48   6 C        2.920    -0.075    29.883     8.964
    49   6 C        2.877     0.138    24.978     8.193
    50   8 O        1.712    -0.248    18.104     5.745
    51   1 H        0.860     0.169     1.278     1.771
    52   1 H        0.860     0.167     1.291     1.780
    53   1 H        0.926     0.031     2.569     2.507
    54   1 H        0.926     0.039     2.461     2.453
    55   1 H        0.926     0.035     2.521     2.483
    56   1 H        0.926     0.039     2.456     2.451
    57   1 H        0.860     0.172     1.262     1.759
    58   1 H        0.860     0.172     1.259     1.757
    59   1 H        0.926     0.038     2.479     2.462
    60   1 H        0.926     0.043     2.413     2.429
    61   1 H        0.926     0.034     2.536     2.490
    62   1 H        0.860     0.168     1.285     1.776
    63   1 H        0.926     0.029     2.594     2.518
    64   1 H        0.926     0.034     2.535     2.490
    65   1 H        0.926     0.032     2.552     2.498
    66   1 H        0.925     0.033     2.538     2.491
    67   1 H        0.926     0.030     2.587     2.515
    68   1 H        0.925     0.029     2.598     2.521
    69   1 H        0.925     0.029     2.605     2.524
    70   1 H        0.926     0.029     2.605     2.524
    71   1 H        0.926     0.030     2.592     2.518
    72   1 H        0.926     0.031     2.575     2.509
    73   1 H        0.926     0.032     2.557     2.501
    74   1 H        0.926     0.028     2.621     2.531
    75   1 H        0.926     0.028     2.619     2.531
    76   1 H        0.926     0.026     2.643     2.542
    77   1 H        0.926     0.038     2.481     2.463
    78   1 H        0.926     0.040     2.454     2.450

molecular dipole:
                 x           y           z       tot (Debye)
 q only:       -0.579      -0.762       0.044
   full:       -0.620      -0.736       0.157       2.479

 projected vibrational frequencies (cm⁻¹)
eigval :       -0.00    -0.00    -0.00     0.00     0.00     0.00
eigval :       11.56    22.94    23.49    32.29    43.31    53.61
eigval :       59.79    68.80    69.92    76.41    92.58   101.68
eigval :      109.51   122.30   144.01   154.33   178.36   180.43
eigval :      190.12   208.10   214.19   224.34   233.29   251.05
eigval :      255.20   265.60   271.44   274.70   284.57   290.71
eigval :      298.93   303.57   309.56   329.88   333.82   353.83
eigval :      356.75   371.77   376.78   384.18   390.45   395.48
eigval :      400.26   403.67   418.19   422.15   426.43   429.16
eigval :      435.19   454.80   468.09   483.13   484.20   487.07
eigval :      495.10   496.08   498.54   504.64   509.50   527.18
eigval :      530.00   545.22   554.60   559.46   571.37   574.47
eigval :      579.41   591.16   593.52   597.87   601.79   604.03
eigval :      608.99   627.99   638.44   655.81   669.81   676.08
eigval :      683.34   696.13   700.24   703.73   707.66   717.08
eigval :      723.39   740.64   750.26   752.05   760.88   768.04
eigval :      774.38   782.02   786.50   795.17   796.69   802.45
eigval :      804.32   805.76   811.50   814.30   819.37   836.37
eigval :      841.84   845.32   847.63   852.44   861.54   867.85
eigval :      871.75   886.19   886.76   890.89   892.98   895.26
eigval :      897.98   899.97   903.90   907.31   910.19   973.61
eigval :      985.84   992.29  1016.95  1025.58  1034.21  1067.94
eigval :     1075.02  1078.95  1082.08  1086.97  1114.28  1128.70
eigval :     1130.35  1140.45  1152.60  1167.09  1169.56  1175.67
eigval :     1180.07  1181.68  1187.69  1190.37  1191.65  1200.41
eigval :     1216.90  1223.10  1228.09  1237.73  1240.71  1242.81
eigval :     1249.67  1257.42  1263.82  1270.81  1278.91  1285.89
eigval :     1292.09  1301.73  1309.32  1314.55  1321.29  1334.37
eigval :     1340.39  1341.82  1345.05  1348.39  1364.47  1370.82
eigval :     1381.14  1388.68  1395.06  1400.24  1408.38  1411.88
eigval :     1415.55  1420.32  1424.74  1432.34  1454.19  1457.48
eigval :     1461.32  1470.81  1476.25  1479.04  1487.16  1495.50
eigval :     1503.09  1509.13  1516.22  1520.28  1525.96  1536.24
eigval :     1538.72  1546.39  1547.53  1558.94  1574.75  1585.20
eigval :     1588.47  1606.50  3060.09  3061.77  3062.99  3064.37
eigval :     3065.17  3065.68  3068.19  3069.23  3070.48  3073.00
eigval :     3074.43  3075.36  3075.58  3086.22  3086.76  3088.75
eigval :     3092.14  3093.17  3095.28  3099.37  3105.68  3110.89
eigval :     3140.30  3411.20  3457.25  3459.58  3512.57  3516.21

   temp. (K)  partition function   enthalpy   heat capacity  entropy
                                   cal/mol     cal/K/mol   cal/K/mol   J/K/mol
 298.15  VIB  0.127E+16            22465.895    151.203    133.964
         ROT  0.568E+08              888.752      2.981     38.462
         INT  0.719E+23            23354.648    154.184    172.427
         TR   0.157E+29             1481.254      4.968     45.238
         TOT                       24835.9014   159.1523   217.6643   910.7076

       T/K    H(0)-H(T)+PV         H(T)/Eh          T*S/Eh         G(T)/Eh
   ------------------------------------------------------------------------
    298.15    0.395785E-01    0.621875E+00    0.103419E+00    0.518455E+00
   ------------------------------------------------------------------------

         :::::::::::::::::::::::::::::::::::::::::::::::::::::
         ::                  THERMODYNAMIC                  ::
         :::::::::::::::::::::::::::::::::::::::::::::::::::::
         :: total free energy        -126.190468002544 Eh   ::
         ::.................................................::
         :: total energy             -126.708923295305 Eh   ::
         :: zero point energy           0.582296115398 Eh   ::
         :: G(RRHO) w/o ZPVE           -0.063840822638 Eh   ::
         :: G(RRHO) contrib.            0.518455292760 Eh   ::
         :::::::::::::::::::::::::::::::::::::::::::::::::::::

           -------------------------------------------------
          | TOTAL ENERGY             -126.708923295305 Eh   |
          | TOTAL ENTHALPY           -126.087048651682 Eh   |
          | TOTAL FREE ENERGY        -126.190468002544 Eh   |
          | GRADIENT NORM               0.000042803006 Eh/α |
          | HOMO-LUMO GAP               0.435246061285 eV   |
           -------------------------------------------------

 * finished run on 2025/09/12 at 01:19:14.380
