   * xtb version 6.7.1 (edcfbbe) compiled by 'albert@albert-system' on 2024-07-22

   ID    Z sym.   atoms
    1    7 N      1, 12, 21
    2    6 C      2-7, 9-11, 13-15, 17-20, 22-49
    3    8 O      8, 50
    4    5 B      16
    5    1 H      51-78

          program call               : xtb data2507/toluene/BO3N/BO3N_toluene_T1_crest.xyz --gfn 2 --uhf 2 --gbsa toluene --ohess vtight --parallel 40 --molden --ceasefiles --namespace data2507/toluene/BO3N/BO3N_toluene_T1_finalOpt
      * Solvation model:               GBSA
        Solvent                        toluene
        Solvent mass                       9.2140E+01 g/mol
          :  Hamiltonian                  GFN2-xTB          :
 * total energy  :  -126.7080719 Eh     change       -0.7013483E-08 Eh
 * total energy  :  -126.7081433 Eh     change       -0.7144307E-04 Eh
 * total energy  :  -126.7082190 Eh     change       -0.7566481E-04 Eh
 * total energy  :  -126.7082690 Eh     change       -0.5003550E-04 Eh
 * total energy  :  -126.7083064 Eh     change       -0.3733538E-04 Eh
 * total energy  :  -126.7083499 Eh     change       -0.4350960E-04 Eh
 * total energy  :  -126.7083888 Eh     change       -0.3895053E-04 Eh
 * total energy  :  -126.7084169 Eh     change       -0.2805090E-04 Eh
 * total energy  :  -126.7084562 Eh     change       -0.3926633E-04 Eh
 * total energy  :  -126.7085016 Eh     change       -0.4545802E-04 Eh
 * total energy  :  -126.7086727 Eh     change       -0.6598385E-06 Eh
 * total energy  :  -126.7086735 Eh     change       -0.7979042E-06 Eh
 * total energy  :  -126.7086744 Eh     change       -0.8821933E-06 Eh
 * total energy  :  -126.7086753 Eh     change       -0.9038532E-06 Eh
 * total energy  :  -126.7086762 Eh     change       -0.9116607E-06 Eh
 * total energy  :  -126.7086771 Eh     change       -0.9379386E-06 Eh
 * total energy  :  -126.7086781 Eh     change       -0.1018663E-05 Eh
 * total energy  :  -126.7086793 Eh     change       -0.1105941E-05 Eh
 * total energy  :  -126.7086793 Eh     change       -0.7031019E-08 Eh
   *** GEOMETRY OPTIMIZATION CONVERGED AFTER 44 ITERATIONS ***

 final structure:
================
78
 xtb: 6.7.1 (edcfbbe)
N           -6.87199624945785       -3.23577421736368       -0.13697738370714
C           -5.58125479063902       -2.87318122450794        0.16959706966484
C           -4.52503818222607       -3.78095457211579        0.00798725729991
C           -3.23132033741225       -3.38623075394788        0.24108366284571
C           -2.88642610805227       -2.08559928637358        0.64029249379401
C           -3.96593397857735       -1.19703909760702        0.82057646347750
C           -5.28230699422761       -1.58469785044015        0.58899845982299
O           -3.84217713787932        0.09551349690418        1.24227744875885
C           -2.64209132791842        0.61829466863670        1.59727450406917
C           -2.63839534139638        1.91914054952033        2.07361103600475
C           -1.43877189093312        2.50948469340387        2.47381118613825
N           -1.41570936545857        3.82248811895209        2.87712769945723
C           -0.25298405055715        1.77637195997640        2.40355269458458
C           -0.27364568163157        0.48339447676735        1.90989870574069
C           -1.46211338480746       -0.13120896068365        1.48995088432529
B           -1.46900671856550       -1.54193116290435        0.91543674967020
C           -0.04779387627080       -2.11799314694248        0.69594993699262
C            0.30021753970029       -3.27963620394252       -0.00933655080800
C            1.60219193728554       -3.63462814934650       -0.27679758762999
C            2.65835174896500       -2.84269719904525        0.19204577644677
N            3.95485157181129       -3.11328867248995       -0.21589823532084
C            5.03211985329125       -2.23777942638879       -0.22866121776441
C            6.30142376070447       -2.71183467619193        0.01435371585142
C            7.39702999434048       -1.83744716433391        0.09806296193843
C            7.22388971558852       -0.48703127773699        0.00029317783693
C            5.94478986062206        0.05093019057787       -0.28096165353327
C            5.70552409460194        1.42340307571640       -0.34985612579006
C            4.43235798191241        1.94060050889465       -0.57785589581155
C            4.15818545007973        3.32595954787980       -0.47430393876115
C            2.88221129585469        3.79856061786712       -0.59535639299924
C            1.79590019964695        2.93577895202524       -0.86964986572468
C            0.47024328263032        3.42399128796286       -0.89295999175111
C           -0.62294696573662        2.59620336195159       -1.14146061749883
C           -1.94609823545122        3.05796973727989       -1.12351214066823
C           -3.03803264203262        2.21316709725454       -1.41805522946787
C           -4.35930228440334        2.67310804908107       -1.41411793269524
C           -5.41222670899817        1.82409392536817       -1.72948227970473
C           -5.16658119442707        0.50191906603404       -2.05775167447242
C           -3.86467345637351        0.01546301520590       -2.06240026363594
C           -2.78806008420110        0.84596415747465       -1.74335184381320
C           -1.45472338824256        0.37505411071061       -1.73101394832743
C           -0.37678998722783        1.21273042388348       -1.43613683548153
C            0.93879042368556        0.73699929115283       -1.40977905080983
C            2.03492420182980        1.55711657949176       -1.09940807396889
C            3.36534732352279        1.04353466571327       -0.92064568733444
C            3.64191219180450       -0.31637878326253       -0.95653312923539
C            4.85126886088608       -0.84280707504487       -0.50393843208145
C            2.35416010449345       -1.76253219689765        1.01217957576361
C            1.03353227816491       -1.36398015276667        1.19406724102349
O            0.91193116669313       -0.17699949570016        1.85833695743329
H           -7.07576270205341       -4.22203388317323       -0.15139463693477
H           -7.60593461932211       -2.65378402168887        0.23319493180170
H           -4.74246461137650       -4.79423914355674       -0.29895528456691
H           -2.44459427358195       -4.11545175251626        0.12889217610687
H           -6.06687370705488       -0.85848528569428        0.74156539692111
H           -3.56595975661282        2.46742247452292        2.12916759673584
H           -0.60611799322216        4.12690891114229        3.39223869961950
H           -2.29107517020561        4.22657889651981        3.16685855062734
H            0.68390073714615        2.21402002915755        2.71231526569392
H           -0.48911817423231       -3.89417772480040       -0.41201640652427
H            1.81782497873488       -4.50427412515871       -0.88151009734861
H            4.17342382919716       -4.08407230802484       -0.39122506902401
H            6.45509634043881       -3.76873582333709        0.18243815568674
H            8.37639372258209       -2.24970800529308        0.29327521899141
H            8.05418824809389        0.19011555463407        0.13627092146324
H            6.52614229489309        2.10677890618172       -0.17852183401796
H            4.97450853578377        3.99901070213682       -0.25333311741287
H            2.67823803274074        4.85268870048459       -0.46821742944554
H            0.30153010638314        4.47194619485922       -0.68893126798047
H           -2.13731862726474        4.09450278924648       -0.88545554551641
H           -4.55401793789355        3.70603167237085       -1.16192737989244
H           -6.42510121515203        2.20056030121331       -1.71941947106979
H           -5.98401715341994       -0.15884808799479       -2.30548432348640
H           -3.67542920610668       -1.01926574919950       -2.30919302127223
H           -1.26953716528579       -0.66471361260525       -1.95997604991753
H            1.08288943128412       -0.31050792951468       -1.62374019197029
H            2.88508321212560       -0.99866203273854       -1.29968054446400
H            3.13251499007900       -1.15616166802731        1.44683922405415

          :  Hamiltonian                  GFN2-xTB          :
         :: gradient norm              0.000063405938 Eh/a0 ::
         :: HOMO-LUMO gap              0.421730287899 eV    ::
         :: SCC energy              -128.933886044573 Eh    ::
         :: -> dispersion             -0.132346729622 Eh    ::
         :: -> Gsolv                  -0.043560849820 Eh    ::
         :: repulsion energy           2.225206784491 Eh    ::

    * Orbital Energies and Occupations

         #    Occupation            Energy/Eh            Energy/eV
      -------------------------------------------------------------
         1        2.0000           -0.7214247             -19.6310
       ...           ...                  ...                  ...
       106        2.0000           -0.4028113             -10.9611
       107        2.0000           -0.3950409             -10.7496
       108        2.0000           -0.3875193             -10.5449
       109        2.0000           -0.3865653             -10.5190
       110        2.0000           -0.3857012             -10.4955
       111        2.0000           -0.3834909             -10.4353
       112        2.0000           -0.3752631             -10.2114
       113        2.0000           -0.3670697              -9.9885
       114        2.0000           -0.3632057              -9.8833
       115        2.0000           -0.3580311              -9.7425
       116        1.9538           -0.3506285              -9.5411
       117        1.0462           -0.3448774              -9.3846
       118        0.9997           -0.2878885              -7.8338 (HOMO)
       119        0.0003           -0.2723901              -7.4121 (LUMO)
       120                         -0.2536156              -6.9012
       121                         -0.2384944              -6.4898
       122                         -0.2262506              -6.1566
       123                         -0.2226198              -6.0578
       124                         -0.2169866              -5.9045
       125                         -0.2101314              -5.7180
       126                         -0.2073977              -5.6436
       127                         -0.2010550              -5.4710
       128                         -0.1954735              -5.3191
       129                         -0.1871673              -5.0931
       ...                                ...                  ...
       228                          0.7338048              19.9678
      -------------------------------------------------------------
                  HL-Gap            0.0154984 Eh            0.4217 eV

     #   Z          covCN         q      C6AA      α(0)
     1   7 N        2.641    -0.274    27.075     7.728
     2   6 C        2.899     0.082    26.161     8.386
     3   6 C        2.918    -0.071    29.775     8.948
     4   6 C        2.924    -0.035    28.882     8.813
     5   6 C        2.882    -0.105    30.659     9.078
     6   6 C        2.874     0.138    24.994     8.195
     7   6 C        2.921    -0.088    30.205     9.013
     8   8 O        1.712    -0.246    18.072     5.740
     9   6 C        2.872     0.137    25.006     8.197
    10   6 C        2.919    -0.101    30.534     9.061
    11   6 C        2.901     0.084    26.135     8.382
    12   7 N        2.643    -0.269    26.957     7.711
    13   6 C        2.918    -0.101    30.545     9.063
    14   6 C        2.874     0.137    25.013     8.199
    15   6 C        2.888    -0.135    31.446     9.194
    16   5 B        2.724     0.206    18.299     7.168
    17   6 C        2.881    -0.100    30.525     9.058
    18   6 C        2.924    -0.035    28.873     8.812
    19   6 C        2.918    -0.069    29.713     8.939
    20   6 C        2.904     0.072    26.387     8.423
    21   7 N        2.698    -0.148    24.212     7.308
    22   6 C        2.899     0.063    26.579     8.453
    23   6 C        2.920    -0.063    29.572     8.918
    24   6 C        2.913    -0.032    28.786     8.798
    25   6 C        2.916    -0.048    29.183     8.859
    26   6 C        2.982     0.009    27.821     8.652
    27   6 C        2.922    -0.047    29.159     8.855
    28   6 C        2.980     0.008    27.824     8.653
    29   6 C        2.913    -0.041    29.014     8.833
    30   6 C        2.915    -0.039    28.969     8.826
    31   6 C        2.979     0.009    27.803     8.649
    32   6 C        2.921    -0.049    29.225     8.865
    33   6 C        2.973     0.010    27.797     8.648
    34   6 C        2.919    -0.049    29.219     8.864
    35   6 C        2.978     0.012    27.731     8.638
    36   6 C        2.920    -0.038    28.947     8.823
    37   6 C        2.914    -0.031    28.775     8.796
    38   6 C        2.914    -0.031    28.771     8.796
    39   6 C        2.920    -0.036    28.889     8.814
    40   6 C        2.979     0.011    27.762     8.643
    41   6 C        2.920    -0.047    29.173     8.857
    42   6 C        2.975     0.009    27.818     8.652
    43   6 C        2.921    -0.045    29.128     8.850
    44   6 C        2.975     0.006    27.878     8.661
    45   6 C        2.978     0.003    27.942     8.671
    46   6 C        2.922    -0.038    28.953     8.824
    47   6 C        2.984    -0.004    28.122     8.699
    48   6 C        2.920    -0.076    29.886     8.965
    49   6 C        2.876     0.138    24.985     8.194
    50   8 O        1.712    -0.249    18.119     5.747
    51   1 H        0.860     0.169     1.279     1.772
    52   1 H        0.860     0.167     1.293     1.781
    53   1 H        0.926     0.031     2.574     2.509
    54   1 H        0.926     0.039     2.467     2.456
    55   1 H        0.926     0.034     2.529     2.487
    56   1 H        0.926     0.039     2.456     2.450
    57   1 H        0.860     0.171     1.264     1.761
    58   1 H        0.860     0.172     1.260     1.758
    59   1 H        0.926     0.037     2.486     2.466
    60   1 H        0.926     0.042     2.423     2.434
    61   1 H        0.926     0.033     2.545     2.495
    62   1 H        0.860     0.167     1.292     1.780
    63   1 H        0.926     0.028     2.608     2.525
    64   1 H        0.926     0.033     2.550     2.497
    65   1 H        0.926     0.031     2.565     2.505
    66   1 H        0.925     0.033     2.546     2.495
    67   1 H        0.926     0.030     2.585     2.514
    68   1 H        0.926     0.031     2.576     2.510
    69   1 H        0.926     0.033     2.549     2.497
    70   1 H        0.926     0.033     2.546     2.495
    71   1 H        0.926     0.031     2.576     2.510
    72   1 H        0.926     0.031     2.577     2.510
    73   1 H        0.926     0.032     2.557     2.500
    74   1 H        0.926     0.028     2.618     2.530
    75   1 H        0.926     0.028     2.609     2.526
    76   1 H        0.926     0.026     2.638     2.540
    77   1 H        0.926     0.037     2.490     2.468
    78   1 H        0.926     0.039     2.467     2.456

molecular dipole:
                 x           y           z       tot (Debye)
 q only:       -0.737      -0.627       0.269
   full:       -0.830      -0.726       0.741       3.375

 projected vibrational frequencies (cm⁻¹)
eigval :       -0.00     0.00     0.00     0.00     0.00     0.00
eigval :       10.84    24.37    27.07    34.77    45.15    56.20
eigval :       60.27    69.88    69.97    77.21    90.80   105.48
eigval :      110.14   122.41   143.58   157.19   177.98   182.07
eigval :      190.77   211.09   214.42   225.56   235.83   250.83
eigval :      255.02   268.11   271.72   275.36   285.11   292.58
eigval :      299.29   304.47   310.12   331.57   334.17   353.36
eigval :      356.84   371.31   375.12   378.08   385.52   387.71
eigval :      394.07   398.99   405.97   419.21   425.51   429.06
eigval :      435.11   454.65   464.31   470.69   483.97   490.92
eigval :      492.99   496.96   499.35   505.32   509.77   527.11
eigval :      530.49   545.82   555.17   559.64   571.90   574.23
eigval :      580.27   590.91   593.41   598.16   601.80   605.42
eigval :      610.77   628.12   638.52   655.91   670.42   676.29
eigval :      683.44   696.85   700.15   705.38   707.91   719.18
eigval :      724.03   739.71   748.49   752.34   761.00   768.42
eigval :      775.73   782.06   786.08   794.89   797.30   804.78
eigval :      809.27   810.35   813.06   815.19   820.26   841.60
eigval :      842.83   845.40   848.80   853.62   864.01   864.54
eigval :      871.33   885.28   886.49   891.80   895.10   895.68
eigval :      898.25   903.64   906.04   909.35   912.05   973.02
eigval :      985.64   992.00  1015.01  1025.49  1032.56  1068.41
eigval :     1075.90  1078.74  1081.93  1086.46  1113.34  1128.41
eigval :     1129.68  1140.00  1153.20  1167.31  1169.26  1175.68
eigval :     1179.72  1181.59  1187.75  1190.32  1191.77  1200.24
eigval :     1216.73  1223.16  1227.00  1237.60  1241.23  1242.45
eigval :     1250.58  1257.22  1263.93  1270.33  1279.35  1285.63
eigval :     1291.76  1302.16  1308.97  1314.65  1321.04  1333.95
eigval :     1340.54  1341.54  1345.06  1348.76  1363.59  1370.16
eigval :     1381.40  1388.49  1395.56  1399.86  1408.32  1412.14
eigval :     1415.63  1420.30  1424.32  1432.55  1454.57  1456.84
eigval :     1461.36  1469.96  1476.57  1479.79  1486.74  1496.00
eigval :     1502.07  1508.50  1517.06  1521.40  1526.38  1537.35
eigval :     1538.47  1546.34  1548.11  1559.94  1574.57  1587.07
eigval :     1588.69  1607.27  3062.46  3064.09  3064.63  3065.16
eigval :     3067.69  3068.30  3068.46  3070.92  3071.78  3074.26
eigval :     3074.43  3075.30  3076.28  3085.09  3086.64  3088.90
eigval :     3091.93  3092.21  3095.09  3099.72  3105.73  3109.68
eigval :     3138.91  3413.45  3456.49  3460.09  3511.61  3517.46

   temp. (K)  partition function   enthalpy   heat capacity  entropy
                                   cal/mol     cal/K/mol   cal/K/mol   J/K/mol
 298.15  VIB  0.911E+15            22453.394    151.419    133.792
         ROT  0.556E+08              888.752      2.981     38.421
         INT  0.507E+23            23342.146    154.400    172.213
         TR   0.157E+29             1481.254      4.968     45.238
         TOT                       24823.4004   159.3684   217.4505   909.8128

       T/K    H(0)-H(T)+PV         H(T)/Eh          T*S/Eh         G(T)/Eh
   ------------------------------------------------------------------------
    298.15    0.395586E-01    0.621934E+00    0.103318E+00    0.518617E+00
   ------------------------------------------------------------------------

         :::::::::::::::::::::::::::::::::::::::::::::::::::::
         ::                  THERMODYNAMIC                  ::
         :::::::::::::::::::::::::::::::::::::::::::::::::::::
         :: total free energy        -126.190062532676 Eh   ::
         ::.................................................::
         :: total energy             -126.708679254807 Eh   ::
         :: zero point energy           0.582375859582 Eh   ::
         :: G(RRHO) w/o ZPVE           -0.063759137451 Eh   ::
         :: G(RRHO) contrib.            0.518616722131 Eh   ::
         :::::::::::::::::::::::::::::::::::::::::::::::::::::

           -------------------------------------------------
          | TOTAL ENERGY             -126.708679254807 Eh   |
          | TOTAL ENTHALPY           -126.086744788686 Eh   |
          | TOTAL FREE ENERGY        -126.190062532676 Eh   |
          | GRADIENT NORM               0.000063399631 Eh/α |
          | HOMO-LUMO GAP               0.421731869744 eV   |
           -------------------------------------------------

 * finished run on 2025/09/12 at 01:25:13.263
