   * xtb version 6.7.1 (edcfbbe) compiled by 'albert@albert-system' on 2024-07-22

   ID    Z sym.   atoms
    1    6 C      1-9, 11-24, 26-30, 32-45, 47, 48
    2    7 N      10, 25, 31, 46
    3    1 H      49-76

          program call               : xtb data2507/toluene/24PQ-Cz/24PQ-Cz_toluene_T1_crest.xyz --gfn 2 --uhf 2 --gbsa toluene --ohess vtight --parallel 40 --molden --ceasefiles --namespace data2507/toluene/24PQ-Cz/24PQ-Cz_toluene_T1_finalOpt
      * Solvation model:               GBSA
        Solvent                        toluene
        Solvent mass                       9.2140E+01 g/mol
          :  Hamiltonian                  GFN2-xTB          :
 * total energy  :  -120.2533664 Eh     change       -0.1121222E-08 Eh
 * total energy  :  -120.2534184 Eh     change       -0.5198842E-04 Eh
 * total energy  :  -120.2534407 Eh     change       -0.2228025E-04 Eh
 * total energy  :  -120.2534448 Eh     change       -0.4136616E-05 Eh
 * total energy  :  -120.2534466 Eh     change       -0.1750775E-05 Eh
 * total energy  :  -120.2534481 Eh     change       -0.1527656E-05 Eh
 * total energy  :  -120.2534500 Eh     change       -0.1910747E-05 Eh
 * total energy  :  -120.2534520 Eh     change       -0.1973278E-05 Eh
 * total energy  :  -120.2534537 Eh     change       -0.1722998E-05 Eh
 * total energy  :  -120.2534553 Eh     change       -0.1563022E-05 Eh
 * total energy  :  -120.2534605 Eh     change       -0.1009119E-05 Eh
 * total energy  :  -120.2534613 Eh     change       -0.7721878E-06 Eh
 * total energy  :  -120.2534620 Eh     change       -0.7165135E-06 Eh
 * total energy  :  -120.2534626 Eh     change       -0.6007989E-06 Eh
 * total energy  :  -120.2534633 Eh     change       -0.6989789E-06 Eh
 * total energy  :  -120.2534639 Eh     change       -0.6123558E-06 Eh
 * total energy  :  -120.2534644 Eh     change       -0.5467833E-06 Eh
 * total energy  :  -120.2534650 Eh     change       -0.6129653E-06 Eh
 * total energy  :  -120.2534651 Eh     change       -0.1226023E-07 Eh
   *** GEOMETRY OPTIMIZATION CONVERGED AFTER 22 ITERATIONS ***

 final structure:
================
76
 xtb: 6.7.1 (edcfbbe)
C            0.96693511215485       -6.50067115794443       -0.17494329348147
C            2.19847203334375       -5.90376874096102       -0.38419649188637
C            2.30764965859168       -4.51794031532231       -0.39778313117008
C            1.19360107012547       -3.71641093623601       -0.18769265378907
C            1.17189138156564       -2.27047985016328       -0.15575130676416
C            2.34896938917602       -1.43629111362550       -0.07503215287729
C            2.30959123910337       -0.14416078430500       -0.62961257837030
C            3.39798557632277        0.69188318183109       -0.56737899459693
C            4.56667112360482        0.27926034785510        0.07676462449165
N            5.68154663450451        1.12622410344887        0.14237999726214
C            6.97418322545978        0.78318397492582       -0.19541208985233
C            7.46495696286992       -0.40806546296950       -0.71425315761324
C            8.81713676459526       -0.48279733144122       -0.99122918572483
C            9.66532656506125        0.59997840835125       -0.76855938477694
C            9.17850561061925        1.79675507746516       -0.27511162946781
C            7.82431465436888        1.89602193113786        0.01024617001423
C            6.98960771625038        2.95960984417898        0.50078846762679
C            7.23841406156870        4.26765870229476        0.89096883101633
C            6.18167370611389        5.03557278795150        1.34536227949187
C            4.89445342031008        4.50848901181621        1.42675034703343
C            4.62208976556482        3.20799761530189        1.04532193818960
C            5.67459994720793        2.43957958451056        0.56442338672154
C            4.60543784200138       -0.98332028327949        0.67044250038182
C            3.51820654179275       -1.82428849161926        0.59771929609939
N            0.00332453851184       -1.63545107932850       -0.17529686546966
C           -1.15403081621677       -2.25576250906808       -0.08702572896278
C           -2.38077232868785       -1.49028327853387       -0.08103827114025
C           -2.35248624318969       -0.09231508514241       -0.13699096827635
C           -3.52132326657512        0.63350982715963       -0.13086549152161
C           -4.75420168048918       -0.02088881835620       -0.07439548619490
N           -5.94398589592972        0.71756914028247       -0.07264028136633
C           -6.98342428961218        0.57222667428209        0.82429586359253
C           -7.08771192665837       -0.26363312411088        1.92848676168737
C           -8.24105452561221       -0.18923947779180        2.68728249734785
C           -9.26563208253149        0.69888425463103        2.36742290751249
C           -9.15679397196774        1.55114859339151        1.28371031069472
C           -8.00823214650969        1.49504562749584        0.50727151896219
C           -7.55482678880479        2.22758334133982       -0.64475620694964
C           -8.11274703083950        3.23810774992356       -1.41473588394446
C           -7.39571524002945        3.72002942732153       -2.49465261205470
C           -6.14674804075293        3.19472378826184       -2.81847310731986
C           -5.57139951972158        2.18649896374908       -2.06751980817277
C           -6.27482086208287        1.71700773589464       -0.96589059356575
C           -4.79075049006899       -1.41543100517324       -0.01779138252834
C           -3.61943503563973       -2.13833608367070       -0.01761685845841
N           -1.21000610196403       -3.59305140028179       -0.00993841824339
C           -0.09338419837641       -4.32960178695442       -0.06487705496581
C           -0.17206862427885       -5.72845722842181       -0.03281726550469
H            0.88568755429164       -7.57747420490476       -0.14523219620036
H            3.07747196471588       -6.50937962384558       -0.54621870341692
H            3.26232085711462       -4.06285976538197       -0.61240390763816
H            1.40916038582641        0.16947683267433       -1.13521121034170
H            3.36441058634227        1.66421251190006       -1.03633927821095
H            6.81089552227319       -1.24516566377797       -0.90519635601062
H            9.22412254244312       -1.39918541496102       -1.39284472961996
H           10.71676975241735        0.50192151767764       -0.99489942358552
H            9.83505166810588        2.63931084777539       -0.11838393715456
H            8.23788762411880        4.67300836588394        0.84376983025681
H            6.35434211495151        6.05679634371049        1.65144357892876
H            4.09241563974985        5.12785267987517        1.80056514916141
H            3.62604113417618        2.80113897343318        1.12977990127764
H            5.48737771925875       -1.28563586438247        1.21607703122257
H            3.55009562118305       -2.77069301759664        1.11556232237846
H           -1.39455730403164        0.40399610602117       -0.16930814857989
H           -3.49450749329709        1.71287844791229       -0.14734492379914
H           -6.29099685404041       -0.94140629119791        2.19436343042336
H           -8.34755702631846       -0.83056589507132        3.54981310629800
H          -10.15262000076083        0.72580060390631        2.98297840080709
H           -9.94489356382041        2.25009865106828        1.04758763808050
H           -9.08772963797292        3.63506206471062       -1.17560920389647
H           -7.81090033588402        4.50902032359356       -3.10411694249927
H           -5.61783685839374        3.58045094843370       -3.67753690667740
H           -4.61192179142245        1.77225232583956       -2.33679856479439
H           -5.74460223808073       -1.92113647910276        0.00368774942453
H           -3.63376869087203       -3.21716188801348        0.01829656711099
H           -1.14147170992123       -6.18078819117516        0.10858202764057

          :  Hamiltonian                  GFN2-xTB          :
         :: gradient norm              0.000066865498 Eh/a0 ::
         :: HOMO-LUMO gap              0.703575067068 eV    ::
         :: SCC energy              -122.493883938281 Eh    ::
         :: -> dispersion             -0.104788280112 Eh    ::
         :: -> Gsolv                  -0.051848490808 Eh    ::
         :: repulsion energy           2.240418868689 Eh    ::

    * Orbital Energies and Occupations

         #    Occupation            Energy/Eh            Energy/eV
      -------------------------------------------------------------
         1        2.0000           -0.6827171             -18.5777
       ...           ...                  ...                  ...
       101        2.0000           -0.4126335             -11.2283
       102        2.0000           -0.4104349             -11.1685
       103        2.0000           -0.4103074             -11.1650
       104        2.0000           -0.4087514             -11.1227
       105        2.0000           -0.4077641             -11.0958
       106        2.0000           -0.4033307             -10.9752
       107        2.0000           -0.3843623             -10.4590
       108        2.0000           -0.3841431             -10.4531
       109        2.0000           -0.3841211             -10.4525
       110        1.9303           -0.3676350             -10.0039
       111        1.8321           -0.3666937              -9.9782
       112        1.2375           -0.3640647              -9.9067
       113        1.0000           -0.2920687              -7.9476 (HOMO)
       114        0.0000           -0.2662125              -7.2440 (LUMO)
       115                         -0.2501855              -6.8079
       116                         -0.2494048              -6.7866
       117                         -0.2335083              -6.3541
       118                         -0.2314105              -6.2970
       119                         -0.2286839              -6.2228
       120                         -0.2277973              -6.1987
       121                         -0.2277068              -6.1962
       122                         -0.2186840              -5.9507
       123                         -0.2022250              -5.5028
       124                         -0.1973440              -5.3700
       ...                                ...                  ...
       220                          0.7390892              20.1116
      -------------------------------------------------------------
                  HL-Gap            0.0258562 Eh            0.7036 eV

     #   Z          covCN         q      C6AA      α(0)
     1   6 C        2.915    -0.034    28.835     8.805
     2   6 C        2.916    -0.039    28.981     8.828
     3   6 C        2.915    -0.052    29.287     8.874
     4   6 C        2.976    -0.012    28.303     8.727
     5   6 C        2.936     0.066    26.518     8.445
     6   6 C        2.978     0.001    27.990     8.678
     7   6 C        2.925    -0.034    28.837     8.806
     8   6 C        2.917    -0.042    29.048     8.838
     9   6 C        2.912     0.052    26.833     8.494
    10   7 N        2.801    -0.028    21.780     6.931
    11   6 C        3.076     0.047    26.864     8.498
    12   6 C        2.909    -0.047    29.159     8.854
    13   6 C        2.923    -0.033    28.827     8.805
    14   6 C        2.920    -0.038    28.944     8.822
    15   6 C        2.912    -0.032    28.796     8.799
    16   6 C        3.066    -0.015    28.325     8.727
    17   6 C        3.066    -0.015    28.324     8.727
    18   6 C        2.912    -0.032    28.795     8.799
    19   6 C        2.920    -0.038    28.940     8.822
    20   6 C        2.923    -0.033    28.822     8.804
    21   6 C        2.909    -0.047    29.160     8.855
    22   6 C        3.075     0.047    26.862     8.498
    23   6 C        2.918    -0.042    29.053     8.839
    24   6 C        2.920    -0.040    29.000     8.831
    25   7 N        1.855    -0.233    26.941     7.693
    26   6 C        2.892     0.169    24.359     8.092
    27   6 C        2.981    -0.005    28.137     8.701
    28   6 C        2.923    -0.031    28.775     8.797
    29   6 C        2.919    -0.041    29.025     8.835
    30   6 C        2.913     0.059    26.670     8.468
    31   7 N        2.801    -0.026    21.752     6.927
    32   6 C        3.074     0.047    26.875     8.500
    33   6 C        2.909    -0.047    29.163     8.855
    34   6 C        2.923    -0.033    28.813     8.803
    35   6 C        2.920    -0.038    28.934     8.821
    36   6 C        2.912    -0.032    28.790     8.798
    37   6 C        3.066    -0.014    28.305     8.724
    38   6 C        3.066    -0.014    28.305     8.724
    39   6 C        2.912    -0.032    28.789     8.798
    40   6 C        2.920    -0.038    28.934     8.821
    41   6 C        2.923    -0.033    28.813     8.803
    42   6 C        2.909    -0.047    29.164     8.855
    43   6 C        3.074     0.047    26.875     8.500
    44   6 C        2.919    -0.041    29.015     8.833
    45   6 C        2.923    -0.031    28.766     8.795
    46   7 N        1.849    -0.273    27.945     7.835
    47   6 C        2.946     0.103    25.716     8.317
    48   6 C        2.921    -0.061    29.506     8.908
    49   1 H        0.926     0.034     2.524     2.484
    50   1 H        0.926     0.031     2.567     2.506
    51   1 H        0.926     0.038     2.475     2.460
    52   1 H        0.926     0.043     2.411     2.428
    53   1 H        0.926     0.044     2.400     2.422
    54   1 H        0.926     0.035     2.523     2.484
    55   1 H        0.926     0.035     2.516     2.480
    56   1 H        0.926     0.034     2.527     2.486
    57   1 H        0.926     0.037     2.493     2.469
    58   1 H        0.926     0.037     2.493     2.469
    59   1 H        0.926     0.035     2.523     2.484
    60   1 H        0.926     0.036     2.505     2.475
    61   1 H        0.926     0.036     2.499     2.472
    62   1 H        0.926     0.041     2.432     2.439
    63   1 H        0.926     0.039     2.464     2.455
    64   1 H        0.926     0.052     2.300     2.371
    65   1 H        0.926     0.049     2.328     2.386
    66   1 H        0.926     0.036     2.500     2.473
    67   1 H        0.926     0.036     2.503     2.474
    68   1 H        0.926     0.035     2.518     2.481
    69   1 H        0.926     0.038     2.482     2.464
    70   1 H        0.926     0.037     2.483     2.464
    71   1 H        0.926     0.035     2.517     2.481
    72   1 H        0.926     0.036     2.500     2.472
    73   1 H        0.926     0.037     2.495     2.470
    74   1 H        0.926     0.048     2.339     2.391
    75   1 H        0.926     0.052     2.299     2.371
    76   1 H        0.926     0.036     2.506     2.476

molecular dipole:
                 x           y           z       tot (Debye)
 q only:       -0.226       1.362       0.019
   full:        0.027       1.036       0.033       2.635

 projected vibrational frequencies (cm⁻¹)
eigval :       -0.00    -0.00    -0.00    -0.00     0.00     0.00
eigval :       11.83    12.68    13.77    23.03    27.80    37.04
eigval :       52.21    61.84    63.18    79.14    81.23    94.82
eigval :      103.34   105.29   124.61   129.17   141.20   145.00
eigval :      147.65   170.63   183.59   217.92   225.53   233.23
eigval :      239.21   249.84   270.25   270.69   286.04   307.07
eigval :      328.09   343.41   372.92   379.75   383.45   385.95
eigval :      387.87   393.61   401.93   407.05   414.91   422.20
eigval :      424.35   435.90   439.40   466.47   471.37   479.18
eigval :      500.43   515.73   515.96   536.84   537.58   538.15
eigval :      538.45   546.89   552.88   560.58   578.15   581.86
eigval :      590.24   594.70   596.75   606.38   616.00   619.45
eigval :      639.60   673.69   674.06   675.01   685.78   690.38
eigval :      696.97   708.74   710.16   722.89   747.68   753.48
eigval :      755.45   756.44   769.14   769.61   778.89   779.19
eigval :      808.58   819.45   821.65   828.56   847.03   857.77
eigval :      862.20   868.99   870.71   871.28   874.06   883.22
eigval :      896.12   896.36   898.62   901.83   902.20   902.74
eigval :      902.85   907.11   916.55   917.99   918.99   921.66
eigval :      923.64   924.99   928.53   933.07   935.87   952.32
eigval :     1009.08  1009.92  1010.10  1011.91  1066.06  1068.26
eigval :     1069.36  1071.28  1081.87  1108.28  1112.93  1114.24
eigval :     1119.13  1124.34  1135.89  1144.08  1144.94  1156.93
eigval :     1169.33  1172.99  1174.11  1175.06  1178.06  1178.26
eigval :     1181.15  1193.81  1201.36  1218.50  1230.26  1231.11
eigval :     1235.83  1238.32  1239.42  1254.67  1262.59  1282.52
eigval :     1288.79  1289.42  1292.46  1293.58  1304.90  1319.13
eigval :     1324.02  1330.26  1347.07  1347.32  1350.41  1353.05
eigval :     1358.65  1361.34  1368.16  1386.17  1406.85  1411.71
eigval :     1412.71  1415.29  1417.25  1421.01  1425.41  1454.78
eigval :     1463.65  1463.98  1471.16  1481.93  1482.57  1484.70
eigval :     1514.54  1516.46  1536.92  1537.69  1565.58  1566.47
eigval :     1568.31  1576.02  1580.45  1582.20  1582.62  1583.66
eigval :     1599.84  1603.93  3072.44  3075.48  3075.91  3076.11
eigval :     3076.56  3079.84  3080.94  3081.35  3081.63  3081.87
eigval :     3082.65  3082.81  3086.13  3087.30  3088.70  3089.75
eigval :     3089.93  3089.95  3090.76  3094.20  3094.84  3095.20
eigval :     3095.68  3095.83  3096.27  3096.78  3097.37  3098.70

   temp. (K)  partition function   enthalpy   heat capacity  entropy
                                   cal/mol     cal/K/mol   cal/K/mol   J/K/mol
 298.15  VIB  0.120E+17            21241.015    138.583    130.609
         ROT  0.127E+09              888.752      2.981     40.061
         INT  0.153E+25            22129.767    141.564    170.670
         TR   0.147E+29             1481.254      4.968     45.101
         TOT                       23611.0208   146.5321   215.7708   902.7850

       T/K    H(0)-H(T)+PV         H(T)/Eh          T*S/Eh         G(T)/Eh
   ------------------------------------------------------------------------
    298.15    0.376266E-01    0.612885E+00    0.102520E+00    0.510365E+00
   ------------------------------------------------------------------------

         :::::::::::::::::::::::::::::::::::::::::::::::::::::
         ::                  THERMODYNAMIC                  ::
         :::::::::::::::::::::::::::::::::::::::::::::::::::::
         :: total free energy        -119.743100153113 Eh   ::
         ::.................................................::
         :: total energy             -120.253465070548 Eh   ::
         :: zero point energy           0.575258022494 Eh   ::
         :: G(RRHO) w/o ZPVE           -0.064893105059 Eh   ::
         :: G(RRHO) contrib.            0.510364917435 Eh   ::
         :::::::::::::::::::::::::::::::::::::::::::::::::::::

           -------------------------------------------------
          | TOTAL ENERGY             -120.253465070548 Eh   |
          | TOTAL ENTHALPY           -119.640580491326 Eh   |
          | TOTAL FREE ENERGY        -119.743100153113 Eh   |
          | GRADIENT NORM               0.000068073299 Eh/α |
          | HOMO-LUMO GAP               0.703583648647 eV   |
           -------------------------------------------------

 * finished run on 2025/08/26 at 02:11:16.188
