   * xtb version 6.7.1 (edcfbbe) compiled by 'albert@albert-system' on 2024-07-22

   ID    Z sym.   atoms
    1    6 C      1-9, 11-24, 26-30, 32-45, 47, 48
    2    7 N      10, 25, 31, 46
    3    1 H      49-76

          program call               : xtb data2507/toluene/24PQ-Cz/24PQ-Cz_toluene_S0_crest.xyz --gfn 2 --gbsa toluene --ohess vtight --parallel 40 --molden --ceasefiles --namespace data2507/toluene/24PQ-Cz/24PQ-Cz_toluene_S0_finalOpt
      * Solvation model:               GBSA
        Solvent                        toluene
        Solvent mass                       9.2140E+01 g/mol
          :  Hamiltonian                  GFN2-xTB          :
 * total energy  :  -120.3232519 Eh     change       -0.1978151E-08 Eh
 * total energy  :  -120.3232801 Eh     change       -0.2820858E-04 Eh
 * total energy  :  -120.3232927 Eh     change       -0.1257948E-04 Eh
 * total energy  :  -120.3232988 Eh     change       -0.6166613E-05 Eh
 * total energy  :  -120.3233067 Eh     change       -0.7926482E-05 Eh
 * total energy  :  -120.3233108 Eh     change       -0.4087137E-05 Eh
 * total energy  :  -120.3233163 Eh     change       -0.5509429E-05 Eh
 * total energy  :  -120.3233202 Eh     change       -0.3893891E-05 Eh
 * total energy  :  -120.3233223 Eh     change       -0.2050474E-05 Eh
 * total energy  :  -120.3233248 Eh     change       -0.2462698E-05 Eh
 * total energy  :  -120.3233742 Eh     change       -0.3989061E-06 Eh
 * total energy  :  -120.3233745 Eh     change       -0.2593564E-06 Eh
 * total energy  :  -120.3233747 Eh     change       -0.2314092E-06 Eh
 * total energy  :  -120.3233749 Eh     change       -0.1905564E-06 Eh
 * total energy  :  -120.3233751 Eh     change       -0.1998531E-06 Eh
 * total energy  :  -120.3233753 Eh     change       -0.2060362E-06 Eh
 * total energy  :  -120.3233755 Eh     change       -0.2473220E-06 Eh
 * total energy  :  -120.3233759 Eh     change       -0.4010381E-06 Eh
 * total energy  :  -120.3233759 Eh     change       -0.3589449E-08 Eh
   *** GEOMETRY OPTIMIZATION CONVERGED AFTER 44 ITERATIONS ***

 final structure:
================
76
 xtb: 6.7.1 (edcfbbe)
C            1.00327518934106       -6.37590527608940       -0.46309342858952
C            2.24287465443481       -5.72617706416483       -0.57858055179188
C            2.32573742052702       -4.36157489047665       -0.50526112260822
C            1.16384620519912       -3.59432358264771       -0.30348500031916
C            1.11667327313153       -2.17450375462043       -0.18458241621957
C            2.32731439269620       -1.34726152602745       -0.09768811812290
C            2.41017046674423       -0.17320282089154       -0.84432322731925
C            3.53300053436095        0.62517032649568       -0.77866442307131
C            4.59019298250308        0.27759554021614        0.06097610267461
N            5.73067659348217        1.08473023671762        0.13529468561510
C            7.03803775378536        0.64806468006877        0.02775924561059
C            7.52732061279696       -0.62512358462884       -0.22822396110762
C            8.89737251743488       -0.78512982370852       -0.31747781266892
C            9.76711615235657        0.29291646669930       -0.16651271271675
C            9.28525763939920        1.56648903144059        0.06338687712446
C            7.91181488525624        1.75210695874862        0.15643392523341
C            7.08269544021252        2.90782485279759        0.36049014923958
C            7.35612023170532        4.25330482946529        0.57133008050634
C            6.29946006260359        5.12118755235579        0.76396582155424
C            4.98479011912050        4.65951190979003        0.76346714256462
C            4.68791936642608        3.32566427560399        0.55524682743744
C            5.74435997572453        2.45282355632045        0.33633649768589
C            4.49787745445743       -0.87817416111012        0.83433697408445
C            3.38060468308481       -1.68453818237972        0.75073320244723
N           -0.02794076309215       -1.53332167433670       -0.14388960746004
C           -1.17410841931544       -2.24365109885176       -0.13807750170793
C           -2.42018249175741       -1.47799538817724       -0.10018035206005
C           -2.39352685666186       -0.08630153692251       -0.01055021539147
C           -3.56820897103368        0.63505026502478        0.02549635691863
C           -4.79657470123144       -0.02228561471047       -0.03394056667921
N           -5.98977830699173        0.70861881648405       -0.00186102025698
C           -7.06995551724731        0.45965714771954        0.82427012895890
C           -7.21702920396985       -0.48950821441864        1.82615704199555
C           -8.40410190432195       -0.50284602975175        2.53404488046166
C           -9.42249403027926        0.40945632652474        2.26496477895094
C           -9.27163685050341        1.37293169940559        1.28730845347280
C           -8.08742214229267        1.40578357415785        0.56195730673735
C           -7.59194235081836        2.26005229205887       -0.48166770967375
C           -8.13146886527740        3.34106446126803       -1.16718980225804
C           -7.37860597886843        3.93867811826359       -2.15863844579914
C           -6.10903525837569        3.46175770601930       -2.47879425138364
C           -5.55146442187172        2.38762108922176       -1.81107896929814
C           -6.29311736562207        1.79845673684542       -0.79662885217744
C           -4.82745522032681       -1.41390238250417       -0.12599838161944
C           -3.65119712935871       -2.13206773950367       -0.15549637887564
N           -1.24758907511931       -3.55534130355321       -0.13877780654777
C           -0.09802693610627       -4.24900978253605       -0.24080050674900
C           -0.14923244837643       -5.65749983722386       -0.30520602761911
H            0.96606407497130       -7.45402761810987       -0.51785917966534
H            3.13537851257198       -6.31390991211255       -0.73367634133461
H            3.27597080120494       -3.86215756781988       -0.62005391802338
H            1.58854494286193        0.09134592284341       -1.49227836838294
H            3.60469679305506        1.51460898599368       -1.38600026223677
H            6.86231559206109       -1.46446691081160       -0.36434728897457
H            9.30259413845146       -1.76736806500808       -0.51291410030008
H           10.83190189922391        0.12677123517480       -0.23999129237707
H            9.95844795228272        2.40470701386356        0.16395293474800
H            8.37590476798041        4.60781827858003        0.58873758062030
H            6.49046568248517        6.17166184957834        0.92768434818234
H            4.17903580959796        5.35873272959784        0.93353807240234
H            3.66665647700638        2.97657233501735        0.57594602095595
H            5.29853701244833       -1.12918504807429        1.51364476169801
H            3.30623378445080       -2.56014090968870        1.37886310920033
H           -1.43858146449878        0.41274192541940        0.04327346900126
H           -3.54506023599547        1.71057724173003        0.11819057892117
H           -6.42685630755891       -1.18830205290083        2.05589525286517
H           -8.54339936237942       -1.23448788252405        3.31668816572091
H          -10.33662603398953        0.36515165921042        2.83876691895670
H          -10.05370556728558        2.09104452416734        1.09063356466319
H           -9.12205825109046        3.69953229048846       -0.93007292839060
H           -7.77887849113340        4.78180324940577       -2.70252384437840
H           -5.54917814558260        3.93930915061713       -3.26983174099490
H           -4.57507283744789        2.01428092686915       -2.08037809979971
H           -5.77819082543363       -1.92140967407945       -0.19148837454887
H           -3.66266002902661       -3.20817775706862       -0.23108889891259
H           -1.11575281459628       -6.13304268713847       -0.24412758260394

          :  Hamiltonian                  GFN2-xTB          :
         :: gradient norm              0.000044733811 Eh/a0 ::
         :: HOMO-LUMO gap              1.817898202432 eV    ::
         :: SCC energy              -122.569437659042 Eh    ::
         :: -> dispersion             -0.104851662772 Eh    ::
         :: -> Gsolv                  -0.051815764581 Eh    ::
         :: repulsion energy           2.246061723437 Eh    ::

    * Orbital Energies and Occupations

         #    Occupation            Energy/Eh            Energy/eV
      -------------------------------------------------------------
         1        2.0000           -0.6790648             -18.4783
       ...           ...                  ...                  ...
       100        2.0000           -0.4184929             -11.3878
       101        2.0000           -0.4177022             -11.3663
       102        2.0000           -0.4149418             -11.2911
       103        2.0000           -0.4122900             -11.2190
       104        2.0000           -0.4070724             -11.0770
       105        2.0000           -0.4052070             -11.0262
       106        2.0000           -0.4025745             -10.9546
       107        2.0000           -0.3968306             -10.7983
       108        2.0000           -0.3805327             -10.3548
       109        2.0000           -0.3786223             -10.3028
       110        2.0000           -0.3654711              -9.9450
       111        2.0000           -0.3647574              -9.9256
       112        2.0000           -0.3625859              -9.8665 (HOMO)
       113                         -0.2957794              -8.0486 (LUMO)
       114                         -0.2705863              -7.3630
       115                         -0.2487276              -6.7682
       116                         -0.2448157              -6.6618
       117                         -0.2415016              -6.5716
       118                         -0.2392832              -6.5112
       119                         -0.2326567              -6.3309
       120                         -0.2259296              -6.1479
       121                         -0.2238619              -6.0916
       122                         -0.2219435              -6.0394
       123                         -0.2069541              -5.6315
       ...                                ...                  ...
       220                          0.7441702              20.2499
      -------------------------------------------------------------
                  HL-Gap            0.0668065 Eh            1.8179 eV

     #   Z          covCN         q      C6AA      α(0)
     1   6 C        2.916    -0.023    28.569     8.765
     2   6 C        2.917    -0.029    28.730     8.790
     3   6 C        2.913    -0.034    28.858     8.809
     4   6 C        2.978    -0.023    28.582     8.770
     5   6 C        2.956     0.115    25.464     8.277
     6   6 C        2.981    -0.000    28.031     8.685
     7   6 C        2.924    -0.023    28.577     8.767
     8   6 C        2.920    -0.041    29.014     8.833
     9   6 C        2.912     0.068    26.473     8.437
    10   7 N        2.801    -0.042    22.054     6.975
    11   6 C        3.073     0.046    26.888     8.502
    12   6 C        2.910    -0.052    29.282     8.873
    13   6 C        2.924    -0.035    28.860     8.810
    14   6 C        2.920    -0.042    29.037     8.837
    15   6 C        2.912    -0.034    28.850     8.808
    16   6 C        3.066    -0.017    28.370     8.734
    17   6 C        3.067    -0.017    28.373     8.734
    18   6 C        2.912    -0.034    28.852     8.808
    19   6 C        2.920    -0.042    29.032     8.836
    20   6 C        2.924    -0.034    28.851     8.808
    21   6 C        2.910    -0.051    29.278     8.873
    22   6 C        3.072     0.046    26.885     8.502
    23   6 C        2.921    -0.042    29.043     8.838
    24   6 C        2.922    -0.029    28.729     8.790
    25   7 N        1.850    -0.291    28.406     7.899
    26   6 C        2.938     0.187    24.009     8.036
    27   6 C        2.983    -0.007    28.185     8.709
    28   6 C        2.923    -0.028    28.696     8.785
    29   6 C        2.920    -0.042    29.055     8.839
    30   6 C        2.912     0.068    26.471     8.437
    31   7 N        2.801    -0.041    22.040     6.973
    32   6 C        3.073     0.047    26.881     8.501
    33   6 C        2.910    -0.051    29.275     8.872
    34   6 C        2.924    -0.034    28.858     8.809
    35   6 C        2.920    -0.042    29.041     8.837
    36   6 C        2.912    -0.034    28.856     8.809
    37   6 C        3.067    -0.017    28.375     8.735
    38   6 C        3.067    -0.017    28.374     8.735
    39   6 C        2.912    -0.034    28.856     8.809
    40   6 C        2.920    -0.042    29.041     8.837
    41   6 C        2.924    -0.034    28.859     8.810
    42   6 C        2.910    -0.051    29.278     8.872
    43   6 C        3.073     0.047    26.881     8.501
    44   6 C        2.920    -0.042    29.044     8.838
    45   6 C        2.923    -0.028    28.695     8.785
    46   7 N        1.845    -0.298    28.583     7.923
    47   6 C        2.979     0.105    25.683     8.313
    48   6 C        2.918    -0.044    29.087     8.844
    49   1 H        0.926     0.048     2.339     2.392
    50   1 H        0.926     0.047     2.361     2.403
    51   1 H        0.926     0.044     2.393     2.419
    52   1 H        0.926     0.049     2.326     2.385
    53   1 H        0.926     0.052     2.300     2.372
    54   1 H        0.926     0.030     2.584     2.514
    55   1 H        0.926     0.031     2.567     2.505
    56   1 H        0.926     0.029     2.596     2.520
    57   1 H        0.926     0.032     2.559     2.502
    58   1 H        0.926     0.032     2.559     2.502
    59   1 H        0.926     0.029     2.593     2.518
    60   1 H        0.926     0.032     2.560     2.502
    61   1 H        0.926     0.032     2.561     2.503
    62   1 H        0.926     0.050     2.314     2.379
    63   1 H        0.926     0.044     2.397     2.421
    64   1 H        0.926     0.058     2.217     2.328
    65   1 H        0.926     0.050     2.321     2.383
    66   1 H        0.926     0.031     2.571     2.508
    67   1 H        0.926     0.031     2.568     2.506
    68   1 H        0.926     0.029     2.597     2.520
    69   1 H        0.926     0.032     2.560     2.502
    70   1 H        0.926     0.032     2.561     2.502
    71   1 H        0.926     0.029     2.597     2.520
    72   1 H        0.926     0.031     2.567     2.506
    73   1 H        0.926     0.031     2.570     2.507
    74   1 H        0.926     0.050     2.322     2.383
    75   1 H        0.926     0.058     2.226     2.333
    76   1 H        0.926     0.052     2.296     2.369

molecular dipole:
                 x           y           z       tot (Debye)
 q only:        0.655      -0.414      -0.100
   full:        0.987      -0.705      -0.131       3.102

 projected vibrational frequencies (cm⁻¹)
eigval :       -0.00    -0.00     0.00     0.00     0.00     0.00
eigval :        3.47    10.47    13.17    23.88    30.10    37.10
eigval :       51.40    57.93    63.05    79.57    83.50    90.63
eigval :      104.22   106.17   124.20   127.08   141.17   146.47
eigval :      149.44   165.86   182.41   215.35   223.89   237.39
eigval :      239.51   252.17   270.42   272.20   281.61   309.37
eigval :      334.82   354.39   379.38   380.03   386.41   388.40
eigval :      389.84   397.96   402.25   405.91   411.35   423.72
eigval :      427.04   437.95   440.65   472.43   479.97   500.54
eigval :      514.34   517.93   519.28   534.25   534.90   540.47
eigval :      541.44   554.42   563.66   579.70   582.82   593.27
eigval :      599.22   603.48   609.19   616.29   640.80   645.45
eigval :      661.66   673.90   675.70   689.84   698.85   707.76
eigval :      709.96   710.87   728.34   753.53   756.60   760.89
eigval :      767.62   768.00   768.11   775.83   779.12   779.46
eigval :      825.39   831.93   854.61   865.75   866.54   872.83
eigval :      873.04   875.37   876.68   881.66   883.86   897.32
eigval :      897.40   901.15   901.34   902.42   903.08   914.28
eigval :      919.62   920.46   920.91   921.17   922.79   928.51
eigval :      930.19   930.86   936.16   940.27   943.49   976.23
eigval :     1011.04  1011.05  1017.22  1021.99  1068.45  1068.84
eigval :     1069.07  1072.22  1072.66  1113.36  1115.37  1119.62
eigval :     1126.45  1131.94  1143.38  1150.70  1151.02  1170.90
eigval :     1174.16  1175.26  1177.39  1179.46  1180.40  1181.22
eigval :     1188.57  1196.63  1208.92  1233.27  1234.04  1234.25
eigval :     1241.95  1243.92  1256.10  1259.17  1262.50  1297.97
eigval :     1298.24  1298.74  1298.98  1314.52  1322.25  1325.40
eigval :     1335.70  1352.15  1355.47  1356.75  1359.18  1359.37
eigval :     1363.52  1380.64  1380.97  1403.61  1407.85  1423.90
eigval :     1426.11  1426.29  1426.74  1437.93  1472.90  1473.47
eigval :     1476.29  1486.13  1486.18  1490.12  1495.63  1520.71
eigval :     1536.17  1556.90  1562.53  1573.57  1573.80  1586.14
eigval :     1586.40  1588.88  1590.08  1596.54  1596.98  1601.79
eigval :     1611.98  1612.16  3071.30  3071.81  3072.14  3072.71
eigval :     3077.07  3077.40  3077.99  3078.23  3078.35  3079.98
eigval :     3084.16  3085.17  3085.38  3086.21  3086.28  3089.20
eigval :     3089.56  3091.30  3091.81  3091.90  3094.00  3094.04
eigval :     3094.24  3095.09  3099.95  3103.92  3106.14  3108.05

   temp. (K)  partition function   enthalpy   heat capacity  entropy
                                   cal/mol     cal/K/mol   cal/K/mol   J/K/mol
 298.15  VIB  0.420E+17            21053.267    136.908    131.055
         ROT  0.126E+09              888.752      2.981     40.049
         INT  0.529E+25            21942.019    139.889    171.104
         TR   0.147E+29             1481.254      4.968     45.101
         TOT                       23423.2731   144.8575   216.2052   904.6025

       T/K    H(0)-H(T)+PV         H(T)/Eh          T*S/Eh         G(T)/Eh
   ------------------------------------------------------------------------
    298.15    0.373274E-01    0.616214E+00    0.102726E+00    0.513488E+00
   ------------------------------------------------------------------------

         :::::::::::::::::::::::::::::::::::::::::::::::::::::
         ::                  THERMODYNAMIC                  ::
         :::::::::::::::::::::::::::::::::::::::::::::::::::::
         :: total free energy        -119.809887648830 Eh   ::
         ::.................................................::
         :: total energy             -120.323375933036 Eh   ::
         :: zero point energy           0.578886986209 Eh   ::
         :: G(RRHO) w/o ZPVE           -0.065398702003 Eh   ::
         :: G(RRHO) contrib.            0.513488284206 Eh   ::
         :::::::::::::::::::::::::::::::::::::::::::::::::::::

           -------------------------------------------------
          | TOTAL ENERGY             -120.323375933036 Eh   |
          | TOTAL ENTHALPY           -119.707161585226 Eh   |
          | TOTAL FREE ENERGY        -119.809887648830 Eh   |
          | GRADIENT NORM               0.000044724324 Eh/α |
          | HOMO-LUMO GAP               1.817897671532 eV   |
           -------------------------------------------------

 * finished run on 2025/08/26 at 02:05:32.422
