   * xtb version 6.7.1 (edcfbbe) compiled by 'albert@albert-system' on 2024-07-22

   ID    Z sym.   atoms
    1    6 C      1-9, 11-24, 26-30, 32-45, 47, 48
    2    7 N      10, 25, 31, 46
    3    1 H      49-76

          program call               : xtb data2507/toluene/24PQ-Cz/24PQ-Cz_toluene_S0_finalOpt.xtbopt.xyz --gfn 2 --uhf 2 --gbsa toluene --ohess vtight --parallel 40 --molden --ceasefiles --namespace data2507/toluene/24PQ-Cz/24PQ-Cz_toluene_T1_preOpt
      * Solvation model:               GBSA
        Solvent                        toluene
        Solvent mass                       9.2140E+01 g/mol
          :  Hamiltonian                  GFN2-xTB          :
 * total energy  :  -120.2478353 Eh     change       -0.2936858E-08 Eh
 * total energy  :  -120.2512247 Eh     change       -0.3389374E-02 Eh
 * total energy  :  -120.2524588 Eh     change       -0.1234125E-02 Eh
 * total energy  :  -120.2525994 Eh     change       -0.1405836E-03 Eh
 * total energy  :  -120.2527025 Eh     change       -0.1030974E-03 Eh
 * total energy  :  -120.2527453 Eh     change       -0.4274051E-04 Eh
 * total energy  :  -120.2527972 Eh     change       -0.5191401E-04 Eh
 * total energy  :  -120.2528543 Eh     change       -0.5707715E-04 Eh
 * total energy  :  -120.2528909 Eh     change       -0.3664943E-04 Eh
 * total energy  :  -120.2529096 Eh     change       -0.1869317E-04 Eh
 * total energy  :  -120.2534675 Eh     change       -0.2526687E-06 Eh
 * total energy  :  -120.2534677 Eh     change       -0.2591552E-06 Eh
 * total energy  :  -120.2534680 Eh     change       -0.2308482E-06 Eh
 * total energy  :  -120.2534682 Eh     change       -0.1901052E-06 Eh
 * total energy  :  -120.2534684 Eh     change       -0.1897420E-06 Eh
 * total energy  :  -120.2534686 Eh     change       -0.2223020E-06 Eh
 * total energy  :  -120.2534688 Eh     change       -0.2254936E-06 Eh
 * total energy  :  -120.2534690 Eh     change       -0.1454706E-06 Eh
 * total energy  :  -120.2534690 Eh     change       -0.8212098E-07 Eh
   *** GEOMETRY OPTIMIZATION CONVERGED AFTER 82 ITERATIONS ***

 final structure:
================
76
 xtb: 6.7.1 (edcfbbe)
C            0.95112145561482       -6.49307390617244       -0.27673671472393
C            2.18395723799419       -5.89632486802921       -0.47866740547862
C            2.29687376166819       -4.51077339703530       -0.47089209589555
C            1.18523102351990       -3.70956974843927       -0.24738795674667
C            1.16732449636023       -2.26409225605851       -0.19532633126075
C            2.34801381614857       -1.43628376551642       -0.10223121118718
C            2.31742804800637       -0.13730939327235       -0.64087582841394
C            3.41131147936059        0.69080272646948       -0.56735183057163
C            4.57653166634049        0.26304962539648        0.07324643119539
N            5.69738421007612        1.10107586886582        0.14953232023087
C            6.98844058111285        0.75114716776257       -0.18765775103754
C            7.47200693768357       -0.43927573940744       -0.71515042418093
C            8.82455846438275       -0.52200176509052       -0.98805078559766
C            9.68017698293101        0.55238268119375       -0.75354098463343
C            9.20065471171669        1.74867039214594       -0.25185811592633
C            7.84632535514216        1.85570710013763        0.02996703090868
C            7.01833708768378        2.92128235253117        0.52747613617470
C            7.27608162965423        4.22401239716720        0.92944106121332
C            6.22421088512122        4.99574165770171        1.38863482343068
C            4.93306159341890        4.47737569418249        1.46329389962384
C            4.65174488012799        3.18243158574437        1.06963981550593
C            5.69933146754216        2.41060097593139        0.58347083932593
C            4.60607401585565       -1.00656188563903        0.65235553184841
C            3.51368907258286       -1.83958195679574        0.56775157165409
N            0.00059651504822       -1.62549850738579       -0.20721520661913
C           -1.15821395348024       -2.24418608796413       -0.12541065100272
C           -2.38406971357665       -1.47746441709177       -0.10876930157670
C           -2.35623279269238       -0.07929989309421       -0.15945978971699
C           -3.52513338433727        0.64644938455999       -0.14196346807033
C           -4.75738657766575       -0.00828018149933       -0.07768026715710
N           -5.94761341517413        0.72963946054037       -0.06140738773238
C           -6.97549282793998        0.58352794670949        0.84859759771459
C           -7.06593751447760       -0.25370027867969        1.95295001345703
C           -8.20918322583351       -0.17963841563384        2.72686468086144
C           -9.23749007019915        0.70922192647047        2.42133028248780
C           -9.14271153667517        1.56214325882706        1.33679947442131
C           -8.00434837994965        1.50649808863858        0.54542715691340
C           -7.56612464314410        2.23924802097724       -0.61231808851794
C           -8.13466748376679        3.24894355047653       -1.37556230998310
C           -7.43226153981153        3.73023556975326       -2.46532688167507
C           -6.18720726595112        3.20560077164746       -2.80501096941346
C           -5.60129561556746        2.19841609951814       -2.06084332092818
C           -6.29022642187715        1.72905214815082       -0.95005887715162
C           -4.79349980823343       -1.40303115388976       -0.02687218203233
C           -3.62232684525399       -2.12585934048452       -0.03964106304958
N           -1.21732215354757       -3.58226029011231       -0.06384504729292
C           -0.10303858290766       -4.32110164562382       -0.13134375532505
C           -0.18550073362516       -5.72011386637919       -0.12051062399301
H            0.86706266929079       -7.56999636552248       -0.26377370641235
H            3.06108647523414       -6.50166427874974       -0.65143830915885
H            3.25247472841774       -4.05494679717353       -0.67978549870412
H            1.41972234137644        0.18835989774424       -1.14371171692818
H            3.38465196292347        1.66870453109774       -1.02502256093724
H            6.81237543557103       -1.26972260093177       -0.91562514838227
H            9.22600830800441       -1.43819425281449       -1.39564992474720
H           10.73165813354487        0.44817051142180       -0.97694305230890
H            9.86291044186787        2.58498513899380       -0.08599458423881
H            8.27860806090520        4.62234358661888        0.88742430936552
H            6.40377223528175        6.01309541112660        1.70353210463226
H            4.13500553831544        5.09909213976177        1.84167083081695
H            3.65258345165025        2.78225287934149        1.14899135635221
H            5.48500662861378       -1.32100290191644        1.19598482014914
H            3.53882796853541       -2.79237227952556        1.07408318303327
H           -1.39861654840995        0.41723838239424       -0.19700081131054
H           -3.49865359791892        1.72589362140489       -0.15555449467895
H           -6.26657789073009       -0.93265363484893        2.20738229546510
H           -8.30453231610963       -0.82193429757045        3.58998393255546
H          -10.11633876522850        0.73592373828781        3.04847145493405
H           -9.93372902627956        2.26138028715534        1.11152071845472
H           -9.10666583851080        3.64551386636874       -1.12397291569748
H           -7.85611410983648        4.51825159432905       -3.07006633913483
H           -5.67006991244054        3.59091981692097       -3.67139297682703
H           -4.64498060610691        1.78463766195223       -2.34197534738332
H           -5.74728593939200       -1.90860610978581        0.00068169514607
H           -3.63634236602624       -3.20485117058883       -0.00882552896023
H           -1.15586776283777       -6.17195113678490        0.01564661367505

          :  Hamiltonian                  GFN2-xTB          :
         :: gradient norm              0.000045295254 Eh/a0 ::
         :: HOMO-LUMO gap              0.703189813055 eV    ::
         :: SCC energy              -122.493869292748 Eh    ::
         :: -> dispersion             -0.104781578075 Eh    ::
         :: -> Gsolv                  -0.051855561754 Eh    ::
         :: repulsion energy           2.240400259838 Eh    ::

    * Orbital Energies and Occupations

         #    Occupation            Energy/Eh            Energy/eV
      -------------------------------------------------------------
         1        2.0000           -0.6826930             -18.5770
       ...           ...                  ...                  ...
       101        2.0000           -0.4126401             -11.2285
       102        2.0000           -0.4104374             -11.1686
       103        2.0000           -0.4103100             -11.1651
       104        2.0000           -0.4087954             -11.1239
       105        2.0000           -0.4077606             -11.0957
       106        2.0000           -0.4033251             -10.9750
       107        2.0000           -0.3843531             -10.4588
       108        2.0000           -0.3841567             -10.4534
       109        2.0000           -0.3841033             -10.4520
       110        1.9309           -0.3676494             -10.0043
       111        1.8309           -0.3666909              -9.9782
       112        1.2382           -0.3640739              -9.9070
       113        1.0000           -0.2920642              -7.9475 (HOMO)
       114        0.0000           -0.2662226              -7.2443 (LUMO)
       115                         -0.2502012              -6.8083
       116                         -0.2493954              -6.7864
       117                         -0.2335302              -6.3547
       118                         -0.2314128              -6.2971
       119                         -0.2287060              -6.2234
       120                         -0.2278148              -6.1992
       121                         -0.2276872              -6.1957
       122                         -0.2186442              -5.9496
       123                         -0.2022508              -5.5035
       124                         -0.1973590              -5.3704
       ...                                ...                  ...
       220                          0.7390751              20.1113
      -------------------------------------------------------------
                  HL-Gap            0.0258416 Eh            0.7032 eV

     #   Z          covCN         q      C6AA      α(0)
     1   6 C        2.915    -0.033    28.834     8.805
     2   6 C        2.916    -0.039    28.981     8.828
     3   6 C        2.915    -0.052    29.286     8.874
     4   6 C        2.976    -0.012    28.303     8.727
     5   6 C        2.936     0.066    26.517     8.445
     6   6 C        2.977     0.001    27.990     8.678
     7   6 C        2.925    -0.034    28.836     8.806
     8   6 C        2.917    -0.042    29.048     8.838
     9   6 C        2.912     0.052    26.832     8.494
    10   7 N        2.801    -0.028    21.779     6.931
    11   6 C        3.076     0.047    26.865     8.498
    12   6 C        2.909    -0.047    29.159     8.854
    13   6 C        2.923    -0.033    28.827     8.805
    14   6 C        2.920    -0.038    28.944     8.822
    15   6 C        2.912    -0.032    28.796     8.799
    16   6 C        3.066    -0.015    28.324     8.727
    17   6 C        3.066    -0.015    28.323     8.727
    18   6 C        2.912    -0.032    28.795     8.799
    19   6 C        2.920    -0.038    28.939     8.822
    20   6 C        2.923    -0.033    28.822     8.804
    21   6 C        2.909    -0.047    29.160     8.855
    22   6 C        3.075     0.047    26.863     8.498
    23   6 C        2.918    -0.042    29.054     8.839
    24   6 C        2.920    -0.040    28.999     8.831
    25   7 N        1.855    -0.233    26.943     7.693
    26   6 C        2.892     0.169    24.360     8.092
    27   6 C        2.981    -0.005    28.136     8.701
    28   6 C        2.923    -0.031    28.775     8.797
    29   6 C        2.919    -0.041    29.023     8.834
    30   6 C        2.913     0.059    26.671     8.468
    31   7 N        2.801    -0.026    21.754     6.927
    32   6 C        3.074     0.047    26.875     8.500
    33   6 C        2.909    -0.047    29.163     8.855
    34   6 C        2.923    -0.033    28.813     8.803
    35   6 C        2.920    -0.038    28.934     8.821
    36   6 C        2.912    -0.032    28.790     8.798
    37   6 C        3.066    -0.014    28.306     8.724
    38   6 C        3.066    -0.014    28.305     8.724
    39   6 C        2.912    -0.032    28.789     8.798
    40   6 C        2.920    -0.038    28.934     8.821
    41   6 C        2.923    -0.033    28.813     8.803
    42   6 C        2.909    -0.047    29.163     8.855
    43   6 C        3.074     0.047    26.875     8.500
    44   6 C        2.919    -0.041    29.014     8.833
    45   6 C        2.923    -0.031    28.766     8.796
    46   7 N        1.849    -0.273    27.945     7.835
    47   6 C        2.946     0.103    25.715     8.317
    48   6 C        2.921    -0.061    29.506     8.908
    49   1 H        0.926     0.034     2.524     2.484
    50   1 H        0.926     0.031     2.567     2.505
    51   1 H        0.926     0.038     2.476     2.460
    52   1 H        0.926     0.043     2.412     2.429
    53   1 H        0.926     0.044     2.399     2.422
    54   1 H        0.926     0.035     2.522     2.483
    55   1 H        0.926     0.035     2.516     2.480
    56   1 H        0.926     0.034     2.527     2.486
    57   1 H        0.926     0.037     2.493     2.469
    58   1 H        0.926     0.037     2.493     2.469
    59   1 H        0.926     0.035     2.523     2.484
    60   1 H        0.926     0.036     2.505     2.475
    61   1 H        0.926     0.036     2.499     2.472
    62   1 H        0.926     0.041     2.432     2.439
    63   1 H        0.926     0.039     2.465     2.455
    64   1 H        0.926     0.052     2.300     2.372
    65   1 H        0.926     0.049     2.328     2.386
    66   1 H        0.926     0.036     2.501     2.473
    67   1 H        0.926     0.036     2.504     2.474
    68   1 H        0.926     0.035     2.518     2.481
    69   1 H        0.926     0.038     2.482     2.464
    70   1 H        0.926     0.037     2.483     2.464
    71   1 H        0.926     0.035     2.517     2.481
    72   1 H        0.926     0.036     2.500     2.473
    73   1 H        0.926     0.036     2.497     2.471
    74   1 H        0.926     0.048     2.339     2.392
    75   1 H        0.926     0.052     2.297     2.370
    76   1 H        0.926     0.036     2.506     2.475

molecular dipole:
                 x           y           z       tot (Debye)
 q only:       -0.216       1.356       0.039
   full:        0.037       1.030       0.047       2.622

 projected vibrational frequencies (cm⁻¹)
eigval :       -0.00    -0.00    -0.00     0.00     0.00     0.00
eigval :       12.05    12.96    14.58    24.02    27.68    37.34
eigval :       52.35    62.26    62.78    78.15    80.68    95.30
eigval :      103.91   105.51   124.36   129.03   141.34   144.92
eigval :      148.19   170.61   183.88   218.03   225.93   233.36
eigval :      239.55   249.98   270.65   271.02   286.30   307.18
eigval :      328.21   343.43   373.01   378.93   383.52   386.36
eigval :      388.09   393.98   402.14   407.20   414.96   422.48
eigval :      424.54   435.90   439.49   466.18   471.65   479.22
eigval :      500.94   515.81   516.03   536.88   537.57   538.60
eigval :      538.80   546.81   552.92   560.50   578.14   581.87
eigval :      590.23   594.67   596.73   606.33   616.01   619.30
eigval :      639.61   673.94   674.23   675.16   685.68   690.43
eigval :      696.64   708.87   710.38   722.97   747.75   754.28
eigval :      755.57   756.52   769.44   769.49   779.14   779.22
eigval :      808.71   818.91   821.23   828.78   847.08   857.62
eigval :      861.89   869.00   871.39   871.81   874.08   883.18
eigval :      896.22   896.36   899.24   902.43   902.61   903.04
eigval :      903.17   906.92   915.96   917.07   919.28   921.51
eigval :      924.02   924.64   927.84   933.41   935.81   952.26
eigval :     1009.20  1009.99  1010.24  1011.75  1066.38  1068.40
eigval :     1069.82  1071.34  1081.89  1107.88  1113.00  1114.27
eigval :     1119.01  1124.17  1135.41  1144.37  1145.51  1156.90
eigval :     1169.45  1173.15  1174.38  1175.45  1178.30  1178.80
eigval :     1181.43  1193.96  1201.36  1218.23  1230.44  1231.32
eigval :     1235.72  1238.54  1239.62  1254.81  1262.12  1282.36
eigval :     1289.00  1289.34  1292.64  1293.73  1305.22  1319.09
eigval :     1323.99  1330.40  1347.10  1347.37  1350.47  1353.15
eigval :     1358.79  1361.28  1367.98  1386.17  1406.90  1411.66
eigval :     1412.74  1415.32  1417.25  1421.08  1425.49  1454.58
eigval :     1463.64  1464.07  1471.24  1482.04  1482.62  1484.66
eigval :     1514.50  1516.50  1536.88  1537.71  1565.67  1566.51
eigval :     1568.11  1575.95  1580.50  1582.22  1582.65  1583.69
eigval :     1599.96  1603.97  3072.48  3075.46  3076.06  3076.18
eigval :     3076.80  3079.66  3080.80  3081.22  3081.65  3081.98
eigval :     3082.40  3082.88  3085.89  3087.14  3088.90  3089.86
eigval :     3090.06  3090.39  3091.06  3094.25  3094.90  3095.14
eigval :     3096.02  3096.05  3096.20  3096.60  3097.51  3098.75

   temp. (K)  partition function   enthalpy   heat capacity  entropy
                                   cal/mol     cal/K/mol   cal/K/mol   J/K/mol
 298.15  VIB  0.105E+17            21233.207    138.576    130.463
         ROT  0.127E+09              888.752      2.981     40.063
         INT  0.133E+25            22121.959    141.557    170.526
         TR   0.147E+29             1481.254      4.968     45.101
         TOT                       23603.2131   146.5248   215.6267   902.1820

       T/K    H(0)-H(T)+PV         H(T)/Eh          T*S/Eh         G(T)/Eh
   ------------------------------------------------------------------------
    298.15    0.376141E-01    0.612909E+00    0.102451E+00    0.510458E+00
   ------------------------------------------------------------------------

         :::::::::::::::::::::::::::::::::::::::::::::::::::::
         ::                  THERMODYNAMIC                  ::
         :::::::::::::::::::::::::::::::::::::::::::::::::::::
         :: total free energy        -119.743011277143 Eh   ::
         ::.................................................::
         :: total energy             -120.253469033008 Eh   ::
         :: zero point energy           0.575294834987 Eh   ::
         :: G(RRHO) w/o ZPVE           -0.064837079122 Eh   ::
         :: G(RRHO) contrib.            0.510457755865 Eh   ::
         :::::::::::::::::::::::::::::::::::::::::::::::::::::

           -------------------------------------------------
          | TOTAL ENERGY             -120.253469033008 Eh   |
          | TOTAL ENTHALPY           -119.640560083680 Eh   |
          | TOTAL FREE ENERGY        -119.743011277143 Eh   |
          | GRADIENT NORM               0.000047219509 Eh/α |
          | HOMO-LUMO GAP               0.703184952470 eV   |
           -------------------------------------------------

 * finished run on 2025/08/26 at 02:05:42.771
