   * xtb version 6.7.1 (edcfbbe) compiled by 'albert@albert-system' on 2024-07-22

   ID    Z sym.   atoms
    1    6 C      1-9, 11-24, 26-30, 32-45, 47, 48
    2    7 N      10, 25, 31, 46
    3    1 H      49-76

          program call               : xtb data2507/toluene/24PQ-Cz/24PQ-Cz.xyz --gfn 2 --gbsa toluene --ohess vtight --parallel 40 --molden --ceasefiles --namespace data2507/toluene/24PQ-Cz/24PQ-Cz_toluene_S0_preOpt
      * Solvation model:               GBSA
        Solvent                        toluene
        Solvent mass                       9.2140E+01 g/mol
          :  Hamiltonian                  GFN2-xTB          :
 * total energy  :  -120.2995293 Eh     change       -0.2319396E-08 Eh
 * total energy  :  -120.3162171 Eh     change       -0.1668782E-01 Eh
 * total energy  :  -120.3201260 Eh     change       -0.3908847E-02 Eh
 * total energy  :  -120.3209367 Eh     change       -0.8106838E-03 Eh
 * total energy  :  -120.3216178 Eh     change       -0.6811121E-03 Eh
 * total energy  :  -120.3219185 Eh     change       -0.3007474E-03 Eh
 * total energy  :  -120.3221347 Eh     change       -0.2161219E-03 Eh
 * total energy  :  -120.3223157 Eh     change       -0.1810293E-03 Eh
 * total energy  :  -120.3224391 Eh     change       -0.1234585E-03 Eh
 * total energy  :  -120.3225279 Eh     change       -0.8879182E-04 Eh
 * total energy  :  -120.3231263 Eh     change       -0.2887783E-06 Eh
 * total energy  :  -120.3231266 Eh     change       -0.2351321E-06 Eh
 * total energy  :  -120.3231268 Eh     change       -0.2075214E-06 Eh
 * total energy  :  -120.3231270 Eh     change       -0.2550090E-06 Eh
 * total energy  :  -120.3231274 Eh     change       -0.3369140E-06 Eh
 * total energy  :  -120.3231278 Eh     change       -0.4585822E-06 Eh
 * total energy  :  -120.3231282 Eh     change       -0.3460375E-06 Eh
 * total energy  :  -120.3231283 Eh     change       -0.1707823E-06 Eh
 * total energy  :  -120.3231284 Eh     change       -0.7438088E-07 Eh
   *** GEOMETRY OPTIMIZATION CONVERGED AFTER 93 ITERATIONS ***

 final structure:
================
76
 xtb: 6.7.1 (edcfbbe)
C            0.84308896406877       -6.20685120619634        1.76371167586623
C            2.09006153827231       -5.66699512886876        1.40884911676591
C            2.19742751711730       -4.36265801849706        1.00686203044138
C            1.05312696072101       -3.54591414759887        0.95192212948447
C            1.03313594846359       -2.16954134888053        0.58183021085642
C            2.26188563483901       -1.39079174111684        0.37319945266552
C            2.36143471559256       -0.54682557176754       -0.73134746561581
C            3.49883342914339        0.20480179850185       -0.94211110977500
C            4.55943076611556        0.13603724984084       -0.04027409936934
N            5.71799832845995        0.89224804409159       -0.25347403867406
C            6.44891296985026        0.93725951367034       -1.42608484974950
C            6.25897708417910        0.24517072784690       -2.61391522981154
C            7.16632910351758        0.45413612852935       -3.63543342784609
C            8.24528311414772        1.32275949956713       -3.48399116050324
C            8.45325311121764        1.99545175476736       -2.29606987616826
C            7.55418573360992        1.80216369386366       -1.25494306621905
C            7.47398005204141        2.30731375003635        0.08784008836520
C            8.24832303993433        3.19743614519840        0.82115495458803
C            7.86845347585597        3.49498665713213        2.11501728370868
C            6.72451330204588        2.92835748978550        2.67358748471748
C            5.93857342111728        2.04002641916123        1.96395702731155
C            6.32929799687211        1.71765821465787        0.67185932381284
C            4.45451707903236       -0.68749086465198        1.07879400566534
C            3.31597118179842       -1.44143585524070        1.28332786371144
N           -0.09862309735567       -1.52659727015998        0.41476225288511
C           -1.25717275986150       -2.16708114993717        0.67281287304728
C           -2.48962375356044       -1.41008546387720        0.45229238877350
C           -2.44073012520432       -0.10115049841607       -0.02692475548802
C           -3.60300417241536        0.60785633559889       -0.24595955339680
C           -4.84094644860397        0.02330109646609        0.01890427301939
N           -6.02128793425632        0.74327554489081       -0.19851655588740
C           -6.28616515193272        2.01997904767166        0.26089989217667
C           -5.51195672403974        2.85126367131627        1.05826861774923
C           -6.03541399906033        4.08179543095642        1.40773879231577
C           -7.30241428292150        4.48031244138982        0.98623142021633
C           -8.08726377993623        3.64763308487929        0.21324604471985
C           -7.58297265802232        2.40534101977418       -0.15017481448480
C           -8.11870084277768        1.30257826156994       -0.89956080755468
C           -9.32202670585755        1.09215677626167       -1.56087642755555
C           -9.51520370304036       -0.10669680374735       -2.21837315869041
C           -8.52003635255576       -1.08193846700064       -2.23598803666048
C           -7.31457388943700       -0.89529433734675       -1.58606627161901
C           -7.12503257455653        0.29660043823818       -0.90067345861591
C           -4.89405128991415       -1.28348835096312        0.50400763828261
C           -3.73034956883618       -1.99195127956199        0.71409287033637
N           -1.35311189663033       -3.39690232360767        1.12471609048298
C           -0.21795284346365       -4.10906932617108        1.25522126054746
C           -0.29357648371133       -5.45131009884695        1.68340383982969
H            0.78640180637299       -7.23654085575295        2.08507467308966
H            2.96856617571806       -6.29358089869342        1.45027983737259
H            3.15260312699620       -3.95513200894820        0.71128424970900
H            1.53455195586441       -0.49239431543974       -1.42292297668185
H            3.56634799666770        0.86331691571130       -1.79494417686006
H            5.43635740247435       -0.44310775984881       -2.73666678187751
H            7.03757834769778       -0.07025599300528       -4.57116499341042
H            8.93175535029929        1.46107833514606       -4.30639214138353
H            9.29830254958542        2.65633073787255       -2.17337417694074
H            9.12547201474566        3.64946464366449        0.38276406913358
H            8.45776456090786        4.18346634357773        2.70279518575819
H            6.44261521962902        3.19278828401320        3.68244484055540
H            5.04370296941315        1.62246576583110        2.40020379443400
H            5.27423104579290       -0.74255006074336        1.77920605052063
H            3.23465203905855       -2.05694286596252        2.16732800056768
H           -1.47884243968669        0.34314630622919       -0.22923006054138
H           -3.56244081380163        1.61297251405943       -0.63828414720539
H           -4.53696871448947        2.54507009446387        1.40605705596634
H           -5.45050246384973        4.74754782424999        2.02569767902231
H           -7.67551687026686        5.45090104662551        1.27886094424697
H           -9.07614688789718        3.94910649123968       -0.09851533899024
H          -10.08648352492348        1.85478061148192       -1.56165313549058
H          -10.44530366901771       -0.29166347851045       -2.73560613613650
H           -8.69294285291390       -2.00356733238908       -2.77253088240537
H           -6.54379978681762       -1.65027939607978       -1.62103505744093
H           -5.85174899104321       -1.72846076127772        0.72895166128827
H           -3.75918967033744       -3.00171090090376        1.09267197850372
H           -1.26581830625161       -5.85408126984975        1.92094724653914

          :  Hamiltonian                  GFN2-xTB          :
         :: gradient norm              0.000029027980 Eh/a0 ::
         :: HOMO-LUMO gap              1.808491343792 eV    ::
         :: SCC energy              -122.569142722400 Eh    ::
         :: -> dispersion             -0.104683370155 Eh    ::
         :: -> Gsolv                  -0.051807172378 Eh    ::
         :: repulsion energy           2.246014313823 Eh    ::

    * Orbital Energies and Occupations

         #    Occupation            Energy/Eh            Energy/eV
      -------------------------------------------------------------
         1        2.0000           -0.6789896             -18.4762
       ...           ...                  ...                  ...
       100        2.0000           -0.4185984             -11.3906
       101        2.0000           -0.4180836             -11.3766
       102        2.0000           -0.4149628             -11.2917
       103        2.0000           -0.4122767             -11.2186
       104        2.0000           -0.4069993             -11.0750
       105        2.0000           -0.4051729             -11.0253
       106        2.0000           -0.4027657             -10.9598
       107        2.0000           -0.3968123             -10.7978
       108        2.0000           -0.3804441             -10.3524
       109        2.0000           -0.3785714             -10.3015
       110        2.0000           -0.3655965              -9.9484
       111        2.0000           -0.3648513              -9.9281
       112        2.0000           -0.3623021              -9.8587 (HOMO)
       113                         -0.2958412              -8.0502 (LUMO)
       114                         -0.2707164              -7.3666
       115                         -0.2487036              -6.7676
       116                         -0.2447703              -6.6605
       117                         -0.2415694              -6.5734
       118                         -0.2393775              -6.5138
       119                         -0.2326602              -6.3310
       120                         -0.2259399              -6.1481
       121                         -0.2237739              -6.0892
       122                         -0.2218872              -6.0379
       123                         -0.2069439              -5.6312
       ...                                ...                  ...
       220                          0.7442305              20.2515
      -------------------------------------------------------------
                  HL-Gap            0.0664609 Eh            1.8085 eV

     #   Z          covCN         q      C6AA      α(0)
     1   6 C        2.916    -0.022    28.567     8.765
     2   6 C        2.917    -0.029    28.726     8.789
     3   6 C        2.913    -0.034    28.857     8.809
     4   6 C        2.979    -0.023    28.582     8.770
     5   6 C        2.957     0.115    25.460     8.276
     6   6 C        2.981    -0.000    28.028     8.684
     7   6 C        2.924    -0.023    28.579     8.767
     8   6 C        2.920    -0.040    29.004     8.832
     9   6 C        2.912     0.068    26.473     8.437
    10   7 N        2.801    -0.043    22.061     6.976
    11   6 C        3.073     0.046    26.884     8.501
    12   6 C        2.910    -0.052    29.283     8.873
    13   6 C        2.924    -0.034    28.856     8.809
    14   6 C        2.920    -0.042    29.037     8.837
    15   6 C        2.912    -0.034    28.851     8.808
    16   6 C        3.067    -0.017    28.373     8.734
    17   6 C        3.067    -0.017    28.373     8.734
    18   6 C        2.912    -0.034    28.852     8.808
    19   6 C        2.920    -0.042    29.037     8.837
    20   6 C        2.924    -0.034    28.856     8.809
    21   6 C        2.910    -0.052    29.280     8.873
    22   6 C        3.073     0.046    26.883     8.501
    23   6 C        2.921    -0.042    29.046     8.838
    24   6 C        2.922    -0.029    28.727     8.789
    25   7 N        1.849    -0.291    28.398     7.898
    26   6 C        2.938     0.187    24.010     8.036
    27   6 C        2.983    -0.007    28.185     8.709
    28   6 C        2.923    -0.028    28.695     8.785
    29   6 C        2.920    -0.042    29.055     8.839
    30   6 C        2.912     0.068    26.470     8.437
    31   7 N        2.801    -0.041    22.040     6.973
    32   6 C        3.073     0.047    26.881     8.501
    33   6 C        2.910    -0.051    29.276     8.872
    34   6 C        2.924    -0.034    28.858     8.810
    35   6 C        2.920    -0.042    29.041     8.837
    36   6 C        2.912    -0.034    28.856     8.809
    37   6 C        3.067    -0.017    28.375     8.735
    38   6 C        3.067    -0.017    28.375     8.735
    39   6 C        2.912    -0.034    28.856     8.809
    40   6 C        2.920    -0.042    29.042     8.837
    41   6 C        2.924    -0.034    28.859     8.810
    42   6 C        2.910    -0.051    29.277     8.872
    43   6 C        3.073     0.047    26.881     8.501
    44   6 C        2.920    -0.042    29.043     8.838
    45   6 C        2.923    -0.028    28.696     8.785
    46   7 N        1.845    -0.298    28.569     7.922
    47   6 C        2.979     0.105    25.683     8.313
    48   6 C        2.918    -0.044    29.086     8.844
    49   1 H        0.926     0.049     2.337     2.391
    50   1 H        0.926     0.047     2.358     2.401
    51   1 H        0.926     0.045     2.389     2.417
    52   1 H        0.926     0.049     2.328     2.386
    53   1 H        0.926     0.051     2.302     2.372
    54   1 H        0.926     0.030     2.580     2.512
    55   1 H        0.926     0.031     2.568     2.506
    56   1 H        0.926     0.029     2.596     2.520
    57   1 H        0.926     0.032     2.560     2.502
    58   1 H        0.926     0.032     2.559     2.502
    59   1 H        0.926     0.029     2.596     2.520
    60   1 H        0.926     0.031     2.569     2.507
    61   1 H        0.926     0.030     2.580     2.512
    62   1 H        0.926     0.051     2.313     2.378
    63   1 H        0.926     0.044     2.398     2.422
    64   1 H        0.926     0.059     2.216     2.328
    65   1 H        0.926     0.050     2.321     2.383
    66   1 H        0.926     0.031     2.571     2.507
    67   1 H        0.926     0.031     2.568     2.506
    68   1 H        0.926     0.029     2.597     2.520
    69   1 H        0.926     0.032     2.560     2.502
    70   1 H        0.926     0.032     2.560     2.502
    71   1 H        0.926     0.029     2.597     2.520
    72   1 H        0.926     0.031     2.569     2.506
    73   1 H        0.926     0.031     2.572     2.508
    74   1 H        0.926     0.050     2.321     2.383
    75   1 H        0.926     0.058     2.222     2.331
    76   1 H        0.926     0.052     2.293     2.368

molecular dipole:
                 x           y           z       tot (Debye)
 q only:        0.629      -0.480       0.049
   full:        0.954      -0.768       0.115       3.128

 projected vibrational frequencies (cm⁻¹)
eigval :       -0.00    -0.00    -0.00     0.00     0.00     0.00
eigval :       10.79    12.57    14.66    22.38    26.11    36.51
eigval :       52.30    59.59    65.40    74.55    81.38    92.91
eigval :      105.47   107.57   123.30   128.74   139.48   145.48
eigval :      147.44   162.03   185.00   211.82   220.36   234.82
eigval :      244.68   250.16   272.18   272.66   283.63   313.07
eigval :      326.75   344.01   377.83   379.93   384.60   386.57
eigval :      393.42   400.48   403.11   408.53   412.30   424.12
eigval :      427.05   437.93   440.67   468.44   480.88   500.37
eigval :      513.35   518.10   519.00   534.32   535.13   541.30
eigval :      542.72   553.87   563.28   579.41   583.33   590.53
eigval :      593.43   608.96   615.63   616.87   636.18   645.50
eigval :      660.22   675.02   675.16   689.95   698.26   708.22
eigval :      709.02   710.61   728.35   753.69   756.82   760.45
eigval :      767.35   768.75   769.00   779.91   780.17   780.66
eigval :      826.65   830.78   854.53   864.88   866.59   872.10
eigval :      873.15   874.85   878.71   880.49   887.37   897.38
eigval :      897.51   900.91   900.95   903.26   903.30   917.80
eigval :      919.20   919.95   921.72   922.54   923.43   927.48
eigval :      930.09   935.87   936.30   942.44   944.79   976.18
eigval :     1011.09  1011.11  1016.01  1022.28  1067.98  1068.89
eigval :     1069.47  1072.17  1072.66  1112.65  1116.10  1119.12
eigval :     1123.81  1133.81  1140.28  1150.91  1151.64  1168.25
eigval :     1173.74  1175.41  1176.05  1179.81  1180.81  1181.75
eigval :     1188.43  1195.99  1209.24  1233.01  1234.17  1234.66
eigval :     1241.86  1243.87  1253.68  1259.10  1263.77  1297.96
eigval :     1298.49  1298.88  1299.63  1314.65  1321.76  1325.17
eigval :     1335.43  1352.38  1355.53  1356.87  1359.22  1359.39
eigval :     1363.58  1380.60  1380.87  1403.11  1407.41  1423.92
eigval :     1426.36  1426.70  1427.18  1437.98  1472.99  1473.62
eigval :     1476.34  1486.18  1486.46  1489.94  1495.60  1520.97
eigval :     1536.22  1558.09  1562.50  1573.57  1573.68  1586.32
eigval :     1586.87  1589.56  1590.35  1596.67  1596.96  1601.64
eigval :     1612.04  1612.22  3071.60  3071.79  3071.91  3072.62
eigval :     3077.28  3077.29  3078.06  3078.15  3078.26  3081.03
eigval :     3083.35  3085.09  3085.23  3085.85  3086.40  3089.06
eigval :     3089.44  3090.53  3091.66  3091.93  3093.61  3093.84
eigval :     3094.15  3096.37  3100.10  3103.16  3105.24  3107.15

   temp. (K)  partition function   enthalpy   heat capacity  entropy
                                   cal/mol     cal/K/mol   cal/K/mol   J/K/mol
 298.15  VIB  0.129E+17            21057.380    136.891    129.898
         ROT  0.129E+09              888.752      2.981     40.090
         INT  0.166E+25            21946.132    139.871    169.987
         TR   0.147E+29             1481.254      4.968     45.101
         TOT                       23427.3858   144.8396   215.0884   899.9298

       T/K    H(0)-H(T)+PV         H(T)/Eh          T*S/Eh         G(T)/Eh
   ------------------------------------------------------------------------
    298.15    0.373339E-01    0.616224E+00    0.102195E+00    0.514029E+00
   ------------------------------------------------------------------------

         :::::::::::::::::::::::::::::::::::::::::::::::::::::
         ::                  THERMODYNAMIC                  ::
         :::::::::::::::::::::::::::::::::::::::::::::::::::::
         :: total free energy        -119.809099787691 Eh   ::
         ::.................................................::
         :: total energy             -120.323128405121 Eh   ::
         :: zero point energy           0.578890136041 Eh   ::
         :: G(RRHO) w/o ZPVE           -0.064861518611 Eh   ::
         :: G(RRHO) contrib.            0.514028617430 Eh   ::
         :::::::::::::::::::::::::::::::::::::::::::::::::::::

           -------------------------------------------------
          | TOTAL ENERGY             -120.323128405121 Eh   |
          | TOTAL ENTHALPY           -119.706904353357 Eh   |
          | TOTAL FREE ENERGY        -119.809099787691 Eh   |
          | GRADIENT NORM               0.000029041622 Eh/α |
          | HOMO-LUMO GAP               1.808492111711 eV   |
           -------------------------------------------------

 * finished run on 2025/08/26 at 02:01:44.469
