   * xtb version 6.7.1 (edcfbbe) compiled by 'albert@albert-system' on 2024-07-22

   ID    Z sym.   atoms
    1    8 O      1
    2    6 C      2-6, 8-25, 27-34
    3    7 N      7
    4   16 S      26
    5    1 H      35-53

          program call               : xtb data2507/toluene/CTM/CTM_toluene_T1_crest.xyz --gfn 2 --uhf 2 --gbsa toluene --ohess vtight --parallel 40 --molden --ceasefiles --namespace data2507/toluene/CTM/CTM_toluene_T1_finalOpt
      * Solvation model:               GBSA
        Solvent                        toluene
        Solvent mass                       9.2140E+01 g/mol
          :  Hamiltonian                  GFN2-xTB          :
 * total energy  :   -86.2929999 Eh     change       -0.2071675E-07 Eh
 * total energy  :   -86.2930903 Eh     change       -0.9046394E-04 Eh
 * total energy  :   -86.2931161 Eh     change       -0.2578739E-04 Eh
 * total energy  :   -86.2931241 Eh     change       -0.7981664E-05 Eh
 * total energy  :   -86.2931305 Eh     change       -0.6407277E-05 Eh
 * total energy  :   -86.2931368 Eh     change       -0.6313297E-05 Eh
 * total energy  :   -86.2931417 Eh     change       -0.4933584E-05 Eh
 * total energy  :   -86.2931448 Eh     change       -0.3032560E-05 Eh
 * total energy  :   -86.2931468 Eh     change       -0.2020978E-05 Eh
 * total energy  :   -86.2931484 Eh     change       -0.1652452E-05 Eh
 * total energy  :   -86.2931653 Eh     change       -0.6615180E-05 Eh
 * total energy  :   -86.2931693 Eh     change       -0.4042758E-05 Eh
 * total energy  :   -86.2931720 Eh     change       -0.2650456E-05 Eh
 * total energy  :   -86.2931761 Eh     change       -0.4135258E-05 Eh
 * total energy  :   -86.2931786 Eh     change       -0.2457872E-05 Eh
 * total energy  :   -86.2931791 Eh     change       -0.4993987E-06 Eh
 * total energy  :   -86.2931792 Eh     change       -0.1123488E-06 Eh
 * total energy  :   -86.2931793 Eh     change       -0.1109457E-06 Eh
 * total energy  :   -86.2931794 Eh     change       -0.9189830E-07 Eh
   *** GEOMETRY OPTIMIZATION CONVERGED AFTER 24 ITERATIONS ***

 final structure:
================
53
 xtb: 6.7.1 (edcfbbe)
O            1.57125099131390       -2.45461163575628        1.38315080748963
C            1.30439480508918       -1.30636967523151        0.89998851622694
C           -0.06867898947783       -0.94294578740496        0.64128958526008
C           -0.46349797582883        0.04178996223467       -0.29239327613489
C           -1.78753311430266        0.33061896102698       -0.49695653429429
C           -2.78796862980077       -0.37652339142824        0.18864259847196
N           -4.13286277981149       -0.06957581283905       -0.01859448937418
C           -4.68648940825187        1.19256375108373        0.03219114425107
C           -4.08373335383204        2.40946200350921        0.32994415831843
C           -4.88206023802535        3.53918045991679        0.33897972243102
C           -6.24655613350305        3.46470609441751        0.07040535498827
C           -6.85857749328478        2.25002695501379       -0.20097915651226
C           -6.07912307417108        1.10571249260143       -0.21589874196326
C           -6.36661346932772       -0.29044398444164       -0.42907807694144
C           -7.52242758583173       -0.99403290671590       -0.72173323092956
C           -7.43632022149267       -2.36798691565602       -0.89204334065775
C           -6.21584943009468       -3.03129595158483       -0.79039181684338
C           -5.04787229076785       -2.34946148617417       -0.49935282633645
C           -5.13264210575895       -0.97606594861319       -0.29788013708257
C           -2.41347921281729       -1.41010873444465        1.06364073005182
C           -1.09207305555803       -1.69430458677154        1.27073302857415
C            2.39640071926792       -0.39197149296087        0.59048596041562
C            2.25167401479152        1.01008270477548        0.63971590319036
C            3.31205529287115        1.84566502767570        0.37513444526905
C            4.54929845452455        1.28838948677282        0.07010280032983
S            6.01425656656928        2.16947614336652       -0.30121595066008
C            6.90952024971935        0.67132676447789       -0.46066375800379
C            8.25645630644055        0.56235320885983       -0.76667527398500
C            8.81113621827912       -0.70219778978223       -0.84891790988047
C            8.03297275792958       -1.83382327338913       -0.62978218746714
C            6.68800039161640       -1.72119968213540       -0.32707252643795
C            6.10769231959359       -0.46143063619527       -0.23874452514139
C            4.74035919512296       -0.10772563263768        0.06605127380409
C            3.66811749872177       -0.93430492414642        0.33802006210616
H            0.28466131430498        0.54796730822773       -0.88253383531019
H           -2.07414885186322        1.07098660209040       -1.22961547618920
H           -3.03098184658772        2.46960127047518        0.55771031409823
H           -4.43826619414171        4.49706639042000        0.56435733681541
H           -6.83747362747490        4.36809980722213        0.08456841386639
H           -7.91948886438826        2.19611034719682       -0.39028394498369
H           -8.46806638127043       -0.48365710524043       -0.81971299969141
H           -8.32720490997442       -2.93375159819552       -1.11942731200474
H           -6.17819558048822       -4.09865334752802       -0.94775194708246
H           -4.10130708942900       -2.86437020447477       -0.44539826387321
H           -3.17771777541597       -1.94832749561480        1.60475915911861
H           -0.78864059116437       -2.47747720931738        1.95011769370415
H            1.30272549675013        1.43539477943357        0.92722976924599
H            3.19377508055828        2.91788658975497        0.41441494635371
H            8.85222082145324        1.44630253388542       -0.93353416086441
H            9.85898667420803       -0.80965111865913       -1.08486497947821
H            8.48442303489145       -2.81239355170038       -0.69693748318454
H            6.08534204357369       -2.60047905856194       -0.15674859527979
H            3.78049316024970       -2.00800833813683        0.34845380040712

          :  Hamiltonian                  GFN2-xTB          :
         :: gradient norm              0.000104924481 Eh/a0 ::
         :: HOMO-LUMO gap              0.690452387926 eV    ::
         :: SCC energy               -87.823443145074 Eh    ::
         :: -> dispersion             -0.071697303952 Eh    ::
         :: -> Gsolv                  -0.046676782135 Eh    ::
         :: repulsion energy           1.530263764243 Eh    ::

    * Orbital Energies and Occupations

         #    Occupation            Energy/Eh            Energy/eV
      -------------------------------------------------------------
         1        2.0000           -0.7333748             -19.9561
       ...           ...                  ...                  ...
        69        2.0000           -0.4321692             -11.7599
        70        2.0000           -0.4274150             -11.6306
        71        2.0000           -0.4261543             -11.5962
        72        2.0000           -0.4216100             -11.4726
        73        2.0000           -0.4146226             -11.2825
        74        2.0000           -0.4135667             -11.2537
        75        2.0000           -0.4098659             -11.1530
        76        2.0000           -0.3955355             -10.7631
        77        2.0000           -0.3928965             -10.6913
        78        1.9767           -0.3806323             -10.3575
        79        1.7251           -0.3780026             -10.2860
        80        1.2982           -0.3762681             -10.2388
        81        1.0000           -0.2858944              -7.7796 (HOMO)
        82        0.0000           -0.2605204              -7.0891 (LUMO)
        83        0.0000           -0.2589861              -7.0474
        84                         -0.2407449              -6.5510
        85                         -0.2398654              -6.5271
        86                         -0.2348180              -6.3897
        87                         -0.2279242              -6.2021
        88                         -0.2120819              -5.7710
        89                         -0.2119308              -5.7669
        90                         -0.2021501              -5.5008
        91                         -0.2017450              -5.4898
        92                         -0.1748681              -4.7584
       ...                                ...                  ...
       160                          0.7278959              19.8071
      -------------------------------------------------------------
                  HL-Gap            0.0253739 Eh            0.6905 eV

     #   Z          covCN         q      C6AA      α(0)
     1   8 O        0.858    -0.497    23.715     6.529
     2   6 C        2.834     0.164    24.448     8.103
     3   6 C        2.967    -0.011    28.294     8.725
     4   6 C        2.916    -0.042    29.042     8.837
     5   6 C        2.915    -0.040    28.992     8.829
     6   6 C        2.912     0.041    27.087     8.534
     7   7 N        2.800     0.007    21.141     6.829
     8   6 C        3.074     0.046    26.889     8.502
     9   6 C        2.909    -0.037    28.923     8.819
    10   6 C        2.922    -0.029    28.732     8.790
    11   6 C        2.920    -0.029    28.717     8.788
    12   6 C        2.911    -0.026    28.655     8.778
    13   6 C        3.063    -0.009    28.168     8.703
    14   6 C        3.063    -0.008    28.164     8.703
    15   6 C        2.911    -0.026    28.654     8.778
    16   6 C        2.920    -0.028    28.708     8.786
    17   6 C        2.922    -0.029    28.730     8.790
    18   6 C        2.909    -0.037    28.913     8.817
    19   6 C        3.074     0.046    26.882     8.501
    20   6 C        2.914    -0.040    28.998     8.830
    21   6 C        2.922    -0.029    28.735     8.791
    22   6 C        2.967    -0.012    28.315     8.728
    23   6 C        2.922    -0.042    29.034     8.836
    24   6 C        2.930    -0.038    28.943     8.823
    25   6 C        3.000     0.024    27.456     8.595
    26  16 S        2.206    -0.055   143.323    20.149
    27   6 C        3.002     0.037    27.162     8.549
    28   6 C        2.935    -0.036    28.894     8.816
    29   6 C        2.923    -0.029    28.728     8.790
    30   6 C        2.918    -0.030    28.754     8.793
    31   6 C        2.917    -0.029    28.735     8.790
    32   6 C        3.102     0.000    27.896     8.655
    33   6 C        3.096    -0.004    27.999     8.672
    34   6 C        2.923    -0.031    28.785     8.798
    35   1 H        0.926     0.043     2.416     2.430
    36   1 H        0.926     0.046     2.376     2.411
    37   1 H        0.926     0.047     2.358     2.401
    38   1 H        0.926     0.046     2.369     2.407
    39   1 H        0.926     0.047     2.362     2.403
    40   1 H        0.926     0.049     2.333     2.389
    41   1 H        0.926     0.049     2.327     2.385
    42   1 H        0.926     0.047     2.359     2.402
    43   1 H        0.926     0.046     2.376     2.411
    44   1 H        0.926     0.046     2.368     2.406
    45   1 H        0.926     0.045     2.382     2.414
    46   1 H        0.926     0.040     2.451     2.448
    47   1 H        0.926     0.043     2.403     2.424
    48   1 H        0.926     0.045     2.381     2.413
    49   1 H        0.926     0.049     2.336     2.390
    50   1 H        0.926     0.047     2.355     2.400
    51   1 H        0.926     0.044     2.393     2.419
    52   1 H        0.926     0.042     2.426     2.436
    53   1 H        0.926     0.039     2.463     2.454

molecular dipole:
                 x           y           z       tot (Debye)
 q only:       -2.768       1.760      -1.188
   full:       -2.736       1.537      -1.148       8.494

 projected vibrational frequencies (cm⁻¹)
eigval :       -0.00    -0.00    -0.00     0.00     0.00     0.00
eigval :       13.85    18.26    23.94    44.97    54.80    71.57
eigval :       87.85   102.67   105.04   112.05   142.01   149.77
eigval :      162.03   166.53   213.03   228.63   238.32   253.93
eigval :      260.39   268.37   292.94   314.98   342.84   379.93
eigval :      383.38   391.64   394.95   403.36   410.20   411.89
eigval :      418.10   432.89   456.48   464.67   479.37   504.56
eigval :      511.30   524.89   531.93   546.31   552.60   578.89
eigval :      585.44   591.35   595.65   610.09   638.67   652.33
eigval :      665.92   674.43   685.66   694.01   699.88   710.42
eigval :      723.28   752.91   767.83   771.95   774.07   790.89
eigval :      800.71   817.28   842.37   851.22   866.78   868.26
eigval :      869.45   893.61   898.72   902.52   906.05   906.71
eigval :      909.37   912.66   919.95   921.70   922.36   934.80
eigval :      936.92   981.56   998.90  1007.72  1037.87  1063.10
eigval :     1066.55  1073.16  1080.71  1108.51  1130.14  1132.24
eigval :     1148.59  1149.95  1156.46  1170.00  1173.46  1175.28
eigval :     1175.87  1192.98  1216.08  1221.22  1228.12  1233.17
eigval :     1245.96  1253.15  1268.74  1277.96  1283.86  1320.10
eigval :     1324.27  1329.22  1337.24  1344.04  1363.93  1381.04
eigval :     1399.31  1402.47  1407.98  1412.42  1417.41  1426.71
eigval :     1442.15  1448.62  1457.12  1459.48  1474.45  1488.32
eigval :     1520.71  1556.88  1557.10  1563.52  1566.85  1569.73
eigval :     1573.34  1591.25  3076.62  3078.02  3080.05  3083.21
eigval :     3083.93  3085.17  3087.58  3088.10  3089.55  3090.37
eigval :     3090.92  3092.15  3093.80  3097.03  3097.83  3098.31
eigval :     3100.99  3102.19  3103.12

   temp. (K)  partition function   enthalpy   heat capacity  entropy
                                   cal/mol     cal/K/mol   cal/K/mol   J/K/mol
 298.15  VIB  0.428E+11            14897.097     98.462     90.304
         ROT  0.399E+08              888.752      2.981     37.760
         INT  0.170E+19            15785.849    101.443    128.064
         TR   0.935E+28             1481.254      4.968     44.205
         TOT                       17267.1033   106.4115   172.2683   720.7704

       T/K    H(0)-H(T)+PV         H(T)/Eh          T*S/Eh         G(T)/Eh
   ------------------------------------------------------------------------
    298.15    0.275169E-01    0.418948E+00    0.818502E-01    0.337098E+00
   ------------------------------------------------------------------------

         :::::::::::::::::::::::::::::::::::::::::::::::::::::
         ::                  THERMODYNAMIC                  ::
         :::::::::::::::::::::::::::::::::::::::::::::::::::::
         :: total free energy         -85.956081835704 Eh   ::
         ::.................................................::
         :: total energy              -86.293179382997 Eh   ::
         :: zero point energy           0.391430878448 Eh   ::
         :: G(RRHO) w/o ZPVE           -0.054333331156 Eh   ::
         :: G(RRHO) contrib.            0.337097547293 Eh   ::
         :::::::::::::::::::::::::::::::::::::::::::::::::::::

           -------------------------------------------------
          | TOTAL ENERGY              -86.293179382997 Eh   |
          | TOTAL ENTHALPY            -85.874231623861 Eh   |
          | TOTAL FREE ENERGY         -85.956081835704 Eh   |
          | GRADIENT NORM               0.000104797093 Eh/α |
          | HOMO-LUMO GAP               0.690460225199 eV   |
           -------------------------------------------------

 * finished run on 2025/09/07 at 01:26:19.276
