   * xtb version 6.7.1 (edcfbbe) compiled by 'albert@albert-system' on 2024-07-22

   ID    Z sym.   atoms
    1    8 O      1
    2    6 C      2-6, 8-25, 27-34
    3    7 N      7
    4   16 S      26
    5    1 H      35-53

          program call               : xtb data2507/toluene/CTM/CTM_toluene_S0_finalOpt.xtbopt.xyz --gfn 2 --uhf 2 --gbsa toluene --ohess vtight --parallel 40 --molden --ceasefiles --namespace data2507/toluene/CTM/CTM_toluene_T1_preOpt
      * Solvation model:               GBSA
        Solvent                        toluene
        Solvent mass                       9.2140E+01 g/mol
          :  Hamiltonian                  GFN2-xTB          :
 * total energy  :   -86.2878024 Eh     change       -0.6095249E-08 Eh
 * total energy  :   -86.2911266 Eh     change       -0.3324223E-02 Eh
 * total energy  :   -86.2920392 Eh     change       -0.9126407E-03 Eh
 * total energy  :   -86.2921887 Eh     change       -0.1494640E-03 Eh
 * total energy  :   -86.2922992 Eh     change       -0.1105201E-03 Eh
 * total energy  :   -86.2923924 Eh     change       -0.9313767E-04 Eh
 * total energy  :   -86.2924687 Eh     change       -0.7638124E-04 Eh
 * total energy  :   -86.2925161 Eh     change       -0.4738773E-04 Eh
 * total energy  :   -86.2925618 Eh     change       -0.4563029E-04 Eh
 * total energy  :   -86.2925933 Eh     change       -0.3152889E-04 Eh
 * total energy  :   -86.2932561 Eh     change       -0.4201234E-06 Eh
 * total energy  :   -86.2932565 Eh     change       -0.4085383E-06 Eh
 * total energy  :   -86.2932569 Eh     change       -0.3884414E-06 Eh
 * total energy  :   -86.2932573 Eh     change       -0.3668026E-06 Eh
 * total energy  :   -86.2932576 Eh     change       -0.3701999E-06 Eh
 * total energy  :   -86.2932580 Eh     change       -0.4093281E-06 Eh
 * total energy  :   -86.2932585 Eh     change       -0.4840533E-06 Eh
 * total energy  :   -86.2932591 Eh     change       -0.5723576E-06 Eh
 * total energy  :   -86.2932591 Eh     change       -0.4676508E-08 Eh
   *** GEOMETRY OPTIMIZATION CONVERGED AFTER 68 ITERATIONS ***

 final structure:
================
53
 xtb: 6.7.1 (edcfbbe)
O            1.25561905583073       -3.90811989507130        1.07051452841491
C            1.30631241419250       -2.71187742969502        0.63700096697108
C            0.07954765240634       -1.96867615608103        0.45904454901745
C           -0.06503160331649       -0.88780008025563       -0.43946204047313
C           -1.26161694059727       -0.23191722006704       -0.56905255824611
C           -2.38664072856442       -0.64637216016277        0.16145206606003
N           -3.60025699148641        0.02724052705814        0.02413872049766
C           -3.77750956957825        1.39292767187539        0.10036771850368
C           -2.84742508605262        2.39077351918465        0.36899979340487
C           -3.29804059930219        3.69794921298521        0.41178689875100
C           -4.63950534489261        4.00941381219320        0.20426198155029
C           -5.57706823670652        3.01610296765454       -0.03589623607499
C           -5.14865609166606        1.70023606115387       -0.08394384382058
C           -5.82279523043575        0.44220911105928       -0.28438470062345
C           -7.14019466330167        0.09278353606101       -0.52722669298115
C           -7.44745467275335       -1.24792701956768       -0.70652211931461
C           -6.45677750184913       -2.22585569185177       -0.66217988559324
C           -5.13383811400471       -1.90065683642792       -0.42154621827225
C           -4.82424004077026       -0.56136871088764       -0.21069918634503
C           -2.27705394264694       -1.76532790376954        1.00411412170726
C           -1.08221801299009       -2.41785380540085        1.13410085329884
C            2.59425084221013       -2.11859938377723        0.30477991522444
C            3.67047493686631       -2.97731398377871       -0.01122684916653
C            4.92026057520167       -2.48775872030590       -0.30309835033174
C            5.12376612335547       -1.11237857731630       -0.26284257125131
S            6.62853200631548       -0.28180959447016       -0.58848781782443
C            5.88071841639310        1.26680202306828       -0.24452226348233
C            6.51097742677851        2.49939980447785       -0.29922572061748
C            5.77208522799337        3.63004190317208        0.00054584974331
C            4.42936887887332        3.52787047185045        0.34682055616033
C            3.80343547811186        2.29554323432651        0.40089703005156
C            4.52535071680367        1.14491886766753        0.10613235829961
C            4.08335780996298       -0.23086634085078        0.09370141596382
C            2.83102158411373       -0.73806730336025        0.38748876430350
H            0.76590434832105       -0.59870258976233       -1.06456321741401
H           -1.36224160654775        0.57708498955828       -1.27791983339253
H           -1.81082396986145        2.15288558405154        0.54939985567713
H           -2.59590884210175        4.49234687558936        0.61499788937980
H           -4.95406713108564        5.04144439530686        0.24250142503286
H           -6.61827508808013        3.26126367529383       -0.17743744343443
H           -7.90918914174656        0.84777979208339       -0.58164863659647
H           -8.46935418909897       -1.54002332040894       -0.89596770096746
H           -6.72436481243931       -3.25880266210902       -0.82591018465165
H           -4.36699776837748       -2.65958251638355       -0.41357861704568
H           -3.13442282638348       -2.07859088771269        1.58151722539652
H           -0.98026488026827       -3.27331912101471        1.78583010715362
H            3.47781231916203       -4.03983807862733       -0.02925120930428
H            5.73012248180358       -3.15364104606410       -0.55983115440676
H            7.55329491236945        2.56759770738960       -0.56924903568969
H            6.24510183859120        4.59971655813132       -0.03539504747639
H            3.86912703601112        4.42178577521061        0.57668912793796
H            2.76117914349077        2.21986830546599        0.67089942664399
H            2.04931190967028       -0.07290952341253        0.71888620207740

          :  Hamiltonian                  GFN2-xTB          :
         :: gradient norm              0.000046867334 Eh/a0 ::
         :: HOMO-LUMO gap              0.689514921019 eV    ::
         :: SCC energy               -87.823499484868 Eh    ::
         :: -> dispersion             -0.071997209502 Eh    ::
         :: -> Gsolv                  -0.047230193132 Eh    ::
         :: repulsion energy           1.530240381090 Eh    ::

    * Orbital Energies and Occupations

         #    Occupation            Energy/Eh            Energy/eV
      -------------------------------------------------------------
         1        2.0000           -0.7331997             -19.9514
       ...           ...                  ...                  ...
        69        2.0000           -0.4325468             -11.7702
        70        2.0000           -0.4277925             -11.6408
        71        2.0000           -0.4274540             -11.6316
        72        2.0000           -0.4219009             -11.4805
        73        2.0000           -0.4156938             -11.3116
        74        2.0000           -0.4137405             -11.2585
        75        2.0000           -0.4105693             -11.1722
        76        2.0000           -0.3958179             -10.7708
        77        2.0000           -0.3928006             -10.6886
        78        1.9652           -0.3806215             -10.3572
        79        1.7559           -0.3785375             -10.3005
        80        1.2789           -0.3765609             -10.2467
        81        1.0000           -0.2861811              -7.7874 (HOMO)
        82        0.0000           -0.2608419              -7.0979 (LUMO)
        83        0.0000           -0.2591058              -7.0506
        84                         -0.2415216              -6.5721
        85                         -0.2401670              -6.5353
        86                         -0.2353982              -6.4055
        87                         -0.2286924              -6.2230
        88                         -0.2124532              -5.7811
        89                         -0.2115006              -5.7552
        90                         -0.2024448              -5.5088
        91                         -0.2010269              -5.4702
        92                         -0.1753731              -4.7721
       ...                                ...                  ...
       160                          0.7275341              19.7972
      -------------------------------------------------------------
                  HL-Gap            0.0253392 Eh            0.6895 eV

     #   Z          covCN         q      C6AA      α(0)
     1   8 O        0.858    -0.495    23.666     6.522
     2   6 C        2.834     0.165    24.437     8.101
     3   6 C        2.967    -0.011    28.275     8.722
     4   6 C        2.916    -0.042    29.034     8.836
     5   6 C        2.915    -0.040    28.995     8.830
     6   6 C        2.912     0.041    27.082     8.533
     7   7 N        2.800     0.007    21.140     6.829
     8   6 C        3.073     0.046    26.893     8.503
     9   6 C        2.909    -0.037    28.926     8.819
    10   6 C        2.922    -0.029    28.734     8.791
    11   6 C        2.920    -0.029    28.719     8.788
    12   6 C        2.911    -0.026    28.655     8.778
    13   6 C        3.063    -0.009    28.168     8.703
    14   6 C        3.063    -0.008    28.165     8.703
    15   6 C        2.911    -0.026    28.654     8.778
    16   6 C        2.920    -0.028    28.707     8.786
    17   6 C        2.922    -0.029    28.729     8.790
    18   6 C        2.909    -0.037    28.915     8.817
    19   6 C        3.074     0.046    26.884     8.501
    20   6 C        2.914    -0.040    28.996     8.830
    21   6 C        2.922    -0.029    28.728     8.790
    22   6 C        2.967    -0.012    28.316     8.728
    23   6 C        2.927    -0.030    28.752     8.794
    24   6 C        2.929    -0.038    28.950     8.824
    25   6 C        3.000     0.025    27.444     8.593
    26  16 S        2.204    -0.059   143.509    20.162
    27   6 C        3.001     0.038    27.143     8.546
    28   6 C        2.935    -0.035    28.882     8.814
    29   6 C        2.922    -0.029    28.727     8.789
    30   6 C        2.918    -0.031    28.765     8.795
    31   6 C        2.917    -0.030    28.757     8.794
    32   6 C        3.101    -0.000    27.907     8.657
    33   6 C        3.096    -0.002    27.967     8.667
    34   6 C        2.918    -0.044    29.097     8.846
    35   1 H        0.926     0.043     2.413     2.429
    36   1 H        0.926     0.046     2.370     2.407
    37   1 H        0.926     0.047     2.358     2.401
    38   1 H        0.926     0.046     2.366     2.405
    39   1 H        0.926     0.047     2.363     2.404
    40   1 H        0.926     0.049     2.336     2.390
    41   1 H        0.926     0.049     2.327     2.386
    42   1 H        0.926     0.047     2.360     2.402
    43   1 H        0.926     0.045     2.377     2.411
    44   1 H        0.926     0.046     2.367     2.406
    45   1 H        0.926     0.046     2.376     2.411
    46   1 H        0.926     0.040     2.451     2.448
    47   1 H        0.926     0.038     2.476     2.461
    48   1 H        0.926     0.040     2.444     2.445
    49   1 H        0.926     0.048     2.348     2.396
    50   1 H        0.926     0.047     2.357     2.401
    51   1 H        0.926     0.046     2.371     2.408
    52   1 H        0.926     0.045     2.382     2.413
    53   1 H        0.926     0.045     2.385     2.415

molecular dipole:
                 x           y           z       tot (Debye)
 q only:       -2.674       3.606      -0.787
   full:       -2.732       3.502      -0.742      11.446

 projected vibrational frequencies (cm⁻¹)
eigval :       -0.00    -0.00    -0.00     0.00     0.00     0.00
eigval :       14.64    19.84    23.34    43.45    51.08    68.98
eigval :       97.57   102.42   108.40   123.71   125.57   142.63
eigval :      163.48   178.22   213.48   233.66   248.94   260.47
eigval :      264.60   268.76   285.43   303.82   346.84   379.77
eigval :      382.65   391.79   395.19   403.00   411.37   416.60
eigval :      426.07   431.68   439.94   465.28   480.29   497.78
eigval :      505.48   511.66   530.86   548.13   567.07   580.01
eigval :      585.18   593.41   598.76   610.29   636.80   653.60
eigval :      666.18   673.50   685.99   694.07   697.17   708.54
eigval :      724.32   753.48   766.85   769.09   773.63   799.16
eigval :      803.59   814.42   831.27   859.05   862.96   867.11
eigval :      871.68   894.12   900.70   902.62   903.17   904.36
eigval :      906.97   910.20   918.47   920.47   921.27   928.03
eigval :      933.69   980.47   997.30  1007.77  1037.31  1063.62
eigval :     1066.64  1074.97  1081.18  1108.61  1129.60  1132.36
eigval :     1147.38  1149.36  1157.85  1167.69  1172.93  1173.87
eigval :     1179.13  1189.88  1219.25  1221.44  1226.93  1234.15
eigval :     1242.66  1252.91  1268.61  1275.25  1284.04  1320.28
eigval :     1326.17  1330.94  1337.29  1343.31  1363.85  1385.01
eigval :     1399.12  1403.82  1406.15  1411.55  1419.07  1429.82
eigval :     1442.05  1448.76  1458.28  1459.92  1474.68  1485.54
eigval :     1519.02  1556.85  1557.20  1563.49  1566.25  1569.02
eigval :     1572.57  1591.25  3076.86  3078.37  3081.95  3083.31
eigval :     3083.87  3084.40  3088.23  3088.33  3089.81  3090.66
eigval :     3092.83  3093.40  3094.49  3095.79  3096.90  3098.19
eigval :     3101.49  3102.23  3103.23

   temp. (K)  partition function   enthalpy   heat capacity  entropy
                                   cal/mol     cal/K/mol   cal/K/mol   J/K/mol
 298.15  VIB  0.380E+11            14884.916     98.412     89.971
         ROT  0.385E+08              888.752      2.981     37.689
         INT  0.146E+19            15773.669    101.393    127.660
         TR   0.935E+28             1481.254      4.968     44.205
         TOT                       17254.9225   106.3608   171.8646   719.0813

       T/K    H(0)-H(T)+PV         H(T)/Eh          T*S/Eh         G(T)/Eh
   ------------------------------------------------------------------------
    298.15    0.274975E-01    0.418902E+00    0.816584E-01    0.337244E+00
   ------------------------------------------------------------------------

         :::::::::::::::::::::::::::::::::::::::::::::::::::::
         ::                  THERMODYNAMIC                  ::
         :::::::::::::::::::::::::::::::::::::::::::::::::::::
         :: total free energy         -85.956015166209 Eh   ::
         ::.................................................::
         :: total energy              -86.293259098947 Eh   ::
         :: zero point energy           0.391404862487 Eh   ::
         :: G(RRHO) w/o ZPVE           -0.054160929749 Eh   ::
         :: G(RRHO) contrib.            0.337243932738 Eh   ::
         :::::::::::::::::::::::::::::::::::::::::::::::::::::

           -------------------------------------------------
          | TOTAL ENERGY              -86.293259098947 Eh   |
          | TOTAL ENTHALPY            -85.874356767156 Eh   |
          | TOTAL FREE ENERGY         -85.956015166209 Eh   |
          | GRADIENT NORM               0.000046817467 Eh/α |
          | HOMO-LUMO GAP               0.689514821060 eV   |
           -------------------------------------------------

 * finished run on 2025/09/07 at 01:23:21.029
