   * xtb version 6.7.1 (edcfbbe) compiled by 'albert@albert-system' on 2024-07-22

   ID    Z sym.   atoms
    1    8 O      1
    2    6 C      2-6, 8-25, 27-34
    3    7 N      7
    4   16 S      26
    5    1 H      35-53

          program call               : xtb data2507/toluene/CTM/CTM.xyz --gfn 2 --gbsa toluene --ohess vtight --parallel 40 --molden --ceasefiles --namespace data2507/toluene/CTM/CTM_toluene_S0_preOpt
      * Solvation model:               GBSA
        Solvent                        toluene
        Solvent mass                       9.2140E+01 g/mol
          :  Hamiltonian                  GFN2-xTB          :
 * total energy  :   -86.3658990 Eh     change       -0.6269858E-08 Eh
 * total energy  :   -86.3771083 Eh     change       -0.1120939E-01 Eh
 * total energy  :   -86.3794400 Eh     change       -0.2331708E-02 Eh
 * total energy  :   -86.3799252 Eh     change       -0.4851102E-03 Eh
 * total energy  :   -86.3803062 Eh     change       -0.3810141E-03 Eh
 * total energy  :   -86.3804308 Eh     change       -0.1246285E-03 Eh
 * total energy  :   -86.3805195 Eh     change       -0.8866897E-04 Eh
 * total energy  :   -86.3805723 Eh     change       -0.5280030E-04 Eh
 * total energy  :   -86.3806079 Eh     change       -0.3563789E-04 Eh
 * total energy  :   -86.3806434 Eh     change       -0.3548537E-04 Eh
 * total energy  :   -86.3808818 Eh     change       -0.2320529E-05 Eh
 * total energy  :   -86.3808838 Eh     change       -0.2060628E-05 Eh
 * total energy  :   -86.3808855 Eh     change       -0.1711193E-05 Eh
 * total energy  :   -86.3808868 Eh     change       -0.1319524E-05 Eh
 * total energy  :   -86.3808879 Eh     change       -0.1037418E-05 Eh
 * total energy  :   -86.3808888 Eh     change       -0.8686136E-06 Eh
 * total energy  :   -86.3808895 Eh     change       -0.7478667E-06 Eh
 * total energy  :   -86.3808901 Eh     change       -0.6151220E-06 Eh
 * total energy  :   -86.3808901 Eh     change       -0.2387324E-08 Eh
   *** GEOMETRY OPTIMIZATION CONVERGED AFTER 44 ITERATIONS ***

 final structure:
================
53
 xtb: 6.7.1 (edcfbbe)
O            2.05587576868852       -2.64484268660542       -1.18286282978925
C            1.76608539747427       -1.49889723404377       -0.86558560048710
C            0.36052503189921       -1.10058635591040       -0.62857263704875
C            0.01068522956952       -0.16107003950555        0.34204379284915
C           -1.31407464899907        0.15459842892550        0.56197159390929
C           -2.31836706935543       -0.44765425926041       -0.19713626960846
N           -3.65707954920083       -0.11107693480315        0.01208640663062
C           -4.70408263781212       -1.00410278345498        0.16253714782049
C           -4.68392997212344       -2.39058982282674        0.21666573883725
C           -5.88444217142747       -3.04702667816301        0.41453901192995
C           -7.07985038976156       -2.34786969291513        0.56637043627482
C           -7.10182839100772       -0.96724769403918        0.54246831335403
C           -5.90766587117174       -0.28597793454165        0.34522836061121
C           -5.56466193965037        1.10883787871769        0.29403972624711
C           -6.31008960205803        2.27729756598702        0.38478686377051
C           -5.65799995143033        3.48918761740166        0.26842555224757
C           -4.28401342276495        3.54326330269649        0.04537973056917
C           -3.52203360064689        2.39361512226834       -0.05046081513666
C           -4.16700970071269        1.17340072385251        0.09348330973528
C           -1.97261906532295       -1.39407532484459       -1.16274106622410
C           -0.64962631398888       -1.72585951531134       -1.36054409483578
C            2.80764379382600       -0.45789730996617       -0.70899657078381
C            2.54888242043598        0.88997945831713       -0.99550853216278
C            3.54459503018314        1.83763154593887       -0.88656687794975
C            4.80890949130860        1.43602600294126       -0.47889809375207
S            6.19415051583568        2.47583855622843       -0.26963147779541
C            7.18550146400904        1.10633357126895        0.19926552165704
C            8.52653641805188        1.15622946064071        0.54196425685025
C            9.15980314787252       -0.02289430088834        0.88727333563142
C            8.46586275683356       -1.22962957819200        0.89013576427412
C            7.12962969712723       -1.27696996343268        0.54789362705553
C            6.47003302145936       -0.10240476711318        0.19573541009105
C            5.09581765263085        0.08636496399170       -0.19595015913606
C            4.08513297027114       -0.85438778471060       -0.32826329206379
H            0.77783286581288        0.29533966536803        0.94949871994454
H           -1.58302433894734        0.85583554067328        1.33724159701171
H           -3.76211225498005       -2.94408049889216        0.12141306389035
H           -5.89421177160265       -4.12647508146231        0.45628389508517
H           -7.99779516614094       -2.89712651555840        0.71582576838446
H           -8.02499856800259       -0.42445609824642        0.67995224588980
H           -7.37785033708512        2.23411922076563        0.53897179304945
H           -6.21856605684670        4.40971764688798        0.33926788153073
H           -3.80305440572867        4.50496023235766       -0.05870295162942
H           -2.46176619406500        2.44978654913124       -0.24405717428330
H           -2.74428152696721       -1.85227116278379       -1.76226954996757
H           -0.37176022971629       -2.45953236955309       -2.10318608129720
H            1.56691981681414        1.18459851290000       -1.33217136204906
H            3.35089100802883        2.87388907815353       -1.11612854502227
H            9.05792424495675        2.09529436170195        0.53691192461070
H           10.20496256865225       -0.00591199175087        1.15723591841702
H            8.98052249214173       -2.13850985691936        1.16363639844205
H            6.59283517105898       -2.21339345640812        0.54935983363868
H            4.27124117257536       -1.89932731501027       -0.12965795922154

          :  Hamiltonian                  GFN2-xTB          :
         :: gradient norm              0.000041030183 Eh/a0 ::
         :: HOMO-LUMO gap              1.990935359957 eV    ::
         :: SCC energy               -87.927001603582 Eh    ::
         :: -> dispersion             -0.071840973845 Eh    ::
         :: -> Gsolv                  -0.039749304551 Eh    ::
         :: repulsion energy           1.546111482427 Eh    ::

    * Orbital Energies and Occupations

         #    Occupation            Energy/Eh            Energy/eV
      -------------------------------------------------------------
         1        2.0000           -0.7341599             -19.9775
       ...           ...                  ...                  ...
        68        2.0000           -0.4339223             -11.8076
        69        2.0000           -0.4255685             -11.5803
        70        2.0000           -0.4246692             -11.5558
        71        2.0000           -0.4227492             -11.5036
        72        2.0000           -0.4219452             -11.4817
        73        2.0000           -0.4198681             -11.4252
        74        2.0000           -0.4184177             -11.3857
        75        2.0000           -0.4081594             -11.1066
        76        2.0000           -0.3988164             -10.8523
        77        2.0000           -0.3977176             -10.8224
        78        2.0000           -0.3817853             -10.3889
        79        2.0000           -0.3816060             -10.3840
        80        2.0000           -0.3673768              -9.9968 (HOMO)
        81                         -0.2942113              -8.0059 (LUMO)
        82                         -0.2659863              -7.2379
        83                         -0.2501107              -6.8059
        84                         -0.2443134              -6.6481
        85                         -0.2411587              -6.5623
        86                         -0.2355675              -6.4101
        87                         -0.2249091              -6.1201
        88                         -0.2140580              -5.8248
        89                         -0.2139577              -5.8221
        90                         -0.1995167              -5.4291
        91                         -0.1889319              -5.1411
       ...                                ...                  ...
       160                          0.7409544              20.1624
      -------------------------------------------------------------
                  HL-Gap            0.0731655 Eh            1.9909 eV

     #   Z          covCN         q      C6AA      α(0)
     1   8 O        0.858    -0.425    22.193     6.316
     2   6 C        2.830     0.226    23.250     7.901
     3   6 C        2.971    -0.017    28.438     8.747
     4   6 C        2.920    -0.025    28.624     8.773
     5   6 C        2.920    -0.041    29.027     8.835
     6   6 C        2.912     0.072    26.385     8.423
     7   7 N        2.801    -0.039    21.997     6.966
     8   6 C        3.070     0.046    26.894     8.503
     9   6 C        2.910    -0.051    29.264     8.870
    10   6 C        2.924    -0.034    28.842     8.807
    11   6 C        2.920    -0.041    29.015     8.833
    12   6 C        2.912    -0.034    28.842     8.806
    13   6 C        3.066    -0.016    28.349     8.731
    14   6 C        3.066    -0.016    28.346     8.730
    15   6 C        2.912    -0.034    28.839     8.806
    16   6 C        2.920    -0.041    29.016     8.833
    17   6 C        2.924    -0.034    28.844     8.807
    18   6 C        2.910    -0.051    29.272     8.872
    19   6 C        3.070     0.046    26.896     8.504
    20   6 C        2.920    -0.041    29.017     8.834
    21   6 C        2.924    -0.016    28.418     8.742
    22   6 C        2.970    -0.020    28.491     8.755
    23   6 C        2.923    -0.029    28.728     8.790
    24   6 C        2.934    -0.037    28.926     8.820
    25   6 C        3.001     0.042    27.036     8.529
    26  16 S        2.211    -0.078   144.293    20.217
    27   6 C        3.003     0.038    27.124     8.543
    28   6 C        2.934    -0.038    28.933     8.822
    29   6 C        2.923    -0.028    28.703     8.786
    30   6 C        2.918    -0.032    28.806     8.801
    31   6 C        2.917    -0.030    28.754     8.793
    32   6 C        3.102    -0.002    27.946     8.663
    33   6 C        3.103    -0.000    27.900     8.655
    34   6 C        2.923    -0.020    28.514     8.757
    35   1 H        0.926     0.050     2.317     2.380
    36   1 H        0.926     0.055     2.258     2.350
    37   1 H        0.926     0.032     2.562     2.503
    38   1 H        0.926     0.032     2.556     2.500
    39   1 H        0.926     0.030     2.579     2.511
    40   1 H        0.926     0.033     2.540     2.492
    41   1 H        0.926     0.033     2.543     2.494
    42   1 H        0.926     0.031     2.578     2.511
    43   1 H        0.926     0.033     2.544     2.494
    44   1 H        0.926     0.033     2.546     2.495
    45   1 H        0.926     0.053     2.280     2.361
    46   1 H        0.926     0.051     2.311     2.377
    47   1 H        0.926     0.050     2.314     2.379
    48   1 H        0.926     0.053     2.277     2.360
    49   1 H        0.926     0.046     2.373     2.409
    50   1 H        0.926     0.045     2.378     2.412
    51   1 H        0.926     0.043     2.410     2.428
    52   1 H        0.926     0.043     2.408     2.426
    53   1 H        0.926     0.052     2.293     2.368

molecular dipole:
                 x           y           z       tot (Debye)
 q only:        0.156       1.124       0.515
   full:        0.160       0.953       0.522       2.792

 projected vibrational frequencies (cm⁻¹)
eigval :       -0.00    -0.00     0.00     0.00     0.00     0.00
eigval :       10.39    15.96    24.26    41.76    53.68    71.52
eigval :       83.93   100.40   103.11   106.72   138.14   146.40
eigval :      161.10   167.90   210.56   231.87   240.13   253.88
eigval :      268.77   271.52   289.06   319.20   380.46   384.83
eigval :      388.97   394.25   398.33   406.91   416.25   422.91
eigval :      434.06   443.53   471.22   474.45   489.11   517.84
eigval :      526.42   535.07   540.16   544.30   576.53   585.80
eigval :      590.66   602.07   610.23   645.44   652.79   673.15
eigval :      685.78   692.64   695.78   706.41   712.56   723.55
eigval :      735.97   756.02   768.68   774.43   779.98   801.58
eigval :      826.78   829.95   865.36   872.94   873.71   875.10
eigval :      880.69   897.21   901.66   902.49   908.44   910.60
eigval :      918.42   920.61   920.98   923.60   930.14   936.07
eigval :      952.52  1001.56  1011.06  1029.07  1044.13  1069.74
eigval :     1073.27  1074.58  1091.02  1115.57  1135.52  1151.23
eigval :     1152.42  1161.45  1170.23  1175.44  1178.19  1180.17
eigval :     1180.78  1198.56  1221.27  1230.83  1233.63  1241.90
eigval :     1255.79  1263.16  1289.68  1296.96  1298.73  1320.25
eigval :     1335.05  1341.22  1355.16  1358.22  1360.75  1399.00
eigval :     1404.90  1411.00  1422.52  1425.95  1431.68  1464.23
eigval :     1472.47  1484.51  1485.58  1543.62  1553.02  1560.01
eigval :     1572.26  1574.04  1577.29  1583.91  1587.60  1596.47
eigval :     1611.35  1643.01  3072.89  3073.40  3078.61  3079.31
eigval :     3081.69  3084.69  3086.00  3086.89  3087.03  3088.06
eigval :     3090.92  3091.43  3093.20  3094.43  3095.26  3098.56
eigval :     3100.04  3100.92  3102.20

   temp. (K)  partition function   enthalpy   heat capacity  entropy
                                   cal/mol     cal/K/mol   cal/K/mol   J/K/mol
 298.15  VIB  0.634E+11            14701.190     96.785     89.796
         ROT  0.394E+08              888.752      2.981     37.737
         INT  0.250E+19            15589.942     99.766    127.533
         TR   0.935E+28             1481.254      4.968     44.205
         TOT                       17071.1963   104.7342   171.7374   718.5492

       T/K    H(0)-H(T)+PV         H(T)/Eh          T*S/Eh         G(T)/Eh
   ------------------------------------------------------------------------
    298.15    0.272047E-01    0.422201E+00    0.815980E-01    0.340603E+00
   ------------------------------------------------------------------------

         :::::::::::::::::::::::::::::::::::::::::::::::::::::
         ::                  THERMODYNAMIC                  ::
         :::::::::::::::::::::::::::::::::::::::::::::::::::::
         :: total free energy         -86.040287445381 Eh   ::
         ::.................................................::
         :: total energy              -86.380890124931 Eh   ::
         :: zero point energy           0.394995965835 Eh   ::
         :: G(RRHO) w/o ZPVE           -0.054393286285 Eh   ::
         :: G(RRHO) contrib.            0.340602679550 Eh   ::
         :::::::::::::::::::::::::::::::::::::::::::::::::::::

           -------------------------------------------------
          | TOTAL ENERGY              -86.380890124931 Eh   |
          | TOTAL ENTHALPY            -85.958689476160 Eh   |
          | TOTAL FREE ENERGY         -86.040287445381 Eh   |
          | GRADIENT NORM               0.000041030994 Eh/α |
          | HOMO-LUMO GAP               1.990935544575 eV   |
           -------------------------------------------------

 * finished run on 2025/09/07 at 01:20:54.894
