   * xtb version 6.7.1 (edcfbbe) compiled by 'albert@albert-system' on 2024-07-22

   ID    Z sym.   atoms
    1    8 O      1
    2    6 C      2-6, 8-25, 27-34
    3    7 N      7
    4   16 S      26
    5    1 H      35-53

          program call               : xtb data2507/toluene/CTM/CTM_toluene_S0_crest.xyz --gfn 2 --gbsa toluene --ohess vtight --parallel 40 --molden --ceasefiles --namespace data2507/toluene/CTM/CTM_toluene_S0_finalOpt
      * Solvation model:               GBSA
        Solvent                        toluene
        Solvent mass                       9.2140E+01 g/mol
          :  Hamiltonian                  GFN2-xTB          :
 * total energy  :   -86.3809310 Eh     change       -0.5718761E-08 Eh
 * total energy  :   -86.3809843 Eh     change       -0.5332769E-04 Eh
 * total energy  :   -86.3809964 Eh     change       -0.1205387E-04 Eh
 * total energy  :   -86.3809994 Eh     change       -0.3045743E-05 Eh
 * total energy  :   -86.3810023 Eh     change       -0.2880098E-05 Eh
 * total energy  :   -86.3810054 Eh     change       -0.3106602E-05 Eh
 * total energy  :   -86.3810080 Eh     change       -0.2550835E-05 Eh
 * total energy  :   -86.3810101 Eh     change       -0.2123051E-05 Eh
 * total energy  :   -86.3810121 Eh     change       -0.1968860E-05 Eh
 * total energy  :   -86.3810139 Eh     change       -0.1787231E-05 Eh
 * total energy  :   -86.3810173 Eh     change       -0.7922970E-06 Eh
 * total energy  :   -86.3810181 Eh     change       -0.7854446E-06 Eh
 * total energy  :   -86.3810188 Eh     change       -0.6973152E-06 Eh
 * total energy  :   -86.3810194 Eh     change       -0.6132952E-06 Eh
 * total energy  :   -86.3810200 Eh     change       -0.6342104E-06 Eh
 * total energy  :   -86.3810207 Eh     change       -0.7186327E-06 Eh
 * total energy  :   -86.3810215 Eh     change       -0.8079063E-06 Eh
 * total energy  :   -86.3810224 Eh     change       -0.8527483E-06 Eh
 * total energy  :   -86.3810224 Eh     change       -0.7873666E-08 Eh
   *** GEOMETRY OPTIMIZATION CONVERGED AFTER 22 ITERATIONS ***

 final structure:
================
53
 xtb: 6.7.1 (edcfbbe)
O            1.32782676270788       -4.04009451570099        0.73379785835371
C            1.34569900442296       -2.86443279708044        0.39482433084536
C            0.09536160974524       -2.08029475266185        0.27974843751059
C           -0.06325792492370       -1.06878955255489       -0.66883542193834
C           -1.26079027296461       -0.39216262214020       -0.77423965918524
C           -2.32282291736696       -0.70012053982671        0.07704565182579
N           -3.52821980280904       -0.00314811967075       -0.02156879311563
C           -3.66586914823233        1.37325307343228       -0.07706827026116
C           -2.69746577000560        2.36399941069637        0.00177850674356
C           -3.11493280303723        3.68125262651952       -0.04054140290474
C           -4.46340679562745        4.01408724676510       -0.14794140925556
C           -5.43382234574968        3.03287116772044       -0.20148108577535
C           -5.03786092575111        1.70221270641290       -0.16088430792249
C           -5.75808014577459        0.45839951963137       -0.16565075078650
C           -7.10701753289855        0.13881119820213       -0.25129954100856
C           -7.47277578831287       -1.19289184024018       -0.25231825628303
C           -6.51104441444160       -2.19871238159427       -0.18715538061200
C           -5.16273055826141       -1.90475950609769       -0.10294268166750
C           -4.79102249269428       -0.56818591515016       -0.07200609213749
C           -2.17061958278429       -1.71534836452030        1.02255401553968
C           -0.98034540538352       -2.40480538782965        1.10791569839145
C            2.61713583491631       -2.17128799436522        0.08449784023000
C            3.67899248923538       -2.92506112292506       -0.43530615211043
C            4.89274515594021       -2.34127373729751       -0.72453918545168
C            5.05342755565274       -0.98658537461452       -0.46859167420842
S            6.50409036152041       -0.05868110908665       -0.74944494114733
C            5.72853184142793        1.38966871281979       -0.13272061836976
C            6.31140127836862        2.64256198728056       -0.03661034349429
C            5.55475467445630        3.68142869184051        0.47221837607150
C            4.23927090117756        3.47233582962975        0.87659940553501
C            3.66075796111789        2.22294669059794        0.78051915892453
C            4.40340830046672        1.16009953222621        0.27262436597916
C            4.01099245483671       -0.21343822445058        0.07814081183555
C            2.79078905081486       -0.81778688855420        0.35042733614235
H            0.74191846404412       -0.83753115016022       -1.34987634681245
H           -1.39031417624408        0.36562398725472       -1.53200835224653
H           -1.65117425688949        2.12016788308839        0.10502094448380
H           -2.37903751065478        4.47006116514076        0.01588748400304
H           -4.74997994533246        5.05503841788806       -0.17959784989516
H           -6.48037793056591        3.29019250587787       -0.26665724580714
H           -7.85051590004565        0.91860897880421       -0.32099865179036
H           -8.51666423833323       -1.46331268288886       -0.31452694740851
H           -6.82456025361360       -3.23231212734739       -0.20744219488484
H           -4.42730116803712       -2.69443605624834       -0.07472312845304
H           -2.98392166745882       -1.94614505339190        1.69355539376168
H           -0.85314035268358       -3.19535615576379        1.83312123265511
H            3.51979661816468       -3.97823159294017       -0.61327778235744
H            5.70475159818031       -2.92027612322706       -1.13612679696402
H            7.33155007346649        2.79607466135704       -0.35269332032919
H            5.99061835857136        4.66560391423291        0.55594503190994
H            3.66643668122682        4.29837422481168        1.27066154011697
H            2.64082698562650        2.06338730069177        1.09554687374847
H            1.99262745948509       -0.24170852088921        0.79237212217936

          :  Hamiltonian                  GFN2-xTB          :
         :: gradient norm              0.000081960135 Eh/a0 ::
         :: HOMO-LUMO gap              1.998007829598 eV    ::
         :: SCC energy               -87.926921045797 Eh    ::
         :: -> dispersion             -0.072069955981 Eh    ::
         :: -> Gsolv                  -0.040012809616 Eh    ::
         :: repulsion energy           1.545898661043 Eh    ::

    * Orbital Energies and Occupations

         #    Occupation            Energy/Eh            Energy/eV
      -------------------------------------------------------------
         1        2.0000           -0.7341995             -19.9786
       ...           ...                  ...                  ...
        68        2.0000           -0.4344066             -11.8208
        69        2.0000           -0.4259558             -11.5908
        70        2.0000           -0.4252344             -11.5712
        71        2.0000           -0.4230391             -11.5115
        72        2.0000           -0.4223726             -11.4933
        73        2.0000           -0.4202510             -11.4356
        74        2.0000           -0.4189698             -11.4007
        75        2.0000           -0.4085360             -11.1168
        76        2.0000           -0.3989672             -10.8565
        77        2.0000           -0.3974125             -10.8141
        78        2.0000           -0.3819856             -10.3944
        79        2.0000           -0.3819434             -10.3932
        80        2.0000           -0.3678163             -10.0088 (HOMO)
        81                         -0.2943908              -8.0108 (LUMO)
        82                         -0.2660195              -7.2388
        83                         -0.2505932              -6.8190
        84                         -0.2451115              -6.6698
        85                         -0.2414433              -6.5700
        86                         -0.2360026              -6.4220
        87                         -0.2252851              -6.1303
        88                         -0.2142080              -5.8289
        89                         -0.2137278              -5.8158
        90                         -0.1994169              -5.4264
        91                         -0.1893152              -5.1515
       ...                                ...                  ...
       160                          0.7405823              20.1523
      -------------------------------------------------------------
                  HL-Gap            0.0734255 Eh            1.9980 eV

     #   Z          covCN         q      C6AA      α(0)
     1   8 O        0.858    -0.425    22.187     6.315
     2   6 C        2.829     0.226    23.253     7.902
     3   6 C        2.971    -0.018    28.445     8.748
     4   6 C        2.920    -0.025    28.626     8.774
     5   6 C        2.920    -0.041    29.029     8.835
     6   6 C        2.912     0.072    26.381     8.422
     7   7 N        2.801    -0.039    21.994     6.965
     8   6 C        3.070     0.046    26.898     8.504
     9   6 C        2.910    -0.051    29.271     8.871
    10   6 C        2.924    -0.034    28.845     8.808
    11   6 C        2.920    -0.041    29.016     8.833
    12   6 C        2.912    -0.034    28.837     8.806
    13   6 C        3.066    -0.016    28.344     8.730
    14   6 C        3.066    -0.016    28.348     8.731
    15   6 C        2.912    -0.034    28.841     8.806
    16   6 C        2.920    -0.041    29.012     8.833
    17   6 C        2.924    -0.034    28.840     8.807
    18   6 C        2.910    -0.051    29.263     8.870
    19   6 C        3.070     0.046    26.894     8.503
    20   6 C        2.919    -0.041    29.016     8.833
    21   6 C        2.924    -0.016    28.411     8.741
    22   6 C        2.970    -0.019    28.475     8.753
    23   6 C        2.927    -0.020    28.512     8.757
    24   6 C        2.934    -0.037    28.915     8.819
    25   6 C        3.002     0.043    27.031     8.529
    26  16 S        2.210    -0.079   144.357    20.222
    27   6 C        3.003     0.039    27.113     8.542
    28   6 C        2.934    -0.037    28.925     8.820
    29   6 C        2.923    -0.028    28.702     8.786
    30   6 C        2.918    -0.032    28.809     8.802
    31   6 C        2.917    -0.031    28.769     8.795
    32   6 C        3.102    -0.002    27.953     8.664
    33   6 C        3.103    -0.000    27.896     8.655
    34   6 C        2.919    -0.030    28.745     8.792
    35   1 H        0.926     0.050     2.316     2.380
    36   1 H        0.926     0.055     2.257     2.349
    37   1 H        0.926     0.033     2.548     2.496
    38   1 H        0.926     0.033     2.540     2.492
    39   1 H        0.926     0.031     2.577     2.511
    40   1 H        0.926     0.033     2.544     2.494
    41   1 H        0.926     0.033     2.539     2.492
    42   1 H        0.926     0.031     2.578     2.511
    43   1 H        0.926     0.032     2.555     2.500
    44   1 H        0.926     0.032     2.562     2.503
    45   1 H        0.926     0.053     2.279     2.361
    46   1 H        0.926     0.051     2.303     2.373
    47   1 H        0.926     0.051     2.308     2.376
    48   1 H        0.926     0.051     2.308     2.376
    49   1 H        0.926     0.045     2.377     2.411
    50   1 H        0.926     0.045     2.379     2.412
    51   1 H        0.926     0.044     2.400     2.423
    52   1 H        0.926     0.044     2.394     2.420
    53   1 H        0.926     0.052     2.300     2.372

molecular dipole:
                 x           y           z       tot (Debye)
 q only:        0.014       1.882      -0.263
   full:       -0.086       1.868      -0.212       4.782

 projected vibrational frequencies (cm⁻¹)
eigval :       -0.00    -0.00    -0.00     0.00     0.00     0.00
eigval :       12.33    17.97    22.93    42.51    51.69    70.69
eigval :       90.78   104.01   106.06   121.34   124.51   146.73
eigval :      164.88   174.83   211.47   233.36   251.47   263.60
eigval :      270.08   274.22   285.46   304.61   380.72   384.54
eigval :      392.63   395.64   400.84   409.45   419.15   426.52
eigval :      435.87   440.82   460.85   474.13   483.18   516.29
eigval :      520.02   537.46   543.37   544.94   579.92   586.49
eigval :      592.96   607.60   611.09   646.27   652.79   676.58
eigval :      684.17   693.50   697.65   703.78   710.75   730.23
eigval :      733.10   756.54   769.65   778.60   780.80   814.73
eigval :      826.82   832.19   864.75   873.33   876.31   881.80
eigval :      883.78   897.04   902.91   903.74   912.78   914.47
eigval :      915.34   920.94   922.07   925.74   929.56   935.27
eigval :      950.85   999.13  1011.09  1024.04  1044.70  1069.62
eigval :     1072.44  1074.43  1093.23  1115.49  1133.85  1151.11
eigval :     1153.97  1160.04  1166.31  1174.04  1178.54  1179.51
eigval :     1179.84  1197.70  1223.28  1229.28  1233.35  1240.97
eigval :     1253.23  1261.88  1293.66  1296.36  1298.47  1320.60
eigval :     1335.56  1340.22  1355.33  1358.38  1360.35  1400.00
eigval :     1405.01  1410.92  1422.06  1425.98  1433.54  1465.44
eigval :     1472.39  1484.23  1485.43  1541.67  1552.64  1561.33
eigval :     1573.05  1574.18  1576.65  1583.62  1587.76  1596.78
eigval :     1611.44  1643.69  3072.65  3073.01  3078.40  3079.35
eigval :     3081.13  3084.25  3085.43  3086.48  3086.63  3087.86
eigval :     3088.70  3093.03  3093.92  3095.09  3095.64  3098.08
eigval :     3099.91  3100.57  3101.30

   temp. (K)  partition function   enthalpy   heat capacity  entropy
                                   cal/mol     cal/K/mol   cal/K/mol   J/K/mol
 298.15  VIB  0.418E+11            14648.816     96.692     89.031
         ROT  0.376E+08              888.752      2.981     37.645
         INT  0.157E+19            15537.568     99.673    126.676
         TR   0.935E+28             1481.254      4.968     44.205
         TOT                       17018.8218   104.6409   170.8807   714.9648

       T/K    H(0)-H(T)+PV         H(T)/Eh          T*S/Eh         G(T)/Eh
   ------------------------------------------------------------------------
    298.15    0.271212E-01    0.422288E+00    0.811909E-01    0.341097E+00
   ------------------------------------------------------------------------

         :::::::::::::::::::::::::::::::::::::::::::::::::::::
         ::                  THERMODYNAMIC                  ::
         :::::::::::::::::::::::::::::::::::::::::::::::::::::
         :: total free energy         -86.039925449327 Eh   ::
         ::.................................................::
         :: total energy              -86.381022383858 Eh   ::
         :: zero point energy           0.395166648313 Eh   ::
         :: G(RRHO) w/o ZPVE           -0.054069713782 Eh   ::
         :: G(RRHO) contrib.            0.341096934531 Eh   ::
         :::::::::::::::::::::::::::::::::::::::::::::::::::::

           -------------------------------------------------
          | TOTAL ENERGY              -86.381022383858 Eh   |
          | TOTAL ENTHALPY            -85.958734516703 Eh   |
          | TOTAL FREE ENERGY         -86.039925449327 Eh   |
          | GRADIENT NORM               0.000081927102 Eh/α |
          | HOMO-LUMO GAP               1.998009313079 eV   |
           -------------------------------------------------

 * finished run on 2025/09/07 at 01:23:15.861
