   * xtb version 6.7.1 (edcfbbe) compiled by 'albert@albert-system' on 2024-07-22

   ID    Z sym.   atoms
    1    6 C      1-6, 8-13, 15-19, 22-26, 28-33, 35-47, 49-54, 56-63, 65, 66
    2    8 O      7, 34, 55
    3    7 N      14, 20, 21, 27, 48, 64
    4    1 H      67-102

          program call               : xtb data2507/toluene/TPXZ–as-TAZ/TPXZ–as-TAZ_toluene_S0_crest.xyz --gfn 2 --gbsa toluene --ohess vtight --parallel 40 --molden --ceasefiles --namespace data2507/toluene/TPXZ–as-TAZ/TPXZ–as-TAZ_toluene_S0_finalOpt
      * Solvation model:               GBSA
        Solvent                        toluene
        Solvent mass                       9.2140E+01 g/mol
          :  Hamiltonian                  GFN2-xTB          :
 * total energy  :  -170.2819946 Eh     change       -0.4238103E-08 Eh
 * total energy  :  -170.2820809 Eh     change       -0.8621728E-04 Eh
 * total energy  :  -170.2821533 Eh     change       -0.7241035E-04 Eh
 * total energy  :  -170.2821986 Eh     change       -0.4536447E-04 Eh
 * total energy  :  -170.2822399 Eh     change       -0.4130537E-04 Eh
 * total energy  :  -170.2822919 Eh     change       -0.5197297E-04 Eh
 * total energy  :  -170.2823245 Eh     change       -0.3257217E-04 Eh
 * total energy  :  -170.2823506 Eh     change       -0.2613196E-04 Eh
 * total energy  :  -170.2823924 Eh     change       -0.4181920E-04 Eh
 * total energy  :  -170.2824250 Eh     change       -0.3255685E-04 Eh
 * total energy  :  -170.2838849 Eh     change       -0.3608636E-06 Eh
 * total energy  :  -170.2838852 Eh     change       -0.3345381E-06 Eh
 * total energy  :  -170.2838856 Eh     change       -0.3484286E-06 Eh
 * total energy  :  -170.2838861 Eh     change       -0.5104538E-06 Eh
 * total energy  :  -170.2838867 Eh     change       -0.5863601E-06 Eh
 * total energy  :  -170.2838872 Eh     change       -0.5865703E-06 Eh
 * total energy  :  -170.2838879 Eh     change       -0.6826434E-06 Eh
 * total energy  :  -170.2838885 Eh     change       -0.5988464E-06 Eh
 * total energy  :  -170.2838885 Eh     change       -0.8667683E-08 Eh
   *** GEOMETRY OPTIMIZATION CONVERGED AFTER 94 ITERATIONS ***

 final structure:
================
102
 xtb: 6.7.1 (edcfbbe)
C            9.51813127417542        0.31946132975301       -4.08711532171863
C            8.17575877473487        0.05840181945353       -3.89817645900673
C            7.68334734345918       -0.20117454621657       -2.62811978869822
C            8.52372042103266       -0.19015410999639       -1.52094624930653
C            9.89050292987492        0.03677100397402       -1.73012451214690
C           10.37730370750057        0.29675756810553       -2.99813190670479
O           10.80933295786412       -0.00256826080620       -0.70796596640243
C           10.33997083483612       -0.28717700799750        0.55341201207100
C           11.27719707110704       -0.33515297762184        1.56913650268010
C           10.88220693877459       -0.58187235086653        2.87580619204274
C            9.54254997409159       -0.75995354972625        3.15690013954029
C            8.59946617512161       -0.71386809850476        2.14125106668576
C            8.98115321498316       -0.50161675849804        0.82171537674861
N            8.05776147668338       -0.44716031396873       -0.22787203619849
C            6.67791207535495       -0.60028709713917        0.01572766661157
C            6.18126463372559       -1.79222848462658        0.54260019301552
C            4.83188397284963       -1.93306352534727        0.78912070724359
C            3.95160248129794       -0.88660954731585        0.50968248638395
C            2.52939535650152       -1.03079910500750        0.77936012601584
N            2.10810586080702       -2.07597773912544        1.50529659202990
N            0.84936472542939       -2.35505870845382        1.47331434796821
C           -0.04311611918678       -1.56470943862591        0.89792486261263
C           -1.39525602745161       -2.07303038488817        0.71387979901170
C           -1.92183181030689       -3.00388616422226        1.61091683444789
C           -3.20556239552500       -3.48282269985122        1.45045091676052
C           -3.98363902392450       -3.05388119162238        0.37719215751683
N           -5.30152033545650       -3.53001178186596        0.21022617585033
C           -5.54835658604267       -4.88017951944165       -0.05343440043176
C           -4.52802851480073       -5.81866147410306       -0.14911659537255
C           -4.80891769547299       -7.15040316086130       -0.41557671802115
C           -6.11191119401769       -7.56583938029150       -0.60195091148808
C           -7.14012999294614       -6.63624214789282       -0.53879652729188
C           -6.86476695244736       -5.30727070146208       -0.27534068004192
O           -7.93539673893389       -4.44253809380442       -0.26255302717937
C           -7.67560942175156       -3.11904230691294        0.00776467492799
C           -8.75960049237436       -2.26132513392222        0.04250350460229
C           -8.58070264648761       -0.91769193213127        0.33994629142605
C           -7.31454354854479       -0.44657090276730        0.62357644746489
C           -6.22460240881578       -1.30308359295780        0.58587817726428
C           -6.38098633619318       -2.64377396584996        0.25530045481955
C           -3.45085857388664       -2.14735376172238       -0.53773974715919
C           -2.17194367889148       -1.66040661543416       -0.37067605103354
C            0.39508017609817       -0.25533859837276        0.53418302230020
C           -0.48548316464925        0.89723752624843        0.38758637328408
C           -1.65766759826766        1.01619197385427        1.13678897905334
C           -2.48297008940217        2.10755395022889        0.96949208641307
C           -2.15952825874541        3.10113399624954        0.04623975847000
N           -3.02092387335931        4.20142261337899       -0.13869833386060
C           -4.32360608740656        4.00955454307096       -0.60920023367721
C           -4.79965023291294        2.76017438690103       -0.98825827405242
C           -6.09609151686377        2.60278222288393       -1.45459219915666
C           -6.93650385296509        3.69301748663931       -1.55854112512888
C           -6.46644797504199        4.95305102381522       -1.21725384302716
C           -5.17270843563295        5.11447950823548       -0.75614995569471
O           -4.76879476202187        6.39828208087414       -0.47290526067483
C           -3.48096143570382        6.57128661086970       -0.02149471218269
C           -3.08982483375752        7.86546554191085        0.26842889206630
C           -1.81798889207107        8.11899623720568        0.76148862493972
C           -0.95137677616145        7.06671748607656        0.97845927532809
C           -1.33861124107948        5.76739088250877        0.68691245929000
C           -2.59706758421216        5.49933406551299        0.16192087650221
C           -0.97970640307069        2.99696561921743       -0.68805272093662
C           -0.14859759068783        1.91092174060925       -0.51129735413520
N            1.69432323997386       -0.07672826438767        0.37818964804087
C            4.45023307956453        0.30194406123601       -0.02661550772021
C            5.79917754631175        0.44498176655859       -0.26876471948403
H            9.90647104783075        0.52785343929461       -5.07157190836442
H            7.49745959341650        0.04997610393494       -4.73756926691942
H            6.63531954451494       -0.41985248122776       -2.49732338532243
H           11.43518674652864        0.47444926674437       -3.11207599061892
H           12.31261808655257       -0.16973754182993        1.31558194848194
H           11.62068739704118       -0.62095917382769        3.66095924630308
H            9.21537591972302       -0.93241893852066        4.17075713366197
H            7.55524030100352       -0.83557433166654        2.38117731634599
H            6.86024016963194       -2.60633110029804        0.74802727094397
H            4.43755346241883       -2.85231716056126        1.19361364114380
H           -1.31350350299392       -3.32784963713267        2.44110601981919
H           -3.61678399159832       -4.18655165773526        2.15871511498229
H           -3.50364052471846       -5.50598137818099       -0.02286573290235
H           -3.99571279736130       -7.85705518483477       -0.47937635197551
H           -6.33722223756820       -8.60072419013900       -0.80596945222932
H           -8.16796483586836       -6.92231879562875       -0.69856665441533
H           -9.73797951828528       -2.66658546834257       -0.16312657345075
H           -9.43189931490912       -0.25556354444324        0.36023696486629
H           -7.16185555070717        0.59143698233377        0.87608590608788
H           -5.24194067941706       -0.92824157843672        0.82280873665399
H           -4.04717282855335       -1.83233288950432       -1.38117352413732
H           -1.76122218366057       -0.97273427085140       -1.09527564798856
H           -1.90595214971185        0.26386307709117        1.87037926931217
H           -3.38300387991354        2.20380839309774        1.55814520210525
H           -4.14836992835968        1.90331426025760       -0.92557527660627
H           -6.44037073882367        1.61923655890481       -1.73490628285010
H           -7.94813013268344        3.57625746858834       -1.91385122827189
H           -7.08892492445662        5.82951308975055       -1.30703092786524
H           -3.79955507333322        8.66159675156648        0.10667140410516
H           -1.52136144640694        9.13224011493698        0.98209093841080
H            0.03416213385883        7.24450460659887        1.38067268155860
H           -0.65714902096596        4.95361015920105        0.87801782522437
H           -0.72607030073202        3.76762258279962       -1.40052064962344
H            0.76135962465002        1.81812091605186       -1.08376348049286
H            3.76635155496057        1.11113964334951       -0.22995953736383
H            6.18684643944482        1.36923803070639       -0.67111360254578

          :  Hamiltonian                  GFN2-xTB          :
         :: gradient norm              0.000058984004 Eh/a0 ::
         :: HOMO-LUMO gap              1.254440108689 eV    ::
         :: SCC energy              -173.198986847231 Eh    ::
         :: -> dispersion             -0.148765806367 Eh    ::
         :: -> Gsolv                  -0.068104982462 Eh    ::
         :: repulsion energy           2.915098315292 Eh    ::

    * Orbital Energies and Occupations

         #    Occupation            Energy/Eh            Energy/eV
      -------------------------------------------------------------
         1        2.0000           -0.7324939             -19.9322
       ...           ...                  ...                  ...
       144        2.0000           -0.4175632             -11.3625
       145        2.0000           -0.4173694             -11.3572
       146        2.0000           -0.4158104             -11.3148
       147        2.0000           -0.4144750             -11.2784
       148        2.0000           -0.4140719             -11.2675
       149        2.0000           -0.4029416             -10.9646
       150        2.0000           -0.3936228             -10.7110
       151        2.0000           -0.3923872             -10.6774
       152        2.0000           -0.3916011             -10.6560
       153        2.0000           -0.3583460              -9.7511
       154        2.0000           -0.3472579              -9.4494
       155        2.0000           -0.3460827              -9.4174
       156        2.0000           -0.3453427              -9.3973 (HOMO)
       157                         -0.2992430              -8.1428 (LUMO)
       158                         -0.2952504              -8.0342
       159                         -0.2575392              -7.0080
       160                         -0.2470939              -6.7238
       161                         -0.2418527              -6.5811
       162                         -0.2412444              -6.5646
       163                         -0.2407564              -6.5513
       164                         -0.2399915              -6.5305
       165                         -0.2394402              -6.5155
       166                         -0.2373668              -6.4591
       167                         -0.2328341              -6.3357
       ...                                ...                  ...
       300                          0.6725698              18.3016
      -------------------------------------------------------------
                  HL-Gap            0.0460998 Eh            1.2544 eV

     #   Z          covCN         q      C6AA      α(0)
     1   6 C        2.919    -0.041    29.007     8.832
     2   6 C        2.919    -0.039    28.969     8.826
     3   6 C        2.924    -0.060    29.496     8.906
     4   6 C        2.921     0.042    27.064     8.531
     5   6 C        2.883     0.123    25.302     8.246
     6   6 C        2.919    -0.058    29.436     8.897
     7   8 O        1.708    -0.271    18.485     5.805
     8   6 C        2.883     0.123    25.306     8.247
     9   6 C        2.920    -0.058    29.432     8.896
    10   6 C        2.919    -0.040    29.006     8.832
    11   6 C        2.919    -0.039    28.962     8.825
    12   6 C        2.924    -0.061    29.505     8.908
    13   6 C        2.920     0.042    27.062     8.531
    14   7 N        2.750    -0.069    22.583     7.058
    15   6 C        2.920     0.070    26.445     8.433
    16   6 C        2.920    -0.039    28.971     8.827
    17   6 C        2.923    -0.028    28.698     8.785
    18   6 C        2.981    -0.007    28.186     8.709
    19   6 C        2.922     0.174    24.263     8.078
    20   7 N        1.930    -0.182    25.744     7.523
    21   7 N        1.957    -0.122    24.407     7.326
    22   6 C        2.923     0.068    26.469     8.437
    23   6 C        2.978    -0.001    28.049     8.687
    24   6 C        2.923    -0.028    28.704     8.786
    25   6 C        2.919    -0.038    28.950     8.823
    26   6 C        2.920     0.068    26.488     8.440
    27   7 N        2.751    -0.072    22.634     7.066
    28   6 C        2.921     0.042    27.056     8.530
    29   6 C        2.924    -0.061    29.517     8.910
    30   6 C        2.919    -0.039    28.967     8.826
    31   6 C        2.919    -0.041    29.017     8.834
    32   6 C        2.919    -0.058    29.438     8.897
    33   6 C        2.882     0.122    25.315     8.249
    34   8 O        1.708    -0.272    18.512     5.809
    35   6 C        2.882     0.122    25.309     8.248
    36   6 C        2.919    -0.058    29.439     8.898
    37   6 C        2.919    -0.041    29.015     8.833
    38   6 C        2.918    -0.039    28.968     8.826
    39   6 C        2.924    -0.061    29.506     8.908
    40   6 C        2.922     0.042    27.064     8.531
    41   6 C        2.920    -0.039    28.973     8.827
    42   6 C        2.922    -0.032    28.786     8.799
    43   6 C        2.960     0.101    25.761     8.325
    44   6 C        2.978    -0.003    28.087     8.693
    45   6 C        2.921    -0.030    28.743     8.792
    46   6 C        2.920    -0.039    28.962     8.825
    47   6 C        2.921     0.069    26.456     8.435
    48   7 N        2.751    -0.070    22.604     7.061
    49   6 C        2.921     0.041    27.072     8.532
    50   6 C        2.924    -0.060    29.500     8.907
    51   6 C        2.919    -0.039    28.959     8.825
    52   6 C        2.919    -0.040    29.001     8.831
    53   6 C        2.919    -0.058    29.430     8.896
    54   6 C        2.882     0.123    25.303     8.247
    55   8 O        1.708    -0.271    18.489     5.806
    56   6 C        2.882     0.123    25.305     8.247
    57   6 C        2.919    -0.058    29.431     8.896
    58   6 C        2.919    -0.040    29.006     8.832
    59   6 C        2.919    -0.039    28.965     8.826
    60   6 C        2.924    -0.061    29.508     8.908
    61   6 C        2.921     0.042    27.066     8.531
    62   6 C        2.919    -0.039    28.965     8.826
    63   6 C        2.924    -0.025    28.636     8.776
    64   7 N        1.854    -0.256    27.506     7.773
    65   6 C        2.923    -0.028    28.692     8.784
    66   6 C        2.920    -0.040    28.986     8.829
    67   1 H        0.926     0.043     2.410     2.428
    68   1 H        0.926     0.042     2.424     2.435
    69   1 H        0.926     0.039     2.457     2.451
    70   1 H        0.926     0.049     2.337     2.391
    71   1 H        0.926     0.049     2.336     2.390
    72   1 H        0.926     0.043     2.409     2.427
    73   1 H        0.926     0.042     2.418     2.432
    74   1 H        0.926     0.041     2.433     2.439
    75   1 H        0.926     0.052     2.290     2.366
    76   1 H        0.926     0.060     2.204     2.322
    77   1 H        0.926     0.057     2.231     2.336
    78   1 H        0.926     0.052     2.291     2.367
    79   1 H        0.926     0.040     2.448     2.447
    80   1 H        0.926     0.042     2.427     2.436
    81   1 H        0.926     0.042     2.419     2.432
    82   1 H        0.926     0.048     2.346     2.395
    83   1 H        0.926     0.048     2.347     2.396
    84   1 H        0.926     0.043     2.414     2.430
    85   1 H        0.926     0.042     2.417     2.431
    86   1 H        0.926     0.038     2.481     2.463
    87   1 H        0.926     0.048     2.343     2.393
    88   1 H        0.926     0.036     2.497     2.471
    89   1 H        0.926     0.039     2.462     2.454
    90   1 H        0.926     0.050     2.316     2.380
    91   1 H        0.926     0.038     2.470     2.458
    92   1 H        0.926     0.043     2.409     2.427
    93   1 H        0.926     0.043     2.405     2.425
    94   1 H        0.926     0.049     2.337     2.391
    95   1 H        0.926     0.049     2.337     2.391
    96   1 H        0.926     0.043     2.410     2.428
    97   1 H        0.926     0.042     2.420     2.433
    98   1 H        0.926     0.040     2.452     2.449
    99   1 H        0.926     0.053     2.282     2.362
   100   1 H        0.926     0.056     2.252     2.347
   101   1 H        0.926     0.058     2.225     2.333
   102   1 H        0.926     0.051     2.309     2.376

molecular dipole:
                 x           y           z       tot (Debye)
 q only:        0.047       0.252      -0.135
   full:       -0.160       0.417      -0.276       1.335

 projected vibrational frequencies (cm⁻¹)
eigval :       -0.00    -0.00     0.00     0.00     0.00     0.00
eigval :        7.51    12.07    12.95    14.34    15.58    20.40
eigval :       24.97    28.80    34.81    37.69    40.77    44.98
eigval :       50.96    60.13    61.19    64.00    71.15    76.25
eigval :       93.27    94.75   106.59   116.29   119.49   120.78
eigval :      124.31   132.44   152.24   171.40   187.26   192.92
eigval :      195.94   205.37   232.72   240.86   248.53   250.66
eigval :      253.15   255.00   265.90   271.47   274.25   278.89
eigval :      287.10   324.87   340.19   343.87   355.40   368.45
eigval :      372.45   379.30   380.27   380.49   384.82   392.27
eigval :      396.59   401.88   406.90   417.34   420.70   426.00
eigval :      429.45   430.28   431.24   432.21   443.42   446.00
eigval :      451.29   457.71   470.36   485.55   496.75   506.94
eigval :      509.94   510.46   511.19   522.66   523.00   523.83
eigval :      538.16   544.65   552.51   565.06   578.30   582.89
eigval :      586.03   588.01   592.07   601.83   605.60   608.41
eigval :      612.82   628.30   639.90   647.05   659.09   659.72
eigval :      660.74   660.89   661.78   661.87   667.05   674.05
eigval :      687.24   690.33   696.72   705.42   725.00   732.80
eigval :      755.07   776.16   777.25   777.33   777.72   778.96
eigval :      779.17   793.98   799.95   800.71   818.26   821.50
eigval :      827.04   852.48   853.17   853.20   859.70   861.76
eigval :      862.13   864.03   864.11   864.67   867.36   871.43
eigval :      874.53   877.98   895.83   896.74   897.21   897.44
eigval :      898.49   898.78   912.01   912.43   913.17   913.90
eigval :      914.26   914.33   914.68   915.36   915.62   915.72
eigval :      919.28   922.51   925.07   927.25   929.38   930.63
eigval :      932.42   937.57   997.51  1004.60  1015.27  1045.46
eigval :     1084.66  1088.77  1089.36  1089.58  1090.23  1090.44
eigval :     1091.13  1105.40  1105.59  1105.85  1117.08  1117.13
eigval :     1117.72  1125.12  1129.34  1131.98  1144.27  1167.43
eigval :     1167.90  1169.24  1171.54  1173.21  1174.49  1175.30
eigval :     1181.01  1181.66  1183.21  1186.73  1189.46  1197.35
eigval :     1197.41  1198.21  1203.89  1217.12  1218.85  1222.10
eigval :     1240.90  1240.99  1241.11  1247.79  1258.32  1258.62
eigval :     1259.23  1259.39  1261.24  1261.93  1299.52  1303.70
eigval :     1303.93  1304.35  1304.52  1304.90  1312.05  1313.86
eigval :     1317.19  1331.03  1333.00  1333.71  1334.32  1349.73
eigval :     1351.11  1353.94  1370.60  1388.03  1389.87  1403.66
eigval :     1406.99  1417.39  1422.15  1422.39  1425.29  1440.28
eigval :     1441.14  1441.27  1468.21  1478.63  1478.85  1479.08
eigval :     1480.55  1482.26  1483.78  1501.81  1502.32  1503.10
eigval :     1550.84  1551.99  1556.03  1566.18  1566.25  1566.38
eigval :     1578.50  1578.92  1579.09  1580.04  1580.93  1584.05
eigval :     1588.30  1588.49  1589.27  1601.28  1601.50  1602.00
eigval :     3079.86  3085.13  3086.82  3087.22  3087.65  3087.89
eigval :     3088.16  3088.61  3088.98  3089.64  3089.67  3090.28
eigval :     3092.80  3095.85  3096.12  3096.18  3096.59  3096.69
eigval :     3096.83  3097.46  3102.75  3103.68  3104.08  3104.36
eigval :     3104.50  3104.89  3105.28  3105.45  3106.61  3107.04
eigval :     3108.89  3109.46  3109.56  3110.13  3112.42  3113.37

   temp. (K)  partition function   enthalpy   heat capacity  entropy
                                   cal/mol     cal/K/mol   cal/K/mol   J/K/mol
 298.15  VIB  0.742E+25            30549.455    191.345    190.949
         ROT  0.319E+09              888.752      2.981     41.892
         INT  0.236E+34            31438.208    194.326    232.841
         TR   0.241E+29             1481.254      4.968     46.086
         TOT                       32919.4615   199.2939   278.9276  1167.0329

       T/K    H(0)-H(T)+PV         H(T)/Eh          T*S/Eh         G(T)/Eh
   ------------------------------------------------------------------------
    298.15    0.524605E-01    0.813391E+00    0.132527E+00    0.680863E+00
   ------------------------------------------------------------------------

         :::::::::::::::::::::::::::::::::::::::::::::::::::::
         ::                  THERMODYNAMIC                  ::
         :::::::::::::::::::::::::::::::::::::::::::::::::::::
         :: total free energy        -169.603025236137 Eh   ::
         ::.................................................::
         :: total energy             -170.283888525840 Eh   ::
         :: zero point energy           0.760930271137 Eh   ::
         :: G(RRHO) w/o ZPVE           -0.080066981434 Eh   ::
         :: G(RRHO) contrib.            0.680863289703 Eh   ::
         :::::::::::::::::::::::::::::::::::::::::::::::::::::

           -------------------------------------------------
          | TOTAL ENERGY             -170.283888525840 Eh   |
          | TOTAL ENTHALPY           -169.470497753616 Eh   |
          | TOTAL FREE ENERGY        -169.603025236137 Eh   |
          | GRADIENT NORM               0.000058932543 Eh/α |
          | HOMO-LUMO GAP               1.254438229317 eV   |
           -------------------------------------------------

 * finished run on 2025/09/04 at 18:26:32.979
