   * xtb version 6.7.1 (edcfbbe) compiled by 'albert@albert-system' on 2024-07-22

   ID    Z sym.   atoms
    1    6 C      1-6, 8-13, 15-19, 22-26, 28-33, 35-47, 49-54, 56-63, 65, 66
    2    8 O      7, 34, 55
    3    7 N      14, 20, 21, 27, 48, 64
    4    1 H      67-102

          program call               : xtb data2507/toluene/TPXZ–as-TAZ/TPXZ–as-TAZ_toluene_T1_crest.xyz --gfn 2 --uhf 2 --gbsa toluene --ohess vtight --parallel 40 --molden --ceasefiles --namespace data2507/toluene/TPXZ–as-TAZ/TPXZ–as-TAZ_toluene_T1_finalOpt
      * Solvation model:               GBSA
        Solvent                        toluene
        Solvent mass                       9.2140E+01 g/mol
          :  Hamiltonian                  GFN2-xTB          :
 * total energy  :  -170.2293684 Eh     change       -0.2615138E-08 Eh
 * total energy  :  -170.2294567 Eh     change       -0.8825501E-04 Eh
 * total energy  :  -170.2295296 Eh     change       -0.7295817E-04 Eh
 * total energy  :  -170.2295630 Eh     change       -0.3330769E-04 Eh
 * total energy  :  -170.2296067 Eh     change       -0.4373417E-04 Eh
 * total energy  :  -170.2296402 Eh     change       -0.3355742E-04 Eh
 * total energy  :  -170.2296672 Eh     change       -0.2697610E-04 Eh
 * total energy  :  -170.2296955 Eh     change       -0.2829267E-04 Eh
 * total energy  :  -170.2297264 Eh     change       -0.3083485E-04 Eh
 * total energy  :  -170.2297548 Eh     change       -0.2843089E-04 Eh
 * total energy  :  -170.2309377 Eh     change       -0.6031670E-06 Eh
 * total energy  :  -170.2309382 Eh     change       -0.5118823E-06 Eh
 * total energy  :  -170.2309385 Eh     change       -0.2968816E-06 Eh
 * total energy  :  -170.2309388 Eh     change       -0.2475207E-06 Eh
 * total energy  :  -170.2309390 Eh     change       -0.2337192E-06 Eh
 * total energy  :  -170.2309393 Eh     change       -0.2588265E-06 Eh
 * total energy  :  -170.2309395 Eh     change       -0.2500770E-06 Eh
 * total energy  :  -170.2309397 Eh     change       -0.2189557E-06 Eh
 * total energy  :  -170.2309398 Eh     change       -0.9950415E-07 Eh
   *** GEOMETRY OPTIMIZATION CONVERGED AFTER 106 ITERATIONS ***

 final structure:
================
102
 xtb: 6.7.1 (edcfbbe)
C           10.15840846358646       -2.95271720697049       -2.80476841535549
C            8.78515865081653       -3.06388280603574       -2.69211652819809
C            8.08570249840333       -2.25599547926597       -1.81047555624410
C            8.75136502581586       -1.32610038803578       -1.01802456804548
C           10.14235549613996       -1.20442724885250       -1.15817547570855
C           10.83544024298219       -2.01539936839552       -2.03883563926778
O           10.87276232987330       -0.28284286483409       -0.44863309522190
C           10.19080494980403        0.53506200973738        0.41886075321880
C           10.93515878838971        1.46116908515203        1.12727375532458
C           10.31601783323554        2.30620348864219        2.03618483967219
C            8.95230483377919        2.20906764461143        2.23963902067613
C            8.20129933891893        1.28350456306138        1.53334615117726
C            8.80243699685909        0.44242065173159        0.60230224525740
N            8.07844533976716       -0.49854038389558       -0.12410846196854
C            6.68109725505055       -0.63632081213391        0.06727593383916
C            6.17107957205351       -1.78053324168910        0.68057961684102
C            4.81521202937041       -1.91755820853283        0.86996542313465
C            3.93151663857599       -0.91280698016789        0.44875838976775
C            2.51667591742460       -1.05864331046399        0.64153005998474
N            2.04541390138131       -2.18403014517588        1.28452305250302
N            0.79347467505742       -2.38797189709497        1.32269776037685
C           -0.12125490936718       -1.57124829875576        0.87288429148710
C           -1.48680612314518       -2.03685005006704        0.76811367196309
C           -1.99509058426003       -2.94445296962282        1.70575206068719
C           -3.28855269355442       -3.40782936811271        1.60894865230113
C           -4.10628488748543       -2.98925220952770        0.55996774747404
N           -5.43932452615029       -3.45464276737545        0.46608202658221
C           -5.70310944283221       -4.80675380572762        0.25412168983395
C           -4.68959364776299       -5.73700731988291        0.04812278709514
C           -4.98620874594038       -7.07454180534626       -0.15918169066215
C           -6.29882790432115       -7.50630953601003       -0.17465312283102
C           -7.32315139746660       -6.58769245554325       -0.00035897052732
C           -7.03282583845134       -5.25103092129761        0.20549274155813
O           -8.09864664115769       -4.39512378817204        0.34226438428639
C           -7.82152933155511       -3.06115217645468        0.51733960916279
C           -8.90293037610596       -2.20662777284573        0.63629820622135
C           -8.70273624957994       -0.85017369571052        0.84436652840814
C           -7.41503789403549       -0.35924269891824        0.94494989114389
C           -6.32831425275453       -1.21041542258676        0.82390849082298
C           -6.50934375109357       -2.56977699473421        0.59033965489137
C           -3.59946036321119       -2.11347957604326       -0.39795857152599
C           -2.30981709990056       -1.64056870777960       -0.29484914341344
C            0.36534606700712       -0.25918309777246        0.40117432456045
C           -0.48104842763407        0.87857915518092        0.17807787040064
C           -1.69863101795500        1.04768907553371        0.86230276842601
C           -2.48031327631861        2.15763096773783        0.64249371818262
C           -2.08508923708535        3.13174018030452       -0.27403048541213
N           -2.90991401028232        4.25517261231424       -0.52182221954117
C           -4.16352913064344        4.09533067657134       -1.10781784052127
C           -4.65139484003492        2.85071145760090       -1.49393804969114
C           -5.90389633142332        2.72751753335357       -2.07325972343929
C           -6.68957323376561        3.84432998508048       -2.28583616635671
C           -6.20920619797124        5.09622044507081       -1.93140084641650
C           -4.95865673579450        5.22511759589858       -1.35427363221744
O           -4.53909753709647        6.49827588557342       -1.05431441983649
C           -3.30238243629547        6.63756337538456       -0.47265647715271
C           -2.89731323096320        7.92208489179601       -0.15771919694029
C           -1.67265361812240        8.13720471765250        0.45679011567352
C           -0.86703711176729        7.05817316206705        0.76776357108406
C           -1.26713637078776        5.76948482008941        0.45347076135767
C           -2.47928297444410        5.53711161033259       -0.18880343724483
C           -0.86664892442005        2.99080627751049       -0.94065206213956
C           -0.07517659106873        1.89108411830735       -0.71020486202171
N            1.67207975816453       -0.13456239826682        0.24273532744761
C            4.45561618870090        0.23518231794182       -0.16523391526677
C            5.81127528839433        0.37035562069583       -0.35363562302025
H           10.70662632487351       -3.58240662033336       -3.48753339479944
H            8.24537744413067       -3.77962191360157       -3.29283923933499
H            7.01323969478079       -2.34211821797249       -1.73494805942154
H           11.90469951430109       -1.89416230207901       -2.11271946958142
H           11.99920005270615        1.50161370930946        0.95516111042895
H           10.90358070435158        3.02665157925016        2.58288008180707
H            8.46087071086121        2.85198147805689        2.95359811127866
H            7.13982353894382        1.20559332641772        1.70726212526200
H            6.85106939764526       -2.55402047525883        1.00689600014288
H            4.40862289176281       -2.79534867377959        1.34790832126785
H           -1.35983041206283       -3.26555002864676        2.51718645227696
H           -3.67835088955877       -4.09292976197402        2.34745659617707
H           -3.66216032002830       -5.40907214468960        0.04539823312625
H           -4.17975667436565       -7.77530371595293       -0.31117570759714
H           -6.53395191289571       -8.54719141643521       -0.33102092609546
H           -8.35898180704474       -6.88769595964036       -0.02435302982632
H           -9.89450354772512       -2.62591082362433        0.56961932296399
H           -9.55138073530459       -0.19083243823913        0.93467910494826
H           -7.24493334196245        0.69144027096301        1.12277578464272
H           -5.32839282393313       -0.81890839613883        0.91770212662883
H           -4.22360515935278       -1.81361488645698       -1.22695304281336
H           -1.91962135113511       -0.98058637343461       -1.05490125586156
H           -2.00372844001065        0.31988004389048        1.59843140194824
H           -3.40464627541693        2.28745960971431        1.18658618512401
H           -4.04102428020759        1.97480142846001       -1.34422691653037
H           -6.25933215181324        1.74932661551913       -2.35865313620290
H           -7.66682155085733        3.75225410819253       -2.73265519204908
H           -6.78882658336833        5.99033111855363       -2.09909709017316
H           -3.55805776294208        8.73994346162299       -0.39861083215671
H           -1.36290294992768        9.14216149531027        0.69617257968189
H            0.08055219533028        7.20985960528158        1.26141051519406
H           -0.63724737620694        4.93332035747419        0.71262054949661
H           -0.55492219348294        3.74949323566169       -1.64389952537088
H            0.86416386323116        1.77689652307446       -1.22893505465219
H            3.77403668383215        1.00689377020075       -0.48796603179527
H            6.21339126199592        1.25228658979773       -0.83074060396874

          :  Hamiltonian                  GFN2-xTB          :
         :: gradient norm              0.000049786802 Eh/a0 ::
         :: HOMO-LUMO gap              0.205208801535 eV    ::
         :: SCC energy              -173.142598871695 Eh    ::
         :: -> dispersion             -0.147806083268 Eh    ::
         :: -> Gsolv                  -0.068825984111 Eh    ::
         :: repulsion energy           2.911659035076 Eh    ::

    * Orbital Energies and Occupations

         #    Occupation            Energy/Eh            Energy/eV
      -------------------------------------------------------------
         1        2.0000           -0.7363580             -20.0373
       ...           ...                  ...                  ...
       145        2.0000           -0.4143476             -11.2750
       146        2.0000           -0.4130445             -11.2395
       147        2.0000           -0.4126787             -11.2296
       148        2.0000           -0.4079448             -11.1007
       149        2.0000           -0.3968509             -10.7989
       150        2.0000           -0.3955694             -10.7640
       151        2.0000           -0.3950649             -10.7503
       152        2.0000           -0.3872551             -10.5377
       153        1.9844           -0.3494503              -9.5090
       154        1.9136           -0.3477520              -9.4628
       155        1.8602           -0.3472377              -9.4488
       156        1.2419           -0.3444264              -9.3723
       157        0.9815           -0.2911291              -7.9220 (HOMO)
       158        0.0185           -0.2835879              -7.7168 (LUMO)
       159                         -0.2495897              -6.7917
       160                         -0.2440091              -6.6398
       161                         -0.2439235              -6.6375
       162                         -0.2438806              -6.6363
       163                         -0.2377209              -6.4687
       164                         -0.2347553              -6.3880
       165                         -0.2346480              -6.3851
       166                         -0.2339534              -6.3662
       167                         -0.2304427              -6.2707
       168                         -0.2286632              -6.2222
       ...                                ...                  ...
       300                          0.6764476              18.4071
      -------------------------------------------------------------
                  HL-Gap            0.0075412 Eh            0.2052 eV

     #   Z          covCN         q      C6AA      α(0)
     1   6 C        2.919    -0.038    28.949     8.823
     2   6 C        2.918    -0.036    28.904     8.816
     3   6 C        2.923    -0.057    29.425     8.896
     4   6 C        2.923     0.044    27.005     8.522
     5   6 C        2.883     0.124    25.272     8.242
     6   6 C        2.918    -0.056    29.403     8.892
     7   8 O        1.708    -0.260    18.304     5.776
     8   6 C        2.883     0.124    25.273     8.242
     9   6 C        2.918    -0.056    29.402     8.892
    10   6 C        2.919    -0.038    28.949     8.823
    11   6 C        2.918    -0.036    28.904     8.816
    12   6 C        2.923    -0.058    29.432     8.897
    13   6 C        2.923     0.044    27.003     8.522
    14   7 N        2.751    -0.058    22.354     7.022
    15   6 C        2.922     0.054    26.780     8.486
    16   6 C        2.918    -0.039    28.971     8.826
    17   6 C        2.923    -0.035    28.878     8.813
    18   6 C        2.978    -0.008    28.202     8.711
    19   6 C        2.895     0.154    24.671     8.144
    20   7 N        1.930    -0.185    25.807     7.533
    21   7 N        1.943    -0.084    23.613     7.206
    22   6 C        2.917     0.053    26.803     8.490
    23   6 C        2.977    -0.000    28.032     8.685
    24   6 C        2.924    -0.033    28.817     8.803
    25   6 C        2.918    -0.040    28.984     8.828
    26   6 C        2.921     0.057    26.715     8.476
    27   7 N        2.751    -0.061    22.416     7.032
    28   6 C        2.922     0.044    27.021     8.524
    29   6 C        2.923    -0.058    29.443     8.898
    30   6 C        2.919    -0.037    28.916     8.818
    31   6 C        2.919    -0.039    28.958     8.824
    32   6 C        2.919    -0.057    29.408     8.893
    33   6 C        2.883     0.124    25.281     8.243
    34   8 O        1.708    -0.262    18.345     5.783
    35   6 C        2.883     0.124    25.278     8.243
    36   6 C        2.919    -0.057    29.406     8.892
    37   6 C        2.919    -0.039    28.958     8.825
    38   6 C        2.918    -0.037    28.911     8.817
    39   6 C        2.923    -0.058    29.450     8.899
    40   6 C        2.922     0.044    27.023     8.525
    41   6 C        2.918    -0.040    28.993     8.830
    42   6 C        2.922    -0.034    28.858     8.809
    43   6 C        2.942     0.070    26.444     8.434
    44   6 C        2.975    -0.006    28.157     8.704
    45   6 C        2.921    -0.040    28.997     8.831
    46   6 C        2.917    -0.041    29.022     8.834
    47   6 C        2.921     0.051    26.859     8.499
    48   7 N        2.751    -0.060    22.402     7.030
    49   6 C        2.923     0.044    27.011     8.523
    50   6 C        2.923    -0.058    29.446     8.899
    51   6 C        2.918    -0.037    28.913     8.818
    52   6 C        2.919    -0.039    28.961     8.825
    53   6 C        2.919    -0.057    29.410     8.893
    54   6 C        2.883     0.124    25.282     8.243
    55   8 O        1.708    -0.262    18.343     5.783
    56   6 C        2.883     0.124    25.285     8.244
    57   6 C        2.919    -0.057    29.413     8.894
    58   6 C        2.919    -0.039    28.963     8.825
    59   6 C        2.918    -0.037    28.919     8.819
    60   6 C        2.923    -0.058    29.442     8.898
    61   6 C        2.923     0.044    27.008     8.522
    62   6 C        2.917    -0.042    29.032     8.836
    63   6 C        2.924    -0.035    28.868     8.811
    64   7 N        1.850    -0.229    26.853     7.680
    65   6 C        2.923    -0.034    28.854     8.809
    66   6 C        2.917    -0.040    29.003     8.831
    67   1 H        0.926     0.047     2.362     2.403
    68   1 H        0.926     0.045     2.381     2.413
    69   1 H        0.926     0.043     2.411     2.428
    70   1 H        0.926     0.052     2.290     2.367
    71   1 H        0.926     0.052     2.290     2.367
    72   1 H        0.926     0.047     2.361     2.403
    73   1 H        0.926     0.045     2.380     2.413
    74   1 H        0.926     0.043     2.403     2.424
    75   1 H        0.926     0.043     2.410     2.428
    76   1 H        0.926     0.052     2.289     2.366
    77   1 H        0.926     0.046     2.365     2.405
    78   1 H        0.926     0.045     2.387     2.416
    79   1 H        0.926     0.043     2.412     2.429
    80   1 H        0.926     0.045     2.388     2.416
    81   1 H        0.926     0.046     2.372     2.408
    82   1 H        0.926     0.052     2.301     2.372
    83   1 H        0.926     0.052     2.301     2.372
    84   1 H        0.926     0.046     2.370     2.408
    85   1 H        0.926     0.044     2.395     2.420
    86   1 H        0.926     0.042     2.416     2.431
    87   1 H        0.926     0.044     2.401     2.423
    88   1 H        0.926     0.034     2.532     2.488
    89   1 H        0.926     0.029     2.596     2.520
    90   1 H        0.926     0.038     2.470     2.458
    91   1 H        0.926     0.043     2.413     2.429
    92   1 H        0.926     0.044     2.392     2.419
    93   1 H        0.926     0.046     2.371     2.408
    94   1 H        0.926     0.051     2.304     2.374
    95   1 H        0.926     0.051     2.304     2.373
    96   1 H        0.926     0.046     2.373     2.409
    97   1 H        0.926     0.044     2.391     2.418
    98   1 H        0.926     0.043     2.410     2.428
    99   1 H        0.926     0.040     2.452     2.449
   100   1 H        0.926     0.042     2.420     2.433
   101   1 H        0.926     0.048     2.346     2.395
   102   1 H        0.926     0.044     2.395     2.420

molecular dipole:
                 x           y           z       tot (Debye)
 q only:       -0.088       0.271      -0.280
   full:       -0.282       0.369      -0.321       1.436

 projected vibrational frequencies (cm⁻¹)
eigval :       -0.00    -0.00     0.00     0.00     0.00     0.00
eigval :        7.94    10.06    11.42    12.55    16.30    22.63
eigval :       24.92    30.28    34.72    40.46    41.22    45.10
eigval :       49.19    52.96    60.77    62.66    71.68    78.15
eigval :       90.00    96.94   108.27   115.49   116.04   121.75
eigval :      124.66   132.35   159.58   170.58   184.89   193.02
eigval :      199.86   202.90   232.71   239.34   246.71   249.49
eigval :      250.62   252.94   263.23   271.08   273.90   278.92
eigval :      288.10   321.64   340.49   344.54   350.31   364.71
eigval :      369.99   375.63   378.09   379.81   384.97   390.86
eigval :      393.67   396.67   404.89   409.33   418.30   423.81
eigval :      426.06   428.47   429.37   431.65   433.49   448.33
eigval :      449.99   452.73   463.77   481.22   483.67   500.06
eigval :      507.28   507.77   508.31   523.21   524.40   524.64
eigval :      533.58   539.25   546.86   556.49   567.85   577.96
eigval :      578.87   585.71   588.49   590.04   600.95   606.03
eigval :      607.89   612.34   628.78   633.14   658.35   661.49
eigval :      662.33   662.74   662.91   664.17   664.52   666.22
eigval :      670.49   680.39   683.06   686.79   691.22   717.33
eigval :      727.85   777.19   777.30   777.46   777.75   778.68
eigval :      779.34   790.34   798.23   799.11   807.25   813.71
eigval :      814.83   835.48   852.91   853.20   853.39   855.73
eigval :      861.97   862.26   864.77   865.77   866.18   866.62
eigval :      867.16   869.90   897.14   897.51   898.09   898.17
eigval :      899.08   899.18   905.96   909.06   910.55   911.28
eigval :      912.94   914.84   914.99   915.16   915.31   916.00
eigval :      916.20   916.66   918.59   919.45   921.65   922.91
eigval :      924.81   928.26   973.54   975.23   996.94  1004.90
eigval :     1022.87  1055.09  1061.08  1086.38  1087.25  1087.48
eigval :     1087.97  1088.98  1090.13  1106.72  1107.19  1107.60
eigval :     1116.21  1116.53  1117.94  1122.55  1133.34  1134.48
eigval :     1164.99  1166.96  1168.46  1172.15  1172.60  1172.89
eigval :     1173.82  1178.52  1181.08  1182.51  1184.48  1191.21
eigval :     1199.15  1199.34  1200.01  1209.51  1211.59  1216.56
eigval :     1230.92  1238.38  1239.00  1239.64  1241.49  1254.05
eigval :     1255.85  1256.21  1257.27  1264.56  1265.90  1269.26
eigval :     1301.38  1305.38  1306.16  1306.79  1307.06  1310.06
eigval :     1314.02  1316.69  1319.03  1329.25  1330.40  1330.90
eigval :     1341.22  1342.17  1347.34  1363.81  1401.56  1404.62
eigval :     1410.02  1414.85  1419.53  1420.74  1420.87  1425.43
eigval :     1439.76  1440.27  1440.96  1461.22  1464.17  1465.71
eigval :     1467.56  1473.81  1479.19  1480.69  1485.62  1494.60
eigval :     1512.23  1525.43  1531.08  1561.80  1561.82  1562.64
eigval :     1569.60  1571.54  1572.26  1572.77  1572.99  1577.81
eigval :     1578.88  1581.52  1583.38  1591.58  1592.44  1595.34
eigval :     3077.00  3078.67  3080.82  3081.51  3082.58  3084.68
eigval :     3088.49  3088.92  3089.00  3089.38  3089.78  3089.95
eigval :     3091.94  3094.22  3097.42  3097.61  3097.82  3097.99
eigval :     3098.02  3098.05  3098.69  3098.73  3099.17  3101.79
eigval :     3106.05  3106.48  3106.52  3106.94  3107.95  3108.52
eigval :     3109.86  3110.17  3110.49  3110.71  3113.59  3115.00

   temp. (K)  partition function   enthalpy   heat capacity  entropy
                                   cal/mol     cal/K/mol   cal/K/mol   J/K/mol
 298.15  VIB  0.113E+26            30758.164    192.846    192.238
         ROT  0.324E+09              888.752      2.981     41.921
         INT  0.366E+34            31646.916    195.827    234.160
         TR   0.241E+29             1481.254      4.968     46.086
         TOT                       33128.1700   200.7954   280.2462  1172.5500

       T/K    H(0)-H(T)+PV         H(T)/Eh          T*S/Eh         G(T)/Eh
   ------------------------------------------------------------------------
    298.15    0.527931E-01    0.810088E+00    0.133154E+00    0.676934E+00
   ------------------------------------------------------------------------

         :::::::::::::::::::::::::::::::::::::::::::::::::::::
         ::                  THERMODYNAMIC                  ::
         :::::::::::::::::::::::::::::::::::::::::::::::::::::
         :: total free energy        -169.554005402319 Eh   ::
         ::.................................................::
         :: total energy             -170.230939840444 Eh   ::
         :: zero point energy           0.757295338492 Eh   ::
         :: G(RRHO) w/o ZPVE           -0.080360900367 Eh   ::
         :: G(RRHO) contrib.            0.676934438125 Eh   ::
         :::::::::::::::::::::::::::::::::::::::::::::::::::::

           -------------------------------------------------
          | TOTAL ENERGY             -170.230939840444 Eh   |
          | TOTAL ENTHALPY           -169.420851402662 Eh   |
          | TOTAL FREE ENERGY        -169.554005402319 Eh   |
          | GRADIENT NORM               0.000050123716 Eh/α |
          | HOMO-LUMO GAP               0.205207554511 eV   |
           -------------------------------------------------

 * finished run on 2025/09/04 at 18:39:35.771
