   * xtb version 6.7.1 (edcfbbe) compiled by 'albert@albert-system' on 2024-07-22

   ID    Z sym.   atoms
    1    6 C      1-6, 8-13, 15-19, 22-26, 28-33, 35-47, 49-54, 56-63, 65, 66
    2    8 O      7, 34, 55
    3    7 N      14, 20, 21, 27, 48, 64
    4    1 H      67-102

          program call               : xtb data2507/toluene/TPXZ–as-TAZ/TPXZ–as-TAZ.xyz --gfn 2 --gbsa toluene --ohess vtight --parallel 40 --molden --ceasefiles --namespace data2507/toluene/TPXZ–as-TAZ/TPXZ–as-TAZ_toluene_S0_preOpt
      * Solvation model:               GBSA
        Solvent                        toluene
        Solvent mass                       9.2140E+01 g/mol
          :  Hamiltonian                  GFN2-xTB          :
 * total energy  :  -170.2467858 Eh     change       -0.3398384E-08 Eh
 * total energy  :  -170.2648101 Eh     change       -0.1802429E-01 Eh
 * total energy  :  -170.2711040 Eh     change       -0.6293891E-02 Eh
 * total energy  :  -170.2736170 Eh     change       -0.2513037E-02 Eh
 * total energy  :  -170.2760755 Eh     change       -0.2458469E-02 Eh
 * total energy  :  -170.2778758 Eh     change       -0.1800335E-02 Eh
 * total energy  :  -170.2791873 Eh     change       -0.1311457E-02 Eh
 * total energy  :  -170.2800846 Eh     change       -0.8973018E-03 Eh
 * total energy  :  -170.2805740 Eh     change       -0.4894683E-03 Eh
 * total energy  :  -170.2808643 Eh     change       -0.2902406E-03 Eh
 * total energy  :  -170.2837641 Eh     change       -0.5782636E-06 Eh
 * total energy  :  -170.2837646 Eh     change       -0.5185956E-06 Eh
 * total energy  :  -170.2836708 Eh     change        0.9376299E-04 Eh
 * total energy  :  -170.2837532 Eh     change       -0.8238345E-04 Eh
 * total energy  :  -170.2837645 Eh     change       -0.1127812E-04 Eh
 * total energy  :  -170.2837640 Eh     change        0.5014027E-06 Eh
 * total energy  :  -170.2837664 Eh     change       -0.2440678E-05 Eh
 * total energy  :  -170.2837666 Eh     change       -0.1714350E-06 Eh
 * total energy  :  -170.2837666 Eh     change       -0.6022387E-07 Eh
   *** GEOMETRY OPTIMIZATION CONVERGED AFTER 165 ITERATIONS ***

 final structure:
================
102
 xtb: 6.7.1 (edcfbbe)
C            9.93344689030047       -3.60915328317312       -2.74230489410773
C            8.56584939346462       -3.66712237311090       -2.56418727370319
C            7.93131555969584       -2.78019226171382       -1.70741212541261
C            8.65682404029526       -1.82589517906930       -1.00413656235711
C           10.04010892287078       -1.75521836165188       -1.21749471024097
C           10.66877012949826       -2.64236451786077       -2.07161770038406
O           10.83241743282985       -0.80576946461795       -0.61488059416977
C           10.21498720981840        0.09438591233996        0.22243286457040
C           11.02175342811019        1.04417452280519        0.82149224310226
C           10.48009659270197        1.96656622036142        1.70520517520229
C            9.13150197096198        1.91754929718314        1.99551151735675
C            8.31802528690292        0.96853254049835        1.39472334264091
C            8.83846390073106        0.05779181700190        0.48296928622171
N            8.04780708748011       -0.91266664588337       -0.13912647693639
C            6.65965977545848       -0.97187059211881        0.10633654064700
C            6.10371325501596       -2.09122460996702        0.72408679553810
C            4.74782842726414       -2.14629001785072        0.96887566592065
C            3.92261080088747       -1.08188943989455        0.60202844118081
C            2.49254290895496       -1.13695404840998        0.86797787437524
N            2.01211454173625       -2.12814625749585        1.63163390499835
N            0.74090977307920       -2.34188995389374        1.60064609281541
C           -0.10536360956634       -1.53080901045674        0.98485704346978
C           -1.47969891062616       -1.97933993166641        0.81044035218011
C           -2.04857829991227       -2.85963972975803        1.73272101725075
C           -3.35181744557319       -3.28536590650981        1.58252967724584
C           -4.10931789815738       -2.85182003099494        0.49630525771981
N           -5.44733374573832       -3.27398777490289        0.34421127029987
C           -5.75130523888477       -4.62164902558768        0.13458294248285
C           -4.76727284153166       -5.59663543721666        0.02431316630065
C           -5.10338239562886       -6.92569901083076       -0.18533933308460
C           -6.42672286270365       -7.30217785337271       -0.29699150490901
C           -7.42014474308364       -6.33631774966842       -0.22109496117488
C           -7.08957308311482       -5.00969818419675       -0.01590593449772
O           -8.12833682969272       -4.10757839618272        0.01336860644460
C           -7.81073162400268       -2.78410943232855        0.21360938437551
C           -8.86192924393266       -1.88669240569414        0.25112454522622
C           -8.62510927996985       -0.53908407992296        0.48281375773514
C           -7.33297755157621       -0.10283508338128        0.69606315170138
C           -6.27567182039882       -0.99929043532322        0.65489895483159
C           -6.49140063863445       -2.34650922744221        0.39122721872001
C           -3.53567311629063       -1.99734021602788       -0.44335314122139
C           -2.23554263025361       -1.56479235042168       -0.28794042892209
C            0.40312655070069       -0.26183877032773        0.57368996053755
C           -0.41374189171349        0.92838356364178        0.37181850198772
C           -1.58039590895615        1.14432080109455        1.10769042661344
C           -2.34316678194793        2.27174524434935        0.88889828523256
C           -1.96270105205716        3.20441181776864       -0.07544235169581
N           -2.75893191473611        4.34205264630314       -0.31582239305548
C           -4.06776087651662        4.20764430716357       -0.79059639385889
C           -4.63324437023351        2.97047215181213       -1.07532351323955
C           -5.93278867494986        2.87186127223892       -1.54920973600835
C           -6.68697461953824        4.00906546595980       -1.75779514484654
C           -6.12700652381476        5.25415181711499       -1.51075835000017
C           -4.83045678705744        5.35638899345701       -1.04059652846193
O           -4.33620533939808        6.62632830889805       -0.85486792208821
C           -3.04784024458843        6.74143136971775       -0.38755395514682
C           -2.56839348107735        8.02293403267536       -0.18730798401979
C           -1.29067273485890        8.22221772010474        0.31511372277880
C           -0.50814316953100        7.13034347443292        0.63311475088457
C           -0.98406371985073        5.84356718980501        0.43158787241950
C           -2.24825569218845        5.62634342792358       -0.10331767159245
C           -0.78747452639748        3.00256806777021       -0.79737785551691
C           -0.01798585315509        1.88181495794362       -0.56811885519481
N            1.71146733217969       -0.15759432315050        0.42227425009605
C            4.48182021986770        0.03558875378569       -0.01964925153066
C            5.83740851252508        0.09084888872093       -0.26503650058461
H           10.43319760889689       -4.29885111374961       -3.40410556199734
H            7.97690605334423       -4.40092439644679       -3.09278115467436
H            6.86020290340710       -2.82691803015011       -1.58951812856916
H           11.73620831932922       -2.55614681947213       -2.20170243086223
H           12.07468000105388        1.04072408495492        0.58684312095159
H           11.11700262328771        2.70551329829342        2.16535325275312
H            8.69787188794306        2.61467344875622        2.69603615696940
H            7.26925216531664        0.93179020780028        1.64370389234467
H            6.74474115446049       -2.91043687471661        1.01434771289395
H            4.30838824906336       -3.00411464857436        1.45356985705894
H           -1.45609223650237       -3.18661989671387        2.57307986211627
H           -3.79479901355914       -3.95133168434971        2.30803573859985
H           -3.72873630513720       -5.31441815550770        0.09563071807309
H           -4.31763955965242       -7.66151944217178       -0.26217143619809
H           -6.69498459148685       -8.33496649832030       -0.45439486677713
H           -8.46301362052920       -6.59240178505395       -0.32444019042962
H           -9.86117066154147       -2.26480613534848        0.10182144515732
H           -9.45130702050988        0.15383122359469        0.50665191622256
H           -7.13433904102417        0.93880149845441        0.89632508992419
H           -5.27215754416981       -0.64998019216304        0.83687925835917
H           -4.11590170319450       -1.68093007975491       -1.29741386026303
H           -1.79323238478451       -0.91884193258894       -1.03206529068217
H           -1.87299325895086        0.43902762593990        1.87123621252212
H           -3.23688511207944        2.44356558251677        1.46987652693400
H           -4.04973546866822        2.07516648665702       -0.93383674650962
H           -6.34698247509617        1.89650352846526       -1.75340173777221
H           -7.69995048816029        3.93942118426300       -2.12146719355428
H           -6.67977332963179        6.16430531226027       -1.68331064388485
H           -3.21520641931491        8.85240979373761       -0.42657284906336
H           -0.92419184604645        9.22554727460702        0.46468450185420
H            0.47986473245560        7.26772500310853        1.04495500116125
H           -0.36798331060621        5.00024600200771        0.70075754611038
H           -0.48866177235010        3.72603052522605       -1.54128594026222
H            0.88790959434518        1.71451814093230       -1.12994572920815
H            3.83833790166379        0.85373664355940       -0.30292667284700
H            6.27068899700501        0.95363660884458       -0.74905918976714

          :  Hamiltonian                  GFN2-xTB          :
         :: gradient norm              0.000096045468 Eh/a0 ::
         :: HOMO-LUMO gap              1.243558751879 eV    ::
         :: SCC energy              -173.198706248256 Eh    ::
         :: -> dispersion             -0.148539466831 Eh    ::
         :: -> Gsolv                  -0.068196168565 Eh    ::
         :: repulsion energy           2.914939600479 Eh    ::

    * Orbital Energies and Occupations

         #    Occupation            Energy/Eh            Energy/eV
      -------------------------------------------------------------
         1        2.0000           -0.7326387             -19.9361
       ...           ...                  ...                  ...
       144        2.0000           -0.4176010             -11.3635
       145        2.0000           -0.4171150             -11.3503
       146        2.0000           -0.4158715             -11.3164
       147        2.0000           -0.4145472             -11.2804
       148        2.0000           -0.4139443             -11.2640
       149        2.0000           -0.4029286             -10.9642
       150        2.0000           -0.3936694             -10.7123
       151        2.0000           -0.3923549             -10.6765
       152        2.0000           -0.3916026             -10.6560
       153        2.0000           -0.3586903              -9.7605
       154        2.0000           -0.3474138              -9.4536
       155        2.0000           -0.3457791              -9.4091
       156        2.0000           -0.3450347              -9.3889 (HOMO)
       157                         -0.2993346              -8.1453 (LUMO)
       158                         -0.2958637              -8.0509
       159                         -0.2578118              -7.0154
       160                         -0.2470525              -6.7226
       161                         -0.2419292              -6.5832
       162                         -0.2413407              -6.5672
       163                         -0.2409646              -6.5570
       164                         -0.2400618              -6.5324
       165                         -0.2394261              -6.5151
       166                         -0.2374373              -6.4610
       167                         -0.2329241              -6.3382
       ...                                ...                  ...
       300                          0.6726474              18.3037
      -------------------------------------------------------------
                  HL-Gap            0.0457000 Eh            1.2436 eV

     #   Z          covCN         q      C6AA      α(0)
     1   6 C        2.919    -0.041    29.014     8.833
     2   6 C        2.919    -0.039    28.968     8.826
     3   6 C        2.924    -0.061    29.506     8.908
     4   6 C        2.921     0.042    27.056     8.530
     5   6 C        2.882     0.123    25.308     8.247
     6   6 C        2.919    -0.058    29.437     8.897
     7   8 O        1.708    -0.271    18.496     5.807
     8   6 C        2.882     0.123    25.308     8.247
     9   6 C        2.919    -0.058    29.436     8.897
    10   6 C        2.919    -0.041    29.014     8.833
    11   6 C        2.919    -0.039    28.967     8.826
    12   6 C        2.924    -0.061    29.507     8.908
    13   6 C        2.921     0.042    27.056     8.530
    14   7 N        2.751    -0.070    22.606     7.062
    15   6 C        2.921     0.070    26.435     8.431
    16   6 C        2.920    -0.038    28.951     8.823
    17   6 C        2.923    -0.028    28.696     8.785
    18   6 C        2.981    -0.006    28.174     8.707
    19   6 C        2.921     0.174    24.264     8.078
    20   7 N        1.930    -0.181    25.732     7.522
    21   7 N        1.958    -0.122    24.405     7.326
    22   6 C        2.923     0.068    26.470     8.437
    23   6 C        2.978    -0.001    28.047     8.687
    24   6 C        2.924    -0.028    28.701     8.786
    25   6 C        2.919    -0.038    28.943     8.822
    26   6 C        2.920     0.068    26.485     8.439
    27   7 N        2.751    -0.072    22.631     7.066
    28   6 C        2.921     0.042    27.057     8.530
    29   6 C        2.924    -0.061    29.511     8.909
    30   6 C        2.919    -0.039    28.967     8.826
    31   6 C        2.919    -0.041    29.017     8.833
    32   6 C        2.919    -0.058    29.439     8.897
    33   6 C        2.882     0.122    25.314     8.248
    34   8 O        1.708    -0.272    18.512     5.809
    35   6 C        2.882     0.122    25.310     8.248
    36   6 C        2.919    -0.058    29.438     8.897
    37   6 C        2.919    -0.041    29.017     8.834
    38   6 C        2.919    -0.039    28.970     8.826
    39   6 C        2.924    -0.061    29.513     8.909
    40   6 C        2.922     0.042    27.063     8.531
    41   6 C        2.920    -0.039    28.974     8.827
    42   6 C        2.922    -0.031    28.786     8.798
    43   6 C        2.960     0.101    25.762     8.325
    44   6 C        2.978    -0.003    28.088     8.694
    45   6 C        2.921    -0.030    28.743     8.792
    46   6 C        2.920    -0.039    28.969     8.826
    47   6 C        2.920     0.069    26.458     8.435
    48   7 N        2.751    -0.070    22.596     7.060
    49   6 C        2.921     0.041    27.073     8.533
    50   6 C        2.924    -0.061    29.505     8.908
    51   6 C        2.919    -0.039    28.961     8.825
    52   6 C        2.919    -0.040    29.000     8.831
    53   6 C        2.919    -0.057    29.428     8.896
    54   6 C        2.883     0.123    25.302     8.246
    55   8 O        1.708    -0.271    18.487     5.805
    56   6 C        2.882     0.123    25.304     8.247
    57   6 C        2.919    -0.058    29.431     8.896
    58   6 C        2.919    -0.040    29.002     8.831
    59   6 C        2.919    -0.039    28.965     8.826
    60   6 C        2.924    -0.060    29.501     8.907
    61   6 C        2.921     0.042    27.069     8.532
    62   6 C        2.919    -0.039    28.966     8.826
    63   6 C        2.924    -0.025    28.635     8.776
    64   7 N        1.854    -0.256    27.507     7.773
    65   6 C        2.923    -0.027    28.688     8.783
    66   6 C        2.920    -0.039    28.980     8.828
    67   1 H        0.926     0.043     2.414     2.430
    68   1 H        0.926     0.042     2.428     2.437
    69   1 H        0.926     0.039     2.464     2.455
    70   1 H        0.926     0.048     2.340     2.392
    71   1 H        0.926     0.048     2.340     2.392
    72   1 H        0.926     0.043     2.413     2.429
    73   1 H        0.926     0.042     2.425     2.435
    74   1 H        0.926     0.039     2.456     2.450
    75   1 H        0.926     0.052     2.298     2.371
    76   1 H        0.926     0.061     2.193     2.316
    77   1 H        0.926     0.058     2.225     2.333
    78   1 H        0.926     0.052     2.298     2.370
    79   1 H        0.926     0.039     2.455     2.450
    80   1 H        0.926     0.042     2.427     2.436
    81   1 H        0.926     0.042     2.418     2.432
    82   1 H        0.926     0.048     2.346     2.395
    83   1 H        0.926     0.048     2.348     2.396
    84   1 H        0.926     0.043     2.415     2.430
    85   1 H        0.926     0.043     2.415     2.430
    86   1 H        0.926     0.038     2.477     2.461
    87   1 H        0.926     0.049     2.333     2.389
    88   1 H        0.926     0.037     2.491     2.468
    89   1 H        0.926     0.039     2.462     2.454
    90   1 H        0.926     0.051     2.308     2.376
    91   1 H        0.926     0.039     2.461     2.453
    92   1 H        0.926     0.043     2.407     2.426
    93   1 H        0.926     0.043     2.405     2.425
    94   1 H        0.926     0.049     2.337     2.390
    95   1 H        0.926     0.049     2.336     2.390
    96   1 H        0.926     0.043     2.408     2.427
    97   1 H        0.926     0.042     2.418     2.432
    98   1 H        0.926     0.040     2.451     2.448
    99   1 H        0.926     0.052     2.289     2.366
   100   1 H        0.926     0.055     2.256     2.349
   101   1 H        0.926     0.058     2.219     2.329
   102   1 H        0.926     0.052     2.298     2.370

molecular dipole:
                 x           y           z       tot (Debye)
 q only:       -0.051       0.304      -0.156
   full:       -0.244       0.463      -0.303       1.537

 projected vibrational frequencies (cm⁻¹)
eigval :       -0.00    -0.00    -0.00     0.00     0.00     0.00
eigval :       -7.56     5.25     8.34    12.91    14.04    18.00
eigval :       21.45    26.69    29.59    36.73    39.38    42.10
eigval :       49.31    56.44    58.50    66.13    67.52    76.01
eigval :       92.86    95.26   105.17   113.88   117.09   119.37
eigval :      123.52   132.05   152.66   170.46   184.21   193.03
eigval :      195.23   202.90   232.80   240.92   247.46   249.36
eigval :      252.60   254.41   265.05   270.68   273.43   278.30
eigval :      287.08   323.12   339.81   342.72   354.33   368.27
eigval :      373.58   376.54   379.42   380.75   384.93   392.01
eigval :      398.74   403.01   405.08   417.88   419.73   425.57
eigval :      429.49   429.98   430.12   431.07   443.01   446.25
eigval :      448.22   456.55   471.78   484.13   497.62   506.56
eigval :      508.82   509.60   510.12   521.18   522.19   522.62
eigval :      537.40   544.28   553.59   565.13   578.44   582.24
eigval :      586.90   587.75   592.27   601.66   605.46   608.50
eigval :      612.95   628.32   639.73   646.73   656.76   658.86
eigval :      659.53   659.75   660.93   660.96   666.82   674.10
eigval :      687.90   690.53   697.03   706.11   725.22   732.80
eigval :      755.02   774.25   777.55   777.88   778.06   778.90
eigval :      779.68   793.96   799.90   801.02   818.78   820.56
eigval :      828.50   852.71   853.15   853.21   859.54   861.16
eigval :      862.15   863.17   864.79   866.32   866.46   871.96
eigval :      873.45   879.17   895.86   896.40   896.83   897.26
eigval :      898.06   898.15   911.29   912.26   913.11   913.83
eigval :      913.93   914.73   914.85   915.37   915.74   916.03
eigval :      916.22   921.60   923.57   929.57   929.73   930.70
eigval :      930.99   937.40   997.57  1004.45  1014.97  1044.97
eigval :     1084.09  1087.78  1088.82  1089.74  1090.39  1090.68
eigval :     1090.72  1105.54  1105.96  1106.18  1116.68  1117.06
eigval :     1117.76  1124.74  1127.50  1129.15  1143.42  1166.68
eigval :     1168.85  1169.07  1171.41  1173.36  1174.75  1175.41
eigval :     1179.66  1180.58  1184.05  1185.66  1188.27  1197.24
eigval :     1197.84  1198.65  1204.01  1216.73  1218.59  1221.77
eigval :     1240.68  1241.46  1241.60  1247.77  1258.27  1259.36
eigval :     1259.58  1259.83  1260.28  1261.05  1299.48  1303.57
eigval :     1304.16  1304.37  1304.42  1305.23  1311.55  1313.59
eigval :     1317.31  1331.32  1332.88  1333.75  1334.90  1349.85
eigval :     1351.49  1354.16  1371.05  1387.73  1389.21  1403.47
eigval :     1406.90  1417.73  1422.04  1422.89  1425.11  1440.87
eigval :     1441.04  1441.55  1467.69  1477.90  1478.94  1479.75
eigval :     1480.29  1482.05  1483.34  1501.71  1502.72  1503.00
eigval :     1550.39  1551.96  1557.46  1566.04  1566.25  1566.31
eigval :     1578.77  1578.89  1578.89  1579.79  1581.48  1584.07
eigval :     1588.20  1588.58  1589.26  1601.41  1601.76  1601.83
eigval :     3079.67  3082.23  3086.97  3087.01  3087.22  3087.35
eigval :     3087.46  3087.88  3088.34  3089.06  3089.14  3090.13
eigval :     3092.65  3094.78  3095.64  3095.86  3095.95  3096.42
eigval :     3097.91  3097.93  3101.59  3103.82  3103.83  3104.24
eigval :     3104.27  3104.52  3105.81  3107.00  3107.63  3107.87
eigval :     3108.59  3108.82  3109.37  3109.45  3113.52  3114.29

   temp. (K)  partition function   enthalpy   heat capacity  entropy
                                   cal/mol     cal/K/mol   cal/K/mol   J/K/mol
 298.15  VIB  0.729E+26            30643.283    191.036    193.115
         ROT  0.320E+09              888.752      2.981     41.900
         INT  0.234E+35            31532.035    194.017    235.015
         TR   0.241E+29             1481.254      4.968     46.086
         TOT                       33013.2890   198.9848   281.1016  1176.1291

       T/K    H(0)-H(T)+PV         H(T)/Eh          T*S/Eh         G(T)/Eh
   ------------------------------------------------------------------------
    298.15    0.526100E-01    0.813288E+00    0.133560E+00    0.679728E+00
   ------------------------------------------------------------------------

         :::::::::::::::::::::::::::::::::::::::::::::::::::::
         ::                  THERMODYNAMIC                  ::
         :::::::::::::::::::::::::::::::::::::::::::::::::::::
         :: total free energy        -169.604038877647 Eh   ::
         ::.................................................::
         :: total energy             -170.283766644596 Eh   ::
         :: zero point energy           0.760678188450 Eh   ::
         :: G(RRHO) w/o ZPVE           -0.080950421501 Eh   ::
         :: G(RRHO) contrib.            0.679727766948 Eh   ::
         :::::::::::::::::::::::::::::::::::::::::::::::::::::

           -------------------------------------------------
          | TOTAL ENERGY             -170.283766644596 Eh   |
          | TOTAL ENTHALPY           -169.470478431317 Eh   |
          | TOTAL FREE ENERGY        -169.604038877647 Eh   |
          | GRADIENT NORM               0.000096053152 Eh/α |
          | HOMO-LUMO GAP               1.243560478854 eV   |
           -------------------------------------------------

 * finished run on 2025/09/04 at 18:17:55.296
