   * xtb version 6.7.1 (edcfbbe) compiled by 'albert@albert-system' on 2024-07-22

   ID    Z sym.   atoms
    1    6 C      1-6, 8-13, 15-19, 22-26, 28-33, 35-47, 49-54, 56-63, 65, 66
    2    8 O      7, 34, 55
    3    7 N      14, 20, 21, 27, 48, 64
    4    1 H      67-102

          program call               : xtb data2507/toluene/TPXZ–as-TAZ/TPXZ–as-TAZ_toluene_S0_finalOpt.xtbopt.xyz --gfn 2 --uhf 2 --gbsa toluene --ohess vtight --parallel 40 --molden --ceasefiles --namespace data2507/toluene/TPXZ–as-TAZ/TPXZ–as-TAZ_toluene_T1_preOpt
      * Solvation model:               GBSA
        Solvent                        toluene
        Solvent mass                       9.2140E+01 g/mol
          :  Hamiltonian                  GFN2-xTB          :
 * total energy  :  -170.2259459 Eh     change       -0.1324537E-08 Eh
 * total energy  :  -170.2280060 Eh     change       -0.2060109E-02 Eh
 * total energy  :  -170.2289370 Eh     change       -0.9309387E-03 Eh
 * total energy  :  -170.2292571 Eh     change       -0.3201626E-03 Eh
 * total energy  :  -170.2296981 Eh     change       -0.4409574E-03 Eh
 * total energy  :  -170.2298347 Eh     change       -0.1366328E-03 Eh
 * total energy  :  -170.2299410 Eh     change       -0.1062858E-03 Eh
 * total energy  :  -170.2299651 Eh     change       -0.2414425E-04 Eh
 * total energy  :  -170.2300037 Eh     change       -0.3860107E-04 Eh
 * total energy  :  -170.2300282 Eh     change       -0.2447223E-04 Eh
 * total energy  :  -170.2305284 Eh     change       -0.1785313E-05 Eh
 * total energy  :  -170.2305298 Eh     change       -0.1448092E-05 Eh
 * total energy  :  -170.2305309 Eh     change       -0.1081307E-05 Eh
 * total energy  :  -170.2305320 Eh     change       -0.1038287E-05 Eh
 * total energy  :  -170.2305330 Eh     change       -0.1073348E-05 Eh
 * total energy  :  -170.2305341 Eh     change       -0.1024192E-05 Eh
 * total energy  :  -170.2305350 Eh     change       -0.9719597E-06 Eh
 * total energy  :  -170.2305359 Eh     change       -0.8369659E-06 Eh
 * total energy  :  -170.2305360 Eh     change       -0.8979018E-07 Eh
   *** GEOMETRY OPTIMIZATION CONVERGED AFTER 68 ITERATIONS ***

 final structure:
================
102
 xtb: 6.7.1 (edcfbbe)
C            9.76922391357986        0.17271054713813       -4.02751526049054
C            8.41291719125620       -0.06052898031644       -3.89929905098951
C            7.84702425940812       -0.24257031484051       -2.64782684893751
C            8.62958318169513       -0.18568887401321       -1.49885716118721
C           10.00938867329323        0.02659801866917       -1.64231232722688
C           10.56821562524346        0.20919686914070       -2.89440585075457
O           10.86332019796100        0.05186544120852       -0.56684606507579
C           10.31847006797799       -0.13399843497499        0.68033723111333
C           11.18643798397733       -0.10340572489603        1.75692115045218
C           10.70352159847417       -0.25979478686899        3.04764965801078
C            9.34773282530222       -0.43331503261197        3.25273101825125
C            8.47344415325895       -0.46574017857183        2.17846652889056
C            8.94318089539052       -0.33403767182141        0.87550717794283
N            8.09334784932571       -0.36219928746108       -0.22668008704626
C            6.69953669005647       -0.55388097252038       -0.05487250028540
C            6.21102463529005       -1.77943653302072        0.39604484727240
C            4.85777000169148       -1.96261828744187        0.56977850743472
C            3.95666952693434       -0.92605156401767        0.28750116825579
C            2.54320320702679       -1.11814299615227        0.46414370908448
N            2.09468594885027       -2.31804424462466        0.97307610097257
N            0.84350915911211       -2.53916744339824        1.00978580375538
C           -0.08537441678618       -1.68752460993068        0.67060383197577
C           -1.45249511703297       -2.15125685814218        0.55834165455003
C           -1.94196020474363       -3.12008659114686        1.44207425521160
C           -3.23627573139297       -3.57969453735577        1.33694543796577
C           -4.07319422300292       -3.09491430276519        0.33236107444633
N           -5.40591321744888       -3.55711372912949        0.23231843522426
C           -5.67028599045428       -4.90066850766945       -0.03143199479904
C           -4.65886207751440       -5.81731922792629       -0.29978394461936
C           -4.95581615142535       -7.14566817264750       -0.55893170423004
C           -6.26714409639676       -7.58159830696709       -0.56538264378290
C           -7.29006575543899       -6.67517083457813       -0.33054785734673
C           -6.99926960010676       -5.34746209144390       -0.07303097491925
O           -8.06474808362380       -4.50247599328391        0.12053318109414
C           -7.78838694261669       -3.17686973862592        0.35040163860041
C           -8.87046820377498       -2.33421582832139        0.53214259358977
C           -8.67165273891388       -0.98785446298906        0.79820545932125
C           -7.38406402769418       -0.49590014502225        0.89490536841928
C           -6.29695747380078       -1.33527551233109        0.71182709076213
C           -6.47684952816832       -2.68323679138147        0.41867887092044
C           -3.58420271053869       -2.15597084448639       -0.57403023379085
C           -2.29386243055292       -1.68704374545929       -0.46120028541278
C            0.37745931881631       -0.33137526252087        0.32017869285350
C           -0.48434494918398        0.80998138424572        0.20552088136021
C           -1.70107466544098        0.90245361502676        0.90614970633033
C           -2.49552442603968        2.01893514701008        0.79087541526727
C           -2.11398966549207        3.07744250080395       -0.03303993549514
N           -2.95251930625500        4.21067484785921       -0.17193094693252
C           -4.19885339124972        4.09462806900545       -0.78179106763908
C           -4.65933524343237        2.89186064828074       -1.30855064602063
C           -5.90530011841752        2.81088507834178       -1.90886979964025
C           -6.71127107678999        3.92969469516083       -2.00202205642752
C           -6.25895881679281        5.14259255343782       -1.50398509955315
C           -5.01518035574110        5.22955034571774       -0.90494191214184
O           -4.62397222817274        6.46740804177619       -0.45600237129587
C           -3.39639793928797        6.56153493447836        0.15344286914889
C           -3.02193177056316        7.80726541596199        0.62355487792827
C           -1.80614247194790        7.97313719246375        1.27007315073138
C           -0.97728524092990        6.88269617267288        1.45464220563784
C           -1.34693089106672        5.63257452892023        0.98556470902751
C           -2.55153317867949        5.45247086972340        0.31307842371555
C           -0.89699206062295        3.01215536256974       -0.71352948879164
C           -0.09322073171213        1.90445620787867       -0.58779918517280
N            1.68367590857425       -0.17183383132212        0.16891365622856
C            4.45867869726038        0.30170644941742       -0.16884850673953
C            5.81194933439286        0.48549749559986       -0.33429630080918
H           10.21271770166430        0.31808403711949       -4.99981293704519
H            7.78285121097383       -0.10576466775424       -4.77426087321630
H            6.78960721258391       -0.43483733925719       -2.55773806283277
H           11.63208820820010        0.37429702832975       -2.96054432603357
H           12.23662934787405        0.04820098696714        1.56294604328998
H           11.38755732756516       -0.23725784800457        3.88116475750760
H            8.95757489386764       -0.54232498776975        4.25292947696823
H            7.41577635263186       -0.59012260056686        2.34889932507447
H            6.90396122677740       -2.58114733155756        0.60643503926280
H            4.46771344126743       -2.90632080378806        0.91807917036933
H           -1.29259157090414       -3.49202017130901        2.21999014275940
H           -3.61192758896875       -4.31280493470843        2.03553488336867
H           -3.63253031286752       -5.48632065802367       -0.31135393190314
H           -4.15055946279652       -7.83560698542967       -0.75903728655064
H           -6.50236842031037       -8.61562206157919       -0.76193768928915
H           -8.32535909205536       -6.97746574646132       -0.34643107767284
H           -9.86140141872854       -2.75531500244104        0.46740412486078
H           -9.52081779043027       -0.33770670412801        0.93717255557540
H           -7.21425268640064        0.54606633418742        1.11842161773602
H           -5.29725014320717       -0.94322879648588        0.80471509487407
H           -4.22151537530314       -1.80435594784501       -1.37198382274411
H           -1.91767876975398       -0.97561605923553       -1.18088004444519
H           -1.99533537086801        0.10777592656380        1.57425875971012
H           -3.41947578726875        2.08780205817538        1.34659173808695
H           -4.03263656199422        2.01644949736232       -1.25081395895043
H           -6.24044619706453        1.86417325547085       -2.30386487050245
H           -7.68341229515347        3.86975581616455       -2.46518748971045
H           -6.85590395669126        6.03831023646436       -1.57402528653298
H           -3.69921405719038        8.63380596450908        0.47654098056669
H           -1.52062662221843        8.94836505120653        1.63134349560857
H           -0.03517417648672        6.99516605284751        1.96875548931209
H           -0.69937627484461        4.78503923734010        1.14546268778320
H           -0.59615539085521        3.83600223422647       -1.34446954725052
H            0.84507934171328        1.84753177367780       -1.11784898469555
H            3.76493933993764        1.10152526026476       -0.37664918773134
H            6.19820406950210        1.43409843135660       -0.67797005577179

          :  Hamiltonian                  GFN2-xTB          :
         :: gradient norm              0.000164010542 Eh/a0 ::
         :: HOMO-LUMO gap              0.203334911870 eV    ::
         :: SCC energy              -173.142203210756 Eh    ::
         :: -> dispersion             -0.147827264885 Eh    ::
         :: -> Gsolv                  -0.068701742302 Eh    ::
         :: repulsion energy           2.911667251397 Eh    ::

    * Orbital Energies and Occupations

         #    Occupation            Energy/Eh            Energy/eV
      -------------------------------------------------------------
         1        2.0000           -0.7363763             -20.0378
       ...           ...                  ...                  ...
       145        2.0000           -0.4142750             -11.2730
       146        2.0000           -0.4131395             -11.2421
       147        2.0000           -0.4125780             -11.2268
       148        2.0000           -0.4077733             -11.0961
       149        2.0000           -0.3970539             -10.8044
       150        2.0000           -0.3956306             -10.7657
       151        2.0000           -0.3948792             -10.7452
       152        2.0000           -0.3878290             -10.5534
       153        1.9797           -0.3492804              -9.5044
       154        1.8863           -0.3475506              -9.4573
       155        1.8391           -0.3471686              -9.4469
       156        1.2950           -0.3447718              -9.3817
       157        0.9808           -0.2910728              -7.9205 (HOMO)
       158        0.0192           -0.2836009              -7.7172 (LUMO)
       159                         -0.2495500              -6.7906
       160                         -0.2441881              -6.6447
       161                         -0.2439871              -6.6392
       162                         -0.2435807              -6.6282
       163                         -0.2381862              -6.4814
       164                         -0.2347893              -6.3889
       165                         -0.2344587              -6.3799
       166                         -0.2341451              -6.3714
       167                         -0.2306878              -6.2773
       168                         -0.2284892              -6.2175
       ...                                ...                  ...
       300                          0.6766506              18.4126
      -------------------------------------------------------------
                  HL-Gap            0.0074719 Eh            0.2033 eV

     #   Z          covCN         q      C6AA      α(0)
     1   6 C        2.919    -0.038    28.956     8.824
     2   6 C        2.918    -0.037    28.909     8.817
     3   6 C        2.923    -0.058    29.437     8.897
     4   6 C        2.923     0.044    27.004     8.522
     5   6 C        2.883     0.124    25.275     8.242
     6   6 C        2.918    -0.057    29.406     8.892
     7   8 O        1.708    -0.260    18.314     5.778
     8   6 C        2.883     0.124    25.276     8.242
     9   6 C        2.918    -0.057    29.405     8.892
    10   6 C        2.919    -0.038    28.954     8.824
    11   6 C        2.918    -0.036    28.905     8.816
    12   6 C        2.923    -0.058    29.437     8.897
    13   6 C        2.923     0.044    27.004     8.522
    14   7 N        2.751    -0.059    22.375     7.025
    15   6 C        2.921     0.055    26.761     8.483
    16   6 C        2.918    -0.039    28.978     8.827
    17   6 C        2.923    -0.035    28.869     8.811
    18   6 C        2.978    -0.008    28.202     8.711
    19   6 C        2.893     0.156    24.627     8.136
    20   7 N        1.930    -0.187    25.852     7.539
    21   7 N        1.942    -0.085    23.639     7.210
    22   6 C        2.917     0.056    26.754     8.482
    23   6 C        2.977     0.000    28.021     8.683
    24   6 C        2.923    -0.032    28.800     8.801
    25   6 C        2.918    -0.040    28.984     8.828
    26   6 C        2.921     0.058    26.695     8.473
    27   7 N        2.751    -0.060    22.406     7.030
    28   6 C        2.922     0.043    27.027     8.525
    29   6 C        2.923    -0.058    29.440     8.898
    30   6 C        2.919    -0.037    28.916     8.818
    31   6 C        2.919    -0.038    28.954     8.824
    32   6 C        2.919    -0.057    29.406     8.893
    33   6 C        2.883     0.124    25.278     8.243
    34   8 O        1.708    -0.262    18.341     5.782
    35   6 C        2.883     0.124    25.275     8.242
    36   6 C        2.919    -0.056    29.403     8.892
    37   6 C        2.919    -0.038    28.954     8.824
    38   6 C        2.918    -0.037    28.910     8.817
    39   6 C        2.923    -0.058    29.450     8.899
    40   6 C        2.922     0.043    27.028     8.526
    41   6 C        2.918    -0.040    28.993     8.830
    42   6 C        2.922    -0.033    28.834     8.806
    43   6 C        2.942     0.068    26.486     8.441
    44   6 C        2.974    -0.006    28.163     8.705
    45   6 C        2.921    -0.041    29.015     8.833
    46   6 C        2.917    -0.041    29.020     8.834
    47   6 C        2.921     0.050    26.878     8.502
    48   7 N        2.751    -0.060    22.403     7.030
    49   6 C        2.923     0.044    27.007     8.522
    50   6 C        2.923    -0.058    29.443     8.898
    51   6 C        2.918    -0.037    28.912     8.817
    52   6 C        2.919    -0.039    28.961     8.825
    53   6 C        2.918    -0.057    29.410     8.893
    54   6 C        2.883     0.124    25.282     8.243
    55   8 O        1.708    -0.262    18.339     5.782
    56   6 C        2.883     0.124    25.285     8.244
    57   6 C        2.919    -0.057    29.413     8.894
    58   6 C        2.919    -0.039    28.963     8.825
    59   6 C        2.918    -0.037    28.917     8.818
    60   6 C        2.923    -0.058    29.442     8.898
    61   6 C        2.923     0.044    27.003     8.522
    62   6 C        2.917    -0.041    29.031     8.835
    63   6 C        2.924    -0.035    28.878     8.813
    64   7 N        1.850    -0.229    26.864     7.682
    65   6 C        2.923    -0.034    28.844     8.807
    66   6 C        2.918    -0.040    29.002     8.831
    67   1 H        0.926     0.046     2.366     2.405
    68   1 H        0.926     0.045     2.386     2.415
    69   1 H        0.926     0.043     2.412     2.429
    70   1 H        0.926     0.052     2.294     2.369
    71   1 H        0.926     0.052     2.294     2.368
    72   1 H        0.926     0.046     2.365     2.405
    73   1 H        0.926     0.045     2.383     2.414
    74   1 H        0.926     0.043     2.406     2.426
    75   1 H        0.926     0.044     2.398     2.422
    76   1 H        0.926     0.053     2.288     2.366
    77   1 H        0.926     0.046     2.364     2.404
    78   1 H        0.926     0.045     2.379     2.412
    79   1 H        0.926     0.043     2.407     2.426
    80   1 H        0.926     0.045     2.385     2.415
    81   1 H        0.926     0.046     2.370     2.407
    82   1 H        0.926     0.052     2.299     2.371
    83   1 H        0.926     0.052     2.299     2.371
    84   1 H        0.926     0.046     2.369     2.407
    85   1 H        0.926     0.044     2.395     2.420
    86   1 H        0.926     0.043     2.411     2.428
    87   1 H        0.926     0.045     2.387     2.416
    88   1 H        0.926     0.035     2.522     2.483
    89   1 H        0.926     0.029     2.603     2.523
    90   1 H        0.926     0.038     2.481     2.463
    91   1 H        0.926     0.043     2.415     2.430
    92   1 H        0.926     0.044     2.390     2.418
    93   1 H        0.926     0.046     2.370     2.407
    94   1 H        0.926     0.051     2.304     2.373
    95   1 H        0.926     0.051     2.303     2.373
    96   1 H        0.926     0.046     2.374     2.409
    97   1 H        0.926     0.044     2.392     2.419
    98   1 H        0.926     0.043     2.413     2.429
    99   1 H        0.926     0.039     2.457     2.451
   100   1 H        0.926     0.042     2.425     2.435
   101   1 H        0.926     0.048     2.344     2.394
   102   1 H        0.926     0.044     2.401     2.423

molecular dipole:
                 x           y           z       tot (Debye)
 q only:       -0.237       0.238      -0.220
   full:       -0.430       0.347      -0.242       1.533

 projected vibrational frequencies (cm⁻¹)
eigval :       -0.00     0.00     0.00     0.00     0.00     0.00
eigval :      -11.48     6.68    10.38    11.90    13.70    23.77
eigval :       25.44    29.30    34.44    38.05    42.07    44.56
eigval :       49.48    55.89    59.98    63.76    70.17    79.10
eigval :       89.68    96.62   108.75   113.08   115.43   121.76
eigval :      123.28   132.22   158.67   170.22   184.08   190.74
eigval :      200.84   204.41   231.45   238.37   244.69   248.20
eigval :      250.77   252.19   263.02   270.58   274.26   278.96
eigval :      287.53   321.32   339.44   343.52   351.25   364.34
eigval :      369.91   374.64   376.06   379.08   384.66   391.74
eigval :      392.62   393.90   404.09   410.88   418.65   424.04
eigval :      425.57   426.87   429.47   430.78   433.50   448.68
eigval :      450.12   453.93   462.49   480.74   484.04   500.81
eigval :      504.83   507.47   508.65   521.90   524.03   525.47
eigval :      533.43   539.12   545.94   557.39   567.86   578.23
eigval :      578.94   585.65   588.70   590.14   600.93   606.39
eigval :      607.41   612.28   628.20   632.90   658.22   659.70
eigval :      661.67   662.31   663.04   663.98   665.36   665.69
eigval :      670.62   680.46   683.76   686.41   692.22   717.41
eigval :      727.49   773.56   776.66   777.87   778.17   779.43
eigval :      780.77   789.94   797.82   799.12   806.54   811.41
eigval :      814.08   836.08   852.82   852.89   853.36   855.53
eigval :      860.27   861.15   863.16   865.38   866.23   866.53
eigval :      867.38   869.57   895.22   896.92   898.44   898.66
eigval :      898.91   899.72   905.76   909.22   909.70   910.76
eigval :      911.43   912.51   914.11   914.44   915.25   915.73
eigval :      917.18   918.96   919.26   919.36   921.68   923.91
eigval :      924.08   928.39   945.91   975.67   996.46  1004.40
eigval :     1021.89  1055.85  1062.22  1085.40  1087.29  1087.44
eigval :     1088.23  1089.34  1089.83  1107.13  1107.30  1107.45
eigval :     1116.11  1116.25  1117.94  1123.81  1132.46  1133.44
eigval :     1165.24  1166.38  1168.33  1171.29  1172.81  1172.99
eigval :     1173.44  1179.87  1181.58  1181.94  1185.49  1190.86
eigval :     1199.58  1199.64  1200.47  1210.64  1213.03  1216.05
eigval :     1235.54  1238.76  1239.32  1239.63  1244.23  1255.60
eigval :     1256.79  1257.52  1257.61  1263.76  1264.57  1270.99
eigval :     1300.82  1305.41  1306.14  1306.67  1307.14  1309.96
eigval :     1313.55  1316.77  1319.49  1329.01  1330.50  1331.23
eigval :     1341.45  1342.15  1347.16  1359.75  1400.91  1404.42
eigval :     1409.45  1413.51  1419.86  1420.37  1420.60  1427.93
eigval :     1439.71  1440.18  1440.68  1461.46  1464.79  1465.46
eigval :     1467.56  1474.29  1478.61  1480.23  1484.78  1494.23
eigval :     1511.16  1528.62  1532.23  1561.23  1561.66  1562.92
eigval :     1571.16  1571.55  1572.03  1573.06  1573.27  1577.80
eigval :     1578.86  1581.64  1583.78  1591.37  1592.10  1595.41
eigval :     3077.92  3079.60  3080.44  3080.80  3082.78  3084.65
eigval :     3088.54  3088.76  3089.48  3089.51  3089.52  3090.59
eigval :     3091.77  3094.87  3096.89  3097.20  3097.50  3097.64
eigval :     3098.04  3098.25  3098.32  3099.00  3099.61  3102.77
eigval :     3106.24  3106.50  3106.54  3106.69  3107.73  3108.70
eigval :     3110.00  3110.11  3110.27  3110.83  3112.23  3115.52

   temp. (K)  partition function   enthalpy   heat capacity  entropy
                                   cal/mol     cal/K/mol   cal/K/mol   J/K/mol
 298.15  VIB  0.168E+26            30789.098    192.936    192.754
         ROT  0.323E+09              888.752      2.981     41.919
         INT  0.543E+34            31677.850    195.917    234.673
         TR   0.241E+29             1481.254      4.968     46.086
         TOT                       33159.1041   200.8854   280.7598  1174.6991

       T/K    H(0)-H(T)+PV         H(T)/Eh          T*S/Eh         G(T)/Eh
   ------------------------------------------------------------------------
    298.15    0.528424E-01    0.810001E+00    0.133398E+00    0.676603E+00
   ------------------------------------------------------------------------

         :::::::::::::::::::::::::::::::::::::::::::::::::::::
         ::                  THERMODYNAMIC                  ::
         :::::::::::::::::::::::::::::::::::::::::::::::::::::
         :: total free energy        -169.553932776065 Eh   ::
         ::.................................................::
         :: total energy             -170.230535963494 Eh   ::
         :: zero point energy           0.757158846973 Eh   ::
         :: G(RRHO) w/o ZPVE           -0.080555659544 Eh   ::
         :: G(RRHO) contrib.            0.676603187429 Eh   ::
         :::::::::::::::::::::::::::::::::::::::::::::::::::::

           -------------------------------------------------
          | TOTAL ENERGY             -170.230535963494 Eh   |
          | TOTAL ENTHALPY           -169.420534720599 Eh   |
          | TOTAL FREE ENERGY        -169.553932776065 Eh   |
          | GRADIENT NORM               0.000129693024 Eh/α |
          | HOMO-LUMO GAP               0.203321648716 eV   |
           -------------------------------------------------

 * finished run on 2025/09/04 at 18:26:53.534
