   * xtb version 6.7.1 (edcfbbe) compiled by 'albert@albert-system' on 2024-07-22

   ID    Z sym.   atoms
    1    6 C      1-9, 11-21, 24-30, 32-37
    2    7 N      10, 23
    3    8 O      22, 31
    4    1 H      38-61

          program call               : xtb data2507/gas/6AcBIQ/6AcBIQ.xyz --gfn 2 --ohess vtight --parallel 40 --molden --ceasefiles --namespace data2507/gas/6AcBIQ/6AcBIQ_gas_S0_preOpt
          :  Hamiltonian                  GFN2-xTB          :
 * total energy  :   -96.9326280 Eh     change       -0.2581046E-08 Eh
 * total energy  :   -96.9488639 Eh     change       -0.1623591E-01 Eh
 * total energy  :   -96.9537179 Eh     change       -0.4853988E-02 Eh
 * total energy  :   -96.9551696 Eh     change       -0.1451714E-02 Eh
 * total energy  :   -96.9566290 Eh     change       -0.1459405E-02 Eh
 * total energy  :   -96.9573617 Eh     change       -0.7327066E-03 Eh
 * total energy  :   -96.9577659 Eh     change       -0.4041863E-03 Eh
 * total energy  :   -96.9580775 Eh     change       -0.3115893E-03 Eh
 * total energy  :   -96.9583463 Eh     change       -0.2687775E-03 Eh
 * total energy  :   -96.9586130 Eh     change       -0.2667370E-03 Eh
 * total energy  :   -96.9599089 Eh     change       -0.1598900E-05 Eh
 * total energy  :   -96.9599104 Eh     change       -0.1436294E-05 Eh
 * total energy  :   -96.9599116 Eh     change       -0.1221506E-05 Eh
 * total energy  :   -96.9599127 Eh     change       -0.1145882E-05 Eh
 * total energy  :   -96.9599138 Eh     change       -0.1030075E-05 Eh
 * total energy  :   -96.9599148 Eh     change       -0.9922446E-06 Eh
 * total energy  :   -96.9599157 Eh     change       -0.9076965E-06 Eh
 * total energy  :   -96.9599165 Eh     change       -0.8213937E-06 Eh
 * total energy  :   -96.9599165 Eh     change       -0.6621974E-08 Eh
   *** GEOMETRY OPTIMIZATION CONVERGED AFTER 44 ITERATIONS ***

 final structure:
================
61
 xtb: 6.7.1 (edcfbbe)
C           -5.80311707991124       -0.21560223083471        1.24760027479152
C           -4.81226431084611        0.01538589164987        0.09226396274318
C           -5.57330447587757        0.22170066274327       -1.23020107369566
C           -3.92992634112646       -1.21138500608151       -0.03821796134375
C           -4.50929416930618       -2.44453047352647       -0.30645144314362
C           -3.75959163233103       -3.60108568792450       -0.41040167552358
C           -2.39031501014205       -3.53868077499010       -0.22543903689023
C           -1.78901737711870       -2.32749747970585        0.04366430372725
C           -2.54263007437950       -1.15303369270513        0.12234459811350
N           -1.90663709732822        0.05393858430526        0.38497799363022
C           -0.50070875183057        0.06625002104798        0.54626446162580
C            0.04682268305883        0.16957541656551        1.80632969939837
C            1.42951246516243        0.17025321906097        1.98485516031485
C            2.27505920036007        0.07041934831077        0.89879537549026
C            1.74283632725271       -0.02136863609267       -0.40376533409280
C            2.59586419251016       -0.10815331220159       -1.52324204151131
C            2.06606662898434       -0.18367680475994       -2.79428745952038
C            0.68196178015714       -0.16905215980711       -2.98455580116939
C           -0.16740816494538       -0.09179325003690       -1.91143758672957
C            0.33838409097531       -0.02211847216131       -0.59730185766952
C            4.05868188476241       -0.12000720755096       -1.34382440954768
O            4.83714271289611       -0.20911713194778       -2.26884568439691
N            4.51254312845979       -0.03138923223251       -0.03449396799189
C            5.93509007409127       -0.03877991524124        0.15591784312638
C            6.53397731336920       -1.10836429708558        0.80134313856034
C            7.90489204239680       -1.10901087327742        0.98654153845756
C            8.67040814504340       -0.05283477333806        0.52268621195859
C            8.06481811779959        1.01043450474460       -0.12493926725864
C            6.69360455063655        1.02388248848917       -0.30737743100781
C            3.73209094358071        0.06777523360112        1.11027679876070
O            4.24174449080806        0.15499527028370        2.20691879035606
C           -2.61261779981337        1.24380874907819        0.50799187911978
C           -1.92040231778569        2.43905837246146        0.72041440010330
C           -2.59408496162075        3.63517449343431        0.84957939444892
C           -3.97394082412246        3.66096499834733        0.75891059988197
C           -4.65784591136746        2.48366611025950        0.52068122192261
C           -4.00498616469333        1.26568393459019        0.38506012274865
H           -6.46184374858098        0.63959740292648        1.37013020946928
H           -5.25830553320685       -0.36547724644588        2.17786283278263
H           -6.41591665629433       -1.09372341812250        1.06425728456649
H           -4.86820321087111        0.39330262769417       -2.04163742041894
H           -6.17060919037117       -0.65217557873586       -1.47464385213896
H           -6.23685430924699        1.07945105851924       -1.16711188124588
H           -5.57873143361116       -2.51050490250339       -0.43687462314929
H           -4.24232438196117       -4.54245981676299       -0.62316801785361
H           -1.78718880473518       -4.43206021626534       -0.28520667746475
H           -0.72191611407347       -2.29054816738901        0.20106820642976
H           -0.60884508133087        0.24616592989262        2.66091787445653
H            1.85905198566203        0.24007288514622        2.97268351093886
H            2.74210272573942       -0.25028440945379       -3.63337469039219
H            0.28384249283312       -0.21930768560132       -3.98652152584315
H           -1.23661852551763       -0.08174861866529       -2.06133528608268
H            5.92851212183514       -1.92742978567320        1.15878833450524
H            8.37536745193689       -1.93915295240750        1.49181346395037
H            9.74068138597407       -0.05832420382760        0.66620383407485
H            8.66008545609320        1.83515804383379       -0.48725378389934
H            6.21193068892031        1.84858305375517       -0.81045503856910
H           -0.84273463851637        2.42962548798579        0.77906165247070
H           -2.03801384140964        4.54525666939240        1.01697967756461
H           -4.51354163435977        4.58975782140590        0.86221856810166
H           -5.73333351266633        2.52073813382255        0.43695860995565

          :  Hamiltonian                  GFN2-xTB          :
         :: gradient norm              0.000068816038 Eh/a0 ::
         :: HOMO-LUMO gap              1.056273906117 eV    ::
         :: SCC energy               -98.628280695717 Eh    ::
         :: -> dispersion             -0.086374268843 Eh    ::
         :: repulsion energy           1.668364188049 Eh    ::

    * Orbital Energies and Occupations

         #    Occupation            Energy/Eh            Energy/eV
      -------------------------------------------------------------
         1        2.0000           -0.7181816             -19.5427
       ...           ...                  ...                  ...
        77        2.0000           -0.4326501             -11.7730
        78        2.0000           -0.4211273             -11.4595
        79        2.0000           -0.4181516             -11.3785
        80        2.0000           -0.4159145             -11.3176
        81        2.0000           -0.4115879             -11.1999
        82        2.0000           -0.4109560             -11.1827
        83        2.0000           -0.4107237             -11.1764
        84        2.0000           -0.4085681             -11.1177
        85        2.0000           -0.4068316             -11.0705
        86        2.0000           -0.4046420             -11.0109
        87        2.0000           -0.4031919             -10.9714
        88        2.0000           -0.3994256             -10.8689
        89        2.0000           -0.3553662              -9.6700 (HOMO)
        90                         -0.3165490              -8.6137 (LUMO)
        91                         -0.2587607              -7.0412
        92                         -0.2565244              -6.9804
        93                         -0.2338299              -6.3628
        94                         -0.2311243              -6.2892
        95                         -0.2269816              -6.1765
        96                         -0.2269530              -6.1757
        97                         -0.2259002              -6.1471
        98                         -0.2249772              -6.1219
        99                         -0.1975771              -5.3763
       100                         -0.1673254              -4.5532
       ...                                ...                  ...
       172                          0.7259506              19.7541
      -------------------------------------------------------------
                  HL-Gap            0.0388173 Eh            1.0563 eV

     #   Z          covCN         q      C6AA      α(0)
     1   6 C        3.761    -0.104    22.526     6.766
     2   6 C        3.909     0.022    20.154     6.381
     3   6 C        3.761    -0.103    22.518     6.765
     4   6 C        2.979    -0.013    28.339     8.732
     5   6 C        2.928    -0.036    28.886     8.814
     6   6 C        2.917    -0.043    29.070     8.841
     7   6 C        2.920    -0.032    28.800     8.800
     8   6 C        2.924    -0.058    29.440     8.898
     9   6 C        2.928     0.057    26.716     8.476
    10   7 N        2.754    -0.069    22.579     7.057
    11   6 C        2.925     0.075    26.325     8.414
    12   6 C        2.917    -0.037    28.929     8.820
    13   6 C        2.921    -0.014    28.351     8.732
    14   6 C        2.976    -0.028    28.694     8.787
    15   6 C        2.994     0.009    27.799     8.649
    16   6 C        2.976    -0.023    28.584     8.770
    17   6 C        2.922    -0.011    28.283     8.721
    18   6 C        2.914    -0.024    28.615     8.772
    19   6 C        2.917    -0.019    28.491     8.753
    20   6 C        2.985     0.008    27.841     8.655
    21   6 C        2.775     0.274    22.364     7.745
    22   8 O        0.859    -0.401    21.698     6.245
    23   7 N        2.746    -0.103    23.256     7.162
    24   6 C        2.938     0.087    26.070     8.374
    25   6 C        2.921    -0.026    28.640     8.776
    26   6 C        2.922    -0.024    28.612     8.772
    27   6 C        2.920    -0.027    28.682     8.782
    28   6 C        2.922    -0.024    28.612     8.772
    29   6 C        2.921    -0.025    28.639     8.776
    30   6 C        2.775     0.275    22.360     7.745
    31   8 O        0.859    -0.402    21.713     6.247
    32   6 C        2.928     0.057    26.721     8.477
    33   6 C        2.924    -0.058    29.447     8.899
    34   6 C        2.920    -0.032    28.796     8.800
    35   6 C        2.917    -0.043    29.067     8.841
    36   6 C        2.928    -0.035    28.883     8.814
    37   6 C        2.979    -0.013    28.333     8.731
    38   1 H        0.925     0.041     2.441     2.443
    39   1 H        0.925     0.032     2.555     2.500
    40   1 H        0.925     0.040     2.443     2.444
    41   1 H        0.925     0.030     2.585     2.514
    42   1 H        0.925     0.041     2.442     2.444
    43   1 H        0.925     0.041     2.441     2.443
    44   1 H        0.926     0.032     2.552     2.498
    45   1 H        0.926     0.029     2.598     2.521
    46   1 H        0.926     0.030     2.591     2.517
    47   1 H        0.926     0.021     2.716     2.577
    48   1 H        0.926     0.055     2.259     2.350
    49   1 H        0.926     0.074     2.045     2.236
    50   1 H        0.926     0.071     2.071     2.250
    51   1 H        0.926     0.050     2.324     2.384
    52   1 H        0.926     0.051     2.313     2.378
    53   1 H        0.926     0.045     2.388     2.417
    54   1 H        0.926     0.042     2.418     2.432
    55   1 H        0.926     0.041     2.442     2.444
    56   1 H        0.926     0.042     2.418     2.432
    57   1 H        0.926     0.045     2.388     2.416
    58   1 H        0.926     0.022     2.702     2.570
    59   1 H        0.926     0.030     2.585     2.514
    60   1 H        0.926     0.029     2.598     2.521
    61   1 H        0.926     0.032     2.553     2.498

molecular dipole:
                 x           y           z       tot (Debye)
 q only:       -1.459       0.009      -0.236
   full:       -1.636       0.010      -0.251       4.208

 projected vibrational frequencies (cm⁻¹)
eigval :       -0.00    -0.00    -0.00     0.00     0.00     0.00
eigval :       13.29    16.80    17.91    33.03    43.28    45.88
eigval :       61.40    65.10    96.49   101.56   126.71   127.03
eigval :      128.53   137.06   169.42   178.15   184.90   189.61
eigval :      218.54   232.09   238.00   252.22   290.01   301.15
eigval :      319.37   323.48   331.01   344.46   348.56   374.62
eigval :      378.52   387.17   398.00   409.23   416.70   420.46
eigval :      446.58   454.31   470.87   491.80   497.27   511.99
eigval :      514.72   525.67   539.22   547.45   563.09   569.10
eigval :      587.48   590.03   609.90   633.35   639.03   644.25
eigval :      660.66   681.80   685.76   688.59   693.25   710.40
eigval :      734.85   748.38   761.82   776.71   777.85   779.62
eigval :      805.69   824.92   835.64   849.47   854.50   866.46
eigval :      867.35   871.33   899.92   908.52   913.62   914.43
eigval :      915.80   921.89   921.92   923.31   924.90   929.60
eigval :      931.04   933.84   939.48   957.42   988.17  1014.33
eigval :     1029.07  1073.30  1077.00  1080.45  1105.46  1113.89
eigval :     1117.36  1119.26  1128.93  1138.61  1141.13  1160.51
eigval :     1169.43  1181.09  1184.09  1186.51  1187.81  1188.88
eigval :     1192.71  1202.77  1227.39  1240.45  1242.95  1249.51
eigval :     1251.94  1268.57  1278.79  1294.42  1294.90  1306.31
eigval :     1321.54  1323.33  1332.77  1336.29  1342.66  1360.67
eigval :     1391.40  1403.45  1413.15  1421.57  1435.77  1438.34
eigval :     1441.77  1449.66  1469.86  1479.49  1489.48  1490.55
eigval :     1494.25  1500.45  1504.90  1505.01  1548.91  1572.68
eigval :     1576.59  1591.17  1591.92  1593.19  1594.56  1596.43
eigval :     1601.83  1692.94  1705.36  3025.47  3028.96  3041.10
eigval :     3043.85  3049.84  3053.95  3080.02  3081.25  3081.38
eigval :     3084.55  3085.41  3085.50  3088.50  3091.67  3092.35
eigval :     3094.58  3095.02  3097.20  3097.33  3100.54  3100.94
eigval :     3101.67  3103.04  3103.64

   temp. (K)  partition function   enthalpy   heat capacity  entropy
                                   cal/mol     cal/K/mol   cal/K/mol   J/K/mol
 298.15  VIB  0.605E+13            17094.008    109.479    104.864
         ROT  0.324E+08              888.752      2.981     37.347
         INT  0.196E+21            17982.761    112.460    142.210
         TR   0.102E+29             1481.254      4.968     44.377
         TOT                       19464.0145   117.4285   186.5871   780.6806

       T/K    H(0)-H(T)+PV         H(T)/Eh          T*S/Eh         G(T)/Eh
   ------------------------------------------------------------------------
    298.15    0.310179E-01    0.501055E+00    0.886536E-01    0.412401E+00
   ------------------------------------------------------------------------

         :::::::::::::::::::::::::::::::::::::::::::::::::::::
         ::                  THERMODYNAMIC                  ::
         :::::::::::::::::::::::::::::::::::::::::::::::::::::
         :: total free energy         -96.547515431332 Eh   ::
         ::.................................................::
         :: total energy              -96.959916507663 Eh   ::
         :: zero point energy           0.470036770250 Eh   ::
         :: G(RRHO) w/o ZPVE           -0.057635693918 Eh   ::
         :: G(RRHO) contrib.            0.412401076332 Eh   ::
         :::::::::::::::::::::::::::::::::::::::::::::::::::::

           -------------------------------------------------
          | TOTAL ENERGY              -96.959916507663 Eh   |
          | TOTAL ENTHALPY            -96.458861855888 Eh   |
          | TOTAL FREE ENERGY         -96.547515431332 Eh   |
          | GRADIENT NORM               0.000068808936 Eh/α |
          | HOMO-LUMO GAP               1.056271692615 eV   |
           -------------------------------------------------

 * finished run on 2025/08/24 at 03:30:51.071
