   * xtb version 6.7.1 (edcfbbe) compiled by 'albert@albert-system' on 2024-07-22

   ID    Z sym.   atoms
    1    6 C      1-9, 11-21, 24-30, 32-37
    2    7 N      10, 23
    3    8 O      22, 31
    4    1 H      38-61

          program call               : xtb data2507/gas/6AcBIQ/6AcBIQ_gas_S0_finalOpt.xtbopt.xyz --gfn 2 --spinpol --tblite --uhf 2 --ohess vtight --parallel 40 --molden --ceasefiles --namespace data2507/gas/6AcBIQ/6AcBIQ_gas_T1_preOpt
 * total energy  :   -96.8881342 Eh     change       -0.3932811E-08 Eh
 * total energy  :   -96.8923291 Eh     change       -0.4194896E-02 Eh
 * total energy  :   -96.8933433 Eh     change       -0.1014129E-02 Eh
 * total energy  :   -96.8934362 Eh     change       -0.9291704E-04 Eh
 * total energy  :   -96.8934901 Eh     change       -0.5393504E-04 Eh
 * total energy  :   -96.8935094 Eh     change       -0.1925095E-04 Eh
 * total energy  :   -96.8935363 Eh     change       -0.2694327E-04 Eh
 * total energy  :   -96.8935521 Eh     change       -0.1579610E-04 Eh
 * total energy  :   -96.8935800 Eh     change       -0.2789242E-04 Eh
 * total energy  :   -96.8935998 Eh     change       -0.1979191E-04 Eh
 * total energy  :   -96.8937997 Eh     change       -0.1341036E-05 Eh
 * total energy  :   -96.8938009 Eh     change       -0.1139481E-05 Eh
 * total energy  :   -96.8938019 Eh     change       -0.1064534E-05 Eh
 * total energy  :   -96.8938030 Eh     change       -0.1014221E-05 Eh
 * total energy  :   -96.8938040 Eh     change       -0.9891940E-06 Eh
 * total energy  :   -96.8938048 Eh     change       -0.8471566E-06 Eh
 * total energy  :   -96.8938056 Eh     change       -0.7629142E-06 Eh
 * total energy  :   -96.8938062 Eh     change       -0.6006186E-06 Eh
 * total energy  :   -96.8938062 Eh     change       -0.1413085E-07 Eh
   *** GEOMETRY OPTIMIZATION CONVERGED AFTER 44 ITERATIONS ***

 final structure:
================
61
 xtb: 6.7.1 (edcfbbe)
C           -6.31856770236762        0.11453660201469        1.26281944644396
C           -5.33716287607317       -0.01502870612825        0.08215097728254
C           -6.10962703390518       -0.25555222851441       -1.22937297584576
C           -4.43058378111669       -1.19777841547882        0.34132528142222
C           -4.98441544791155       -2.46015025670128        0.51273589223523
C           -4.20842310643260       -3.56536292056779        0.80570919450673
C           -2.83923073630146       -3.41416478458698        0.96872871096626
C           -2.26295402208074       -2.17651451041774        0.80318409679673
C           -3.03900789492871       -1.06130554764590        0.45291610715994
N           -2.42500595735909        0.16537683883441        0.27080140479259
C           -1.02302130772982        0.26679772262717        0.38758161672152
C           -0.48943697651530        1.00002021355067        1.47232012955054
C            0.85756743808684        1.09146918182973        1.65678843898195
C            1.74646948445534        0.47591608592302        0.73585044568775
C            1.23770647417154       -0.23047584106006       -0.37140037354236
C            2.11786406576760       -0.79611053183179       -1.31087251858182
C            1.60926198660994       -1.47687913494301       -2.43777084637350
C            0.25508864198332       -1.56589247249920       -2.63095954894990
C           -0.63784833232554       -1.00964278376000       -1.70986290147322
C           -0.16913082485199       -0.35112517420763       -0.56677878330857
C            3.55664687498921       -0.68962520229511       -1.13321274215967
O            4.36393253599235       -1.20076716015570       -1.89898718285363
N            3.98818968846795        0.00627010592122       -0.01077952534056
C            5.40067578054321        0.12412072484180        0.17630016377199
C            5.99192674137234       -0.41880156679754        1.30648064085320
C            7.35803435258662       -0.29856647128729        1.48614701685443
C            8.13112431905632        0.35035371841347        0.53845110327269
C            7.53561086658684        0.88583069735702       -0.59075667705152
C            6.16859293256653        0.78013166408979       -0.77328766122768
C            3.17369544751524        0.60714138768712        0.94392775218968
O            3.66110057040183        1.22542170926395        1.88386139181122
C           -3.15653901264400        1.30857269806271        0.01382055614346
C           -2.48453884079598        2.51647023604542       -0.23132788058711
C           -3.18273827160552        3.67960687862576       -0.46039881121144
C           -4.56908911781101        3.66031067930550       -0.47561812123926
C           -5.23523744963053        2.46256122004693       -0.29216574691417
C           -4.55829968888653        1.27431128823606       -0.05401841340531
H           -6.91531947367140       -0.78613179522923        1.37174987162916
H           -6.99308378760006        0.95256615680759        1.11414618108369
H           -5.76773363451742        0.27583147840435        2.18739577918150
H           -6.68745429266554       -1.17347835156936       -1.17359414975239
H           -6.79165129034103        0.56476616723751       -1.43278973867824
H           -5.41303242631697       -0.33739429735152       -2.06149601625394
H           -6.05161197230890       -2.58865359158714        0.41907737070331
H           -4.66980502653843       -4.53323476359371        0.92530302645628
H           -2.22337343590849       -4.26012556482419        1.23117111890440
H           -1.20187854530536       -2.05890596535181        0.95019722758054
H           -1.17838611043516        1.43992166746984        2.17895525690131
H            1.28715664575432        1.61365421315202        2.49625441118325
H            2.31606312365193       -1.90960418042180       -3.12749107427340
H           -0.13831781480580       -2.07955614461681       -3.49552877745573
H           -1.70012234925271       -1.09800535416790       -1.88351584247327
H            5.38218345015006       -0.92400000164500        2.03982148561303
H            7.82002643217451       -0.71790512950189        2.36778607485868
H            9.19833039658274        0.43892413128825        0.68023281828244
H            8.13609888753441        1.39275509019541       -1.33167474202634
H            5.69613202956032        1.19621217931509       -1.64995691025748
H           -1.40686380614250        2.52858376469088       -0.25283537665840
H           -2.64688293543606        4.59874143222623       -0.63920287804792
H           -5.12672101217704        4.56676933177963       -0.65257790729859
H           -6.31310651984612        2.45929020312057       -0.34087196436673

 projected vibrational frequencies (cm⁻¹)
eigval :       -0.00    -0.00     0.00     0.00     0.00     0.00
eigval :       16.09    18.30    24.24    39.78    43.37    51.49
eigval :       68.26    69.02    95.95   102.97   127.66   129.43
eigval :      135.47   141.47   165.36   178.44   191.75   194.94
eigval :      215.07   236.05   241.13   253.37   291.38   296.12
eigval :      310.58   326.37   327.75   341.77   352.25   374.58
eigval :      379.08   384.01   386.45   397.94   412.72   416.10
eigval :      452.96   455.81   464.09   477.57   491.19   503.73
eigval :      506.96   522.69   527.97   541.64   545.66   567.29
eigval :      583.82   588.69   600.81   614.43   633.70   640.65
eigval :      655.94   661.10   668.70   680.45   689.12   703.14
eigval :      717.37   731.33   757.46   759.75   774.85   775.88
eigval :      776.70   804.64   826.30   829.09   842.52   842.91
eigval :      868.80   871.73   872.39   892.74   897.29   905.02
eigval :      909.60   916.69   917.35   923.49   924.32   924.64
eigval :      928.25   930.59   937.66   958.59   985.19  1013.34
eigval :     1020.80  1070.07  1074.66  1080.96  1098.70  1107.40
eigval :     1112.52  1114.73  1118.01  1129.67  1138.02  1147.13
eigval :     1149.75  1168.03  1179.92  1182.51  1183.31  1183.63
eigval :     1188.01  1192.28  1196.39  1208.73  1238.15  1241.16
eigval :     1251.68  1256.96  1278.20  1279.56  1293.91  1295.70
eigval :     1306.22  1322.22  1322.46  1330.08  1335.67  1366.34
eigval :     1369.11  1384.62  1402.49  1408.15  1413.84  1419.86
eigval :     1427.25  1431.77  1439.25  1455.34  1469.16  1471.51
eigval :     1472.54  1485.85  1486.79  1497.10  1497.52  1500.36
eigval :     1541.02  1552.14  1566.37  1569.52  1577.86  1587.59
eigval :     1591.65  1592.81  1620.12  3031.19  3032.91  3047.36
eigval :     3049.90  3055.72  3059.69  3074.79  3076.78  3077.43
eigval :     3080.62  3088.15  3089.37  3090.08  3090.30  3096.43
eigval :     3096.68  3098.23  3099.90  3105.05  3105.59  3111.84
eigval :     3112.91  3114.60  3118.64

   temp. (K)  partition function   enthalpy   heat capacity  entropy
                                   cal/mol     cal/K/mol   cal/K/mol   J/K/mol
 298.15  VIB  0.232E+13            17177.313    111.121    104.635
         ROT  0.324E+08              888.752      2.981     37.350
         INT  0.753E+20            18066.066    114.102    141.985
         TR   0.102E+29             1481.254      4.968     44.377
         TOT                       19547.3196   119.0705   186.3619   779.7384

       T/K    H(0)-H(T)+PV         H(T)/Eh          T*S/Eh         G(T)/Eh
   ------------------------------------------------------------------------
    298.15    0.311506E-01    0.498017E+00    0.885466E-01    0.409470E+00
   ------------------------------------------------------------------------

         :::::::::::::::::::::::::::::::::::::::::::::::::::::
         ::                  THERMODYNAMIC                  ::
         :::::::::::::::::::::::::::::::::::::::::::::::::::::
         :: total free energy         -96.484335720617 Eh   ::
         ::.................................................::
         :: total energy              -96.893806175920 Eh   ::
         :: zero point energy           0.466866393799 Eh   ::
         :: G(RRHO) w/o ZPVE           -0.057395938496 Eh   ::
         :: G(RRHO) contrib.            0.409470455303 Eh   ::
         :::::::::::::::::::::::::::::::::::::::::::::::::::::

           -------------------------------------------------
          | TOTAL ENERGY              -96.893806175920 Eh   |
          | TOTAL ENTHALPY            -96.395789145552 Eh   |
          | TOTAL FREE ENERGY         -96.484335720617 Eh   |
          | GRADIENT NORM               0.000062547165 Eh/α |
           -------------------------------------------------

 * finished run on 2025/08/24 at 03:33:19.322
