   * xtb version 6.7.1 (edcfbbe) compiled by 'albert@albert-system' on 2024-07-22

   ID    Z sym.   atoms
    1    6 C      1-9, 11-21, 24-30, 32-37
    2    7 N      10, 23
    3    8 O      22, 31
    4    1 H      38-61

          program call               : xtb data2507/gas/6AcBIQ/6AcBIQ_gas_S0_crest.xyz --gfn 2 --ohess vtight --parallel 40 --molden --ceasefiles --namespace data2507/gas/6AcBIQ/6AcBIQ_gas_S0_finalOpt
          :  Hamiltonian                  GFN2-xTB          :
 * total energy  :   -96.9599274 Eh     change       -0.2303921E-08 Eh
 * total energy  :   -96.9599279 Eh     change       -0.5416700E-06 Eh
 * total energy  :   -96.9599292 Eh     change       -0.1264225E-05 Eh
 * total energy  :   -96.9599307 Eh     change       -0.1549545E-05 Eh
 * total energy  :   -96.9599318 Eh     change       -0.1051713E-05 Eh
 * total energy  :   -96.9599323 Eh     change       -0.4969461E-06 Eh
 * total energy  :   -96.9599326 Eh     change       -0.3503662E-06 Eh
 * total energy  :   -96.9599329 Eh     change       -0.3109419E-06 Eh
 * total energy  :   -96.9599331 Eh     change       -0.1656866E-06 Eh
 * total energy  :   -96.9599332 Eh     change       -0.1117965E-06 Eh
 * total energy  :   -96.9599334 Eh     change       -0.1470508E-06 Eh
 * total energy  :   -96.9599336 Eh     change       -0.2183074E-06 Eh
 * total energy  :   -96.9599338 Eh     change       -0.2518829E-06 Eh
 * total energy  :   -96.9599340 Eh     change       -0.1795893E-06 Eh
 * total energy  :   -96.9599341 Eh     change       -0.1179231E-06 Eh
 * total energy  :   -96.9599342 Eh     change       -0.9626994E-07 Eh
   *** GEOMETRY OPTIMIZATION CONVERGED AFTER 16 ITERATIONS ***

 final structure:
================
61
 xtb: 6.7.1 (edcfbbe)
C           -6.32133859232067        0.14806931053550        1.23708167848585
C           -5.33430583931963       -0.03567462536221        0.06993912054985
C           -6.09789636786059       -0.33867666586967       -1.23222319987059
C           -4.42595622083114       -1.20724155773596        0.38972472029098
C           -4.97982920151125       -2.46421697114959        0.59428746376629
C           -4.20771425700768       -3.56240188250407        0.92276119711516
C           -2.84182811197384       -3.40715034955995        1.07548008370605
C           -2.26573640859463       -2.17013529839617        0.87880055961233
C           -3.04086320931649       -1.06585175950660        0.51329230122631
N           -2.42891985541121        0.16474897042057        0.30495390037220
C           -1.02590075383198        0.26572200578157        0.45092451154707
C           -0.49264203228250        0.87965296196501        1.56379601408834
C            0.88733067485879        0.97760151783555        1.73230973073423
C            1.74640842455305        0.46010850458805        0.78403351507828
C            1.22962893308269       -0.16130249571075       -0.37131864650070
C            2.09682635596916       -0.68289531204042       -1.35333447328227
C            1.58314010754233       -1.27442815264687       -2.48833115101669
C            0.20143214287797       -1.35499336001745       -2.67872039556998
C           -0.66141817291086       -0.86232288367509       -1.73431540592438
C           -0.17253433106468       -0.26206463677011       -0.55603595407445
C            3.55749976741097       -0.60357509014559       -1.17352241425807
O            4.34658973700398       -1.05557193321026       -1.97527971414814
N            3.99598947089933        0.01869046895527       -0.01203136037828
C            5.41581960020286        0.10709713674135        0.17608818554470
C            6.01106103111271       -0.57572962888139        1.22446734399679
C            7.37935978967647       -0.48378066206706        1.40576376533577
C            8.14664783239886        0.27703025936176        0.54024458938481
C            7.54505610167853        0.95260396776071       -0.50777384468965
C            6.17618212188251        0.87433108940897       -0.69149037550063
C            3.20039699751894        0.56903402065010        0.98529698697132
O            3.69557347727179        1.10981548200580        1.95100607180017
C           -3.16137699282911        1.30332246778060       -0.00874136828388
C           -2.49595895040917        2.50639828348460       -0.25986034690741
C           -3.19603900366136        3.65356136638106       -0.56809716402657
C           -4.57665407690874        3.61812093486318       -0.64273859093153
C           -5.23417188320599        2.42170536579092       -0.42736188955338
C           -4.55416973672861        1.25137796872825       -0.11697606137906
H           -6.91683375228719       -0.74808058354966        1.38707875292446
H           -6.99671891393347        0.97750369870348        1.04697417856166
H           -5.77431112633014        0.35414405902205        2.15522086713241
H           -6.67431475796617       -1.25487088153342       -1.14000828043888
H           -6.78137360256681        0.46885896557440       -1.47872246746386
H           -5.39577158003498       -0.45627178689652       -2.05574947633108
H           -6.04691343742658       -2.59499280651165        0.49808908615917
H           -4.67063710427420       -4.52594555513775        1.07025199642489
H           -2.22169206391648       -4.24619678228304        1.35270062234148
H           -1.20146953651495       -2.05606444021122        1.01626826967345
H           -1.15848250048361        1.28329445861162        2.31206994535699
H            1.30480974525938        1.44915797749937        2.60895266085189
H            2.26974962526182       -1.66728157867704       -3.22300953679207
H           -0.18438389517713       -1.81045838412319       -3.57797456949076
H           -1.72867027619922       -0.92795169812661       -1.88396664960862
H            5.40465567576881       -1.16707539752185        1.89359405377247
H            7.84644732965515       -1.01126207860627        2.22391788338309
H            9.21500497282644        0.34359053210109        0.68274980454161
H            8.14162895924154        1.54645674401190       -1.18394666845532
H            5.69809246322895        1.39850795764935       -1.50499011568353
H           -1.41806396279176        2.54034472572454       -0.21887455493131
H           -2.65981439684431        4.57202915515873       -0.75335489837876
H           -5.13688176857553        4.50991415625417       -0.87794350327075
H           -6.31046448418037        2.40400165197824       -0.50665361928908

          :  Hamiltonian                  GFN2-xTB          :
         :: gradient norm              0.000034611052 Eh/a0 ::
         :: HOMO-LUMO gap              1.082406731936 eV    ::
         :: SCC energy               -98.628079321131 Eh    ::
         :: -> dispersion             -0.086402776430 Eh    ::
         :: repulsion energy           1.668145084015 Eh    ::

    * Orbital Energies and Occupations

         #    Occupation            Energy/Eh            Energy/eV
      -------------------------------------------------------------
         1        2.0000           -0.7177531             -19.5311
       ...           ...                  ...                  ...
        77        2.0000           -0.4324838             -11.7685
        78        2.0000           -0.4209747             -11.4553
        79        2.0000           -0.4184171             -11.3857
        80        2.0000           -0.4160577             -11.3215
        81        2.0000           -0.4114673             -11.1966
        82        2.0000           -0.4111647             -11.1884
        83        2.0000           -0.4103580             -11.1664
        84        2.0000           -0.4083446             -11.1116
        85        2.0000           -0.4063261             -11.0567
        86        2.0000           -0.4049090             -11.0181
        87        2.0000           -0.4024805             -10.9521
        88        2.0000           -0.3997464             -10.8777
        89        2.0000           -0.3559077              -9.6847 (HOMO)
        90                         -0.3161300              -8.6023 (LUMO)
        91                         -0.2583259              -7.0294
        92                         -0.2563629              -6.9760
        93                         -0.2335633              -6.3556
        94                         -0.2315683              -6.3013
        95                         -0.2265426              -6.1645
        96                         -0.2264097              -6.1609
        97                         -0.2262289              -6.1560
        98                         -0.2253269              -6.1315
        99                         -0.1980620              -5.3895
       100                         -0.1668513              -4.5403
       ...                                ...                  ...
       172                          0.7261094              19.7584
      -------------------------------------------------------------
                  HL-Gap            0.0397777 Eh            1.0824 eV

     #   Z          covCN         q      C6AA      α(0)
     1   6 C        3.761    -0.104    22.527     6.766
     2   6 C        3.909     0.022    20.154     6.381
     3   6 C        3.761    -0.103    22.519     6.765
     4   6 C        2.979    -0.013    28.335     8.732
     5   6 C        2.928    -0.036    28.886     8.814
     6   6 C        2.917    -0.043    29.065     8.841
     7   6 C        2.920    -0.032    28.800     8.800
     8   6 C        2.924    -0.058    29.434     8.897
     9   6 C        2.928     0.057    26.717     8.477
    10   7 N        2.754    -0.068    22.557     7.054
    11   6 C        2.925     0.074    26.338     8.416
    12   6 C        2.917    -0.038    28.938     8.821
    13   6 C        2.921    -0.014    28.356     8.732
    14   6 C        2.976    -0.028    28.703     8.788
    15   6 C        2.994     0.009    27.800     8.649
    16   6 C        2.976    -0.024    28.586     8.770
    17   6 C        2.922    -0.011    28.286     8.722
    18   6 C        2.914    -0.025    28.618     8.772
    19   6 C        2.917    -0.020    28.496     8.754
    20   6 C        2.985     0.007    27.846     8.656
    21   6 C        2.775     0.274    22.366     7.746
    22   8 O        0.859    -0.401    21.704     6.246
    23   7 N        2.746    -0.103    23.255     7.162
    24   6 C        2.938     0.086    26.075     8.375
    25   6 C        2.921    -0.026    28.642     8.776
    26   6 C        2.922    -0.024    28.615     8.772
    27   6 C        2.920    -0.027    28.685     8.783
    28   6 C        2.922    -0.024    28.615     8.772
    29   6 C        2.921    -0.026    28.640     8.776
    30   6 C        2.775     0.274    22.363     7.745
    31   8 O        0.859    -0.402    21.721     6.249
    32   6 C        2.927     0.057    26.724     8.478
    33   6 C        2.924    -0.058    29.442     8.898
    34   6 C        2.920    -0.032    28.795     8.800
    35   6 C        2.917    -0.043    29.061     8.840
    36   6 C        2.928    -0.035    28.882     8.814
    37   6 C        2.979    -0.013    28.327     8.730
    38   1 H        0.925     0.041     2.441     2.443
    39   1 H        0.925     0.041     2.440     2.443
    40   1 H        0.925     0.032     2.554     2.499
    41   1 H        0.925     0.041     2.441     2.443
    42   1 H        0.925     0.041     2.440     2.443
    43   1 H        0.925     0.030     2.582     2.513
    44   1 H        0.926     0.033     2.549     2.497
    45   1 H        0.926     0.029     2.595     2.519
    46   1 H        0.926     0.030     2.588     2.516
    47   1 H        0.926     0.022     2.708     2.574
    48   1 H        0.926     0.055     2.264     2.353
    49   1 H        0.926     0.073     2.048     2.238
    50   1 H        0.926     0.071     2.072     2.251
    51   1 H        0.926     0.049     2.327     2.385
    52   1 H        0.926     0.050     2.316     2.380
    53   1 H        0.926     0.045     2.387     2.416
    54   1 H        0.926     0.042     2.421     2.433
    55   1 H        0.926     0.040     2.445     2.445
    56   1 H        0.926     0.042     2.420     2.433
    57   1 H        0.926     0.045     2.384     2.414
    58   1 H        0.926     0.023     2.691     2.565
    59   1 H        0.926     0.030     2.580     2.512
    60   1 H        0.926     0.029     2.595     2.519
    61   1 H        0.926     0.033     2.550     2.497

molecular dipole:
                 x           y           z       tot (Debye)
 q only:       -1.509      -0.110      -0.224
   full:       -1.686      -0.118      -0.237       4.339

 projected vibrational frequencies (cm⁻¹)
eigval :       -0.00    -0.00    -0.00     0.00     0.00     0.00
eigval :       16.11    16.86    18.28    35.88    43.35    46.99
eigval :       62.60    65.76    96.58   102.26   126.77   127.98
eigval :      129.50   137.59   169.38   179.64   185.60   189.45
eigval :      218.24   233.12   238.70   252.75   290.37   301.54
eigval :      319.20   324.07   331.19   344.84   348.74   374.77
eigval :      378.35   387.50   397.81   409.28   417.13   420.88
eigval :      447.01   454.44   471.48   492.14   497.21   511.88
eigval :      514.63   525.93   540.03   547.47   563.10   569.46
eigval :      587.56   589.98   609.88   632.95   639.40   644.26
eigval :      660.66   682.08   685.76   688.55   693.52   710.18
eigval :      735.02   748.10   761.84   776.88   778.05   779.52
eigval :      805.74   825.11   835.59   849.79   854.45   867.09
eigval :      868.20   871.24   899.85   908.64   913.76   914.58
eigval :      915.65   921.98   922.05   923.67   924.84   929.56
eigval :      930.95   933.73   939.45   957.47   988.15  1014.38
eigval :     1029.41  1073.37  1076.94  1080.66  1105.53  1114.26
eigval :     1117.60  1119.49  1129.05  1138.92  1141.20  1160.41
eigval :     1169.73  1181.12  1184.24  1186.62  1188.03  1189.25
eigval :     1193.00  1202.99  1227.16  1239.76  1243.06  1249.71
eigval :     1252.15  1268.65  1279.10  1294.41  1294.77  1306.02
eigval :     1321.71  1322.53  1332.46  1335.54  1342.17  1360.94
eigval :     1391.70  1403.50  1412.97  1421.62  1435.57  1438.38
eigval :     1441.20  1449.38  1469.81  1478.90  1489.43  1490.53
eigval :     1493.85  1500.43  1504.85  1505.06  1548.43  1571.74
eigval :     1576.49  1590.98  1591.71  1593.15  1594.47  1596.42
eigval :     1601.68  1692.40  1704.69  3025.73  3028.95  3041.27
eigval :     3043.98  3050.02  3054.09  3079.96  3081.57  3081.70
eigval :     3084.66  3085.83  3085.92  3088.55  3091.81  3091.99
eigval :     3095.35  3095.69  3097.31  3097.67  3100.68  3101.49
eigval :     3102.21  3103.04  3103.68

   temp. (K)  partition function   enthalpy   heat capacity  entropy
                                   cal/mol     cal/K/mol   cal/K/mol   J/K/mol
 298.15  VIB  0.418E+13            17070.332    109.560    104.514
         ROT  0.324E+08              888.752      2.981     37.349
         INT  0.136E+21            17959.084    112.541    141.863
         TR   0.102E+29             1481.254      4.968     44.377
         TOT                       19440.3378   117.5095   186.2400   779.2283

       T/K    H(0)-H(T)+PV         H(T)/Eh          T*S/Eh         G(T)/Eh
   ------------------------------------------------------------------------
    298.15    0.309802E-01    0.501076E+00    0.884886E-01    0.412588E+00
   ------------------------------------------------------------------------

         :::::::::::::::::::::::::::::::::::::::::::::::::::::
         ::                  THERMODYNAMIC                  ::
         :::::::::::::::::::::::::::::::::::::::::::::::::::::
         :: total free energy         -96.547346541556 Eh   ::
         ::.................................................::
         :: total energy              -96.959934237116 Eh   ::
         :: zero point energy           0.470096190940 Eh   ::
         :: G(RRHO) w/o ZPVE           -0.057508495379 Eh   ::
         :: G(RRHO) contrib.            0.412587695561 Eh   ::
         :::::::::::::::::::::::::::::::::::::::::::::::::::::

           -------------------------------------------------
          | TOTAL ENERGY              -96.959934237116 Eh   |
          | TOTAL ENTHALPY            -96.458857895859 Eh   |
          | TOTAL FREE ENERGY         -96.547346541556 Eh   |
          | GRADIENT NORM               0.000034589515 Eh/α |
          | HOMO-LUMO GAP               1.082406585989 eV   |
           -------------------------------------------------

 * finished run on 2025/08/24 at 03:33:13.697
