   * xtb version 6.7.1 (edcfbbe) compiled by 'albert@albert-system' on 2024-07-22

   ID    Z sym.   atoms
    1    6 C      1-9, 11-21, 24-30, 32-37
    2    7 N      10, 23
    3    8 O      22, 31
    4    1 H      38-61

          program call               : xtb data2507/gas/6AcBIQ/6AcBIQ_gas_T1_crest.xyz --gfn 2 --spinpol --tblite --uhf 2 --ohess vtight --parallel 40 --molden --ceasefiles --namespace data2507/gas/6AcBIQ/6AcBIQ_gas_T1_finalOpt
 * total energy  :   -96.8937842 Eh     change        0.1641268E-08 Eh
 * total energy  :   -96.8937966 Eh     change       -0.1233333E-04 Eh
 * total energy  :   -96.8938017 Eh     change       -0.5158207E-05 Eh
 * total energy  :   -96.8938032 Eh     change       -0.1456081E-05 Eh
 * total energy  :   -96.8938049 Eh     change       -0.1740706E-05 Eh
 * total energy  :   -96.8938067 Eh     change       -0.1808217E-05 Eh
 * total energy  :   -96.8938085 Eh     change       -0.1807656E-05 Eh
 * total energy  :   -96.8938095 Eh     change       -0.9933939E-06 Eh
 * total energy  :   -96.8938096 Eh     change       -0.7675418E-07 Eh
 * total energy  :   -96.8938100 Eh     change       -0.3945316E-06 Eh
 * total energy  :   -96.8938119 Eh     change       -0.3829257E-06 Eh
 * total energy  :   -96.8938123 Eh     change       -0.3534628E-06 Eh
 * total energy  :   -96.8938126 Eh     change       -0.3098363E-06 Eh
 * total energy  :   -96.8938128 Eh     change       -0.2636221E-06 Eh
 * total energy  :   -96.8938128 Eh     change        0.1097786E-07 Eh
 * total energy  :   -96.8938130 Eh     change       -0.1689239E-06 Eh
 * total energy  :   -96.8938132 Eh     change       -0.1754500E-06 Eh
 * total energy  :   -96.8938131 Eh     change        0.4016545E-07 Eh
 * total energy  :   -96.8938132 Eh     change       -0.3449981E-07 Eh
   *** GEOMETRY OPTIMIZATION CONVERGED AFTER 23 ITERATIONS ***

 final structure:
================
61
 xtb: 6.7.1 (edcfbbe)
C           -6.33155542977961        0.23081028033500        1.20580178332670
C           -5.33408337335748       -0.01540568159294        0.05763886902843
C           -6.08760034742671       -0.40163798878433       -1.22989277283168
C           -4.42217593093421       -1.15528952143696        0.45356930887334
C           -4.96861628320241       -2.39623013935864        0.75557615469893
C           -4.18818058902127       -3.45547720935917        1.17791646845121
C           -2.82290320412704       -3.27397780006855        1.34297693368262
C           -2.25392259829187       -2.05709848634112        1.04870605931103
C           -3.03311788188824       -0.99544383670702        0.56435513997941
N           -2.42470656571334        0.20678569712525        0.24811338934028
C           -1.02346060521808        0.32488935067846        0.35166254379066
C           -0.49019639270178        1.18694964839873        1.33761999379299
C            0.85666750820230        1.30236662245964        1.50868003703230
C            1.74629193975945        0.57626463703677        0.67271619427148
C            1.23818378166973       -0.26457424142468       -0.33655235421515
C            2.11918589129325       -0.94720881225697       -1.19394083613696
C            1.61175751616188       -1.76575516185702       -2.22552584116929
C            0.25786398434894       -1.87461912446442       -2.41025766855297
C           -0.63578622856318       -1.20316553921473       -1.57023390688466
C           -0.16846336772712       -0.40718714843038       -0.51774782835872
C            3.55782112458246       -0.82175142080223       -1.02785084253073
O            4.36537055064226       -1.43024790056416       -1.71847326108043
N            3.98872424340137        0.01399548527898       -0.00492179192603
C            5.40107617087649        0.15473195319329        0.16588328307539
C            5.99158150558548       -0.23283656112245        1.35868632527644
C            7.35780208411491       -0.09120526565579        1.52099414063749
C            8.13183700348983        0.42408187051897        0.49519833513225
C            7.53708508219497        0.80446486591368       -0.69562435582019
C            6.16996272066610        0.67706637257677       -0.86264762822653
C            3.17341794327588        0.73344775272290        0.86321508764345
O            3.65980943874035        1.46860882122992        1.71544865566114
C           -3.16189910935946        1.31002091757340       -0.13674600465327
C           -2.49694439956533        2.48894575692255       -0.50918621491764
C           -3.20177265722762        3.61596211706098       -0.86411053050775
C           -4.58786942681159        3.58571537356916       -0.88170482168550
C           -5.24674078431851        2.40949556967510       -0.57458058570735
C           -4.56304953308733        1.25847450332198       -0.20760683282146
H           -6.92140738985316       -0.65899453621128        1.40450643357090
H           -7.01193066496698        1.04064634269233        0.95974288875827
H           -5.79394800722616        0.49665176260349        2.11386775977585
H           -6.66055777764418       -1.31248189620533       -1.08262538610735
H           -6.77164564202137        0.38707364507916       -1.52909141427773
H           -5.37957503034797       -0.56747885465941       -2.03958040469084
H           -6.03337787405399       -2.54405161353407        0.66272555780627
H           -4.64344016923161       -4.40889581835252        1.39621999698687
H           -2.20442040776917       -4.07959812267560        1.70663589462584
H           -1.19619645106593       -1.91387151891095        1.19711395687626
H           -1.17935337694479        1.70973348968366        1.98515470852706
H            1.28580468060078        1.92581884194992        2.27619422994471
H            2.31913965983851       -2.28553563175109       -2.85158892706686
H           -0.13494003761216       -2.49340523268750       -3.20328592940073
H           -1.69771875393664       -1.31024814606700       -1.73510367693921
H            5.38123132758414       -0.63474808140632        2.15287327343965
H            7.81920411586187       -0.38939620455061        2.45092376895419
H            9.19915897576685        0.52935103923758        0.62407125662864
H            8.13826461055600        1.20679443094989       -1.49765120255165
H            5.69812896609686        0.97270327541633       -1.78723997039743
H           -1.41933334645607        2.50638435619349       -0.52913765043692
H           -2.67113394619879        4.51421306132747       -1.13888042301721
H           -5.15070152567583        4.46419768775085       -1.15632792702589
H           -6.32425105308414        2.39295290127780       -0.62820703326159

 projected vibrational frequencies (cm⁻¹)
eigval :       -0.00    -0.00    -0.00    -0.00     0.00     0.00
eigval :       15.92    18.20    24.30    40.03    43.43    51.67
eigval :       68.29    69.27    96.04   103.68   127.38   129.93
eigval :      135.84   141.93   165.20   179.33   191.61   195.40
eigval :      214.86   236.86   241.36   253.68   291.47   296.30
eigval :      310.50   326.52   328.08   342.00   352.61   374.47
eigval :      378.94   383.91   386.60   397.96   412.73   416.12
eigval :      453.15   455.78   464.18   477.59   491.14   503.72
eigval :      507.25   523.15   527.88   541.83   545.95   567.18
eigval :      583.72   588.57   600.50   614.41   633.87   640.76
eigval :      656.04   661.27   668.74   680.48   689.08   703.12
eigval :      717.44   731.10   757.66   759.66   774.79   775.99
eigval :      776.63   805.01   826.28   829.17   842.52   843.04
eigval :      868.64   871.75   872.43   893.31   897.04   904.75
eigval :      909.64   916.61   917.23   923.32   924.19   924.54
eigval :      928.08   930.43   937.62   958.50   985.24  1013.00
eigval :     1020.97  1070.11  1074.54  1081.04  1098.80  1107.76
eigval :     1112.68  1114.87  1118.20  1129.67  1137.94  1147.38
eigval :     1149.80  1168.03  1179.85  1182.24  1182.96  1183.29
eigval :     1188.02  1192.05  1196.22  1208.86  1237.91  1241.02
eigval :     1251.34  1256.96  1278.21  1279.36  1293.54  1295.24
eigval :     1306.23  1322.22  1322.33  1330.13  1335.64  1366.29
eigval :     1369.16  1384.16  1402.28  1408.06  1413.47  1419.14
eigval :     1427.03  1431.87  1438.81  1455.02  1469.07  1471.48
eigval :     1472.51  1485.40  1486.23  1496.53  1497.74  1499.90
eigval :     1541.54  1552.05  1566.22  1570.32  1577.80  1587.52
eigval :     1591.61  1592.87  1620.55  3031.09  3032.83  3047.22
eigval :     3049.85  3055.27  3059.55  3074.56  3076.61  3076.86
eigval :     3080.26  3088.12  3089.15  3089.99  3090.17  3096.15
eigval :     3096.59  3097.85  3099.81  3104.75  3105.46  3111.46
eigval :     3112.81  3114.62  3118.36

   temp. (K)  partition function   enthalpy   heat capacity  entropy
                                   cal/mol     cal/K/mol   cal/K/mol   J/K/mol
 298.15  VIB  0.228E+13            17171.238    111.129    104.588
         ROT  0.324E+08              888.752      2.981     37.349
         INT  0.739E+20            18059.991    114.109    141.937
         TR   0.102E+29             1481.254      4.968     44.377
         TOT                       19541.2446   119.0776   186.3141   779.5383

       T/K    H(0)-H(T)+PV         H(T)/Eh          T*S/Eh         G(T)/Eh
   ------------------------------------------------------------------------
    298.15    0.311410E-01    0.497998E+00    0.885238E-01    0.409475E+00
   ------------------------------------------------------------------------

         :::::::::::::::::::::::::::::::::::::::::::::::::::::
         ::                  THERMODYNAMIC                  ::
         :::::::::::::::::::::::::::::::::::::::::::::::::::::
         :: total free energy         -96.484338554588 Eh   ::
         ::.................................................::
         :: total energy              -96.893813158503 Eh   ::
         :: zero point energy           0.466857496986 Eh   ::
         :: G(RRHO) w/o ZPVE           -0.057382893071 Eh   ::
         :: G(RRHO) contrib.            0.409474603915 Eh   ::
         :::::::::::::::::::::::::::::::::::::::::::::::::::::

           -------------------------------------------------
          | TOTAL ENERGY              -96.893813158503 Eh   |
          | TOTAL ENTHALPY            -96.395814706035 Eh   |
          | TOTAL FREE ENERGY         -96.484338554588 Eh   |
          | GRADIENT NORM               0.000126582196 Eh/α |
           -------------------------------------------------

 * finished run on 2025/08/24 at 03:36:26.996
