   * xtb version 6.7.1 (edcfbbe) compiled by 'albert@albert-system' on 2024-07-22

   ID    Z sym.   atoms
    1    6 C      1-9, 11-19, 21-34, 36-40, 42-53
    2    7 N      10, 20, 35, 41
    3    1 H      54-87

          program call               : xtb data2507/gas/DPCN/DPCN_gas_S0_crest.xyz --gfn 2 --ohess vtight --parallel 40 --molden --ceasefiles --namespace data2507/gas/DPCN/DPCN_gas_S0_finalOpt
          :  Hamiltonian                  GFN2-xTB          :
 * total energy  :  -134.0034903 Eh     change       -0.1791790E-08 Eh
 * total energy  :  -134.0034913 Eh     change       -0.1079366E-05 Eh
 * total energy  :  -134.0034922 Eh     change       -0.8780543E-06 Eh
 * total energy  :  -134.0034950 Eh     change       -0.2786833E-05 Eh
 * total energy  :  -134.0034993 Eh     change       -0.4324320E-05 Eh
 * total energy  :  -134.0035031 Eh     change       -0.3807931E-05 Eh
 * total energy  :  -134.0035058 Eh     change       -0.2674312E-05 Eh
 * total energy  :  -134.0035077 Eh     change       -0.1892211E-05 Eh
 * total energy  :  -134.0035097 Eh     change       -0.2015847E-05 Eh
 * total energy  :  -134.0035121 Eh     change       -0.2414981E-05 Eh
 * total energy  :  -134.0035880 Eh     change       -0.4081440E-06 Eh
 * total energy  :  -134.0035884 Eh     change       -0.4053592E-06 Eh
 * total energy  :  -134.0035889 Eh     change       -0.4037132E-06 Eh
 * total energy  :  -134.0035892 Eh     change       -0.3735961E-06 Eh
 * total energy  :  -134.0035896 Eh     change       -0.3636380E-06 Eh
 * total energy  :  -134.0035900 Eh     change       -0.4273932E-06 Eh
 * total energy  :  -134.0035907 Eh     change       -0.6643334E-06 Eh
 * total energy  :  -134.0035917 Eh     change       -0.1011708E-05 Eh
 * total energy  :  -134.0035917 Eh     change       -0.9417732E-08 Eh
   *** GEOMETRY OPTIMIZATION CONVERGED AFTER 94 ITERATIONS ***

 final structure:
================
87
 xtb: 6.7.1 (edcfbbe)
C           10.16877698469694       -1.26612364282839        0.62745894433214
C            9.23455836599430       -0.22071710998527       -0.00878652016157
C           10.05906413972942        0.89182851103918       -0.68170862816868
C            8.38848671957562       -0.90270250042481       -1.06720385685604
C            9.00873135703506       -1.52025536925381       -2.14445550846856
C            8.28998632390407       -2.14078770566145       -3.14938393399590
C            6.90822465435904       -2.13956200987295       -3.09133274371801
C            6.26595413021970       -1.53407260990434       -2.03209219804069
C            6.99117153995020       -0.92249098949450       -1.00511299997461
N            6.31771186959201       -0.32927192682126        0.05049563362776
C            4.89848342523141       -0.38353906017977        0.08005356721448
C            4.14885310513627        0.72213213365347       -0.30368789893415
C            2.76943519020341        0.66823738195055       -0.26955215551340
C            2.11147036774437       -0.49140827564683        0.13648672553576
C            0.64415562359349       -0.54839848172908        0.16454959945700
C           -0.03501627572915       -1.68781849412245       -0.26566722348402
C           -1.41217842576632       -1.73434305571570       -0.25160925400402
C           -2.15569514266457       -0.64055226421640        0.19393750739808
C           -3.60434970652780       -0.75255499753950        0.18966500380476
N           -4.23606070819479       -1.86559881095079        0.45468175648340
C           -5.56168588291141       -1.57766330124124        0.37698513824537
C           -6.65834778023894       -2.44923391295905        0.62508631644998
C           -6.45427645098462       -3.77933629797371        1.00652499253881
C           -7.52524906964555       -4.59313482154524        1.27874836107301
C           -8.81720988245443       -4.08085340615132        1.17675174551697
C           -9.02909260317343       -2.77646410309879        0.79588441579077
C           -7.96111514518631       -1.91609745385395        0.49790207928283
C           -8.15110089162633       -0.54632253615703        0.05302315325394
C           -9.43051777910419       -0.01770122173065       -0.16962908445528
C           -9.62132744396116        1.25968194006302       -0.64030000634512
C           -8.52644577102063        2.06666391955307       -0.93203513196136
C           -7.25644615669028        1.59068843088342       -0.71891850571766
C           -7.04011409446711        0.30328671015210       -0.20674747860392
C           -5.74698033842072       -0.23951950624776        0.03667667854225
N           -4.47687285675446        0.28713486257857       -0.07307898193007
C           -4.09043715578455        1.60361494882738       -0.36396336203871
C           -3.29152902988152        1.85687571239356       -1.47682319004874
C           -2.87074247636319        3.14299950091404       -1.74440861057788
C           -3.24766570092409        4.18736688129048       -0.89874037598886
C           -2.81535641364814        5.50615891450157       -1.16938288640385
N           -2.46478853999505        6.57531077158393       -1.38774340902630
C           -4.04986177505385        3.93380910290353        0.21605669864207
C           -4.46622849063402        2.64675574753919        0.48263181096735
C           -1.47975115727815        0.48733654413826        0.65672500206602
C           -0.10074238650629        0.53190062484620        0.63308247401931
C            2.87271717152337       -1.59594045649092        0.51479172183291
C            4.25228874156678       -1.54285463376729        0.49292739198154
C            6.98768072982684        0.31175655501301        1.08019037443497
C            6.26136367185653        0.86678782727795        2.13798901281805
C            6.89944349657105        1.51775143143107        3.17250786246294
C            8.27844645764728        1.62260087356892        3.17397941527560
C            8.99984699529135        1.05837178413682        2.13825275176477
C            8.38390768099617        0.39630751899404        1.08522662214054
H           10.80565612967862       -1.72593355342369       -0.12316480919192
H           10.80537767287515       -0.81079685969108        1.38102688961197
H            9.57918018854865       -2.04774747248385        1.10315770611000
H           10.69111525497263        1.39867970578350        0.04224791830836
H           10.69513631453606        0.48539818985474       -1.46318856779069
H            9.39236267145299        1.62657920376766       -1.12945410899151
H           10.08647692890559       -1.51921289853210       -2.20806064180372
H            8.80494351293982       -2.61375873101224       -3.97165387075076
H            6.32631354125965       -2.60782132598981       -3.87134946651969
H            5.18716241448282       -1.52902805303312       -1.99836567786397
H            4.65626134447794        1.61968495294448       -0.62528106324172
H            2.19344430010202        1.52617365334375       -0.58384978354366
H            0.52513396558437       -2.53396072773062       -0.63519321841434
H           -1.93984858766008       -2.61345236679339       -0.58693388514884
H           -5.43751659533553       -4.13156267196595        1.08466602999469
H           -7.37347068420798       -5.62031974461482        1.57541036361972
H           -9.66312190848900       -4.71516293146623        1.39902551956082
H          -10.04644297216740       -2.42418848060078        0.73430014501435
H          -10.30091006848577       -0.62474294977620        0.01923209659439
H          -10.62255064004303        1.63160608390960       -0.79952325228361
H           -8.67281291685430        3.06006933927377       -1.32932798468843
H           -6.41182159543246        2.21264542881673       -0.97043000187599
H           -3.00483112963631        1.04016474617513       -2.12192048543056
H           -2.25313935251520        3.34833426902330       -2.60571528802517
H           -4.33502745081092        4.74692984291404        0.86662022305189
H           -5.08350119217844        2.43577065902293        1.34344852979642
H           -2.02682441246448        1.32411251015644        1.06497616829128
H            0.40844557324016        1.40684726877709        1.00991422262380
H            2.37751720921613       -2.49403872119931        0.85275672317905
H            4.84027776249839       -2.39762895219151        0.79307272042027
H            5.18548466070559        0.78113752148556        2.14821536914546
H            6.31659898527096        1.94027447086730        3.97751733561898
H            8.78981637626374        2.13235962572498        3.97625176903322
H           10.07631643770390        1.13844696197518        2.15754200278476

          :  Hamiltonian                  GFN2-xTB          :
         :: gradient norm              0.000067112238 Eh/a0 ::
         :: HOMO-LUMO gap              1.408546809823 eV    ::
         :: SCC energy              -136.526424226376 Eh    ::
         :: -> dispersion             -0.124861206747 Eh    ::
         :: repulsion energy           2.522832525679 Eh    ::

    * Orbital Energies and Occupations

         #    Occupation            Energy/Eh            Energy/eV
      -------------------------------------------------------------
         1        2.0000           -0.6974166             -18.9777
       ...           ...                  ...                  ...
       113        2.0000           -0.4187312             -11.3943
       114        2.0000           -0.4135948             -11.2545
       115        2.0000           -0.4081941             -11.1075
       116        2.0000           -0.4047451             -11.0137
       117        2.0000           -0.4038685             -10.9898
       118        2.0000           -0.3997195             -10.8769
       119        2.0000           -0.3971410             -10.8068
       120        2.0000           -0.3944619             -10.7339
       121        2.0000           -0.3892073             -10.5909
       122        2.0000           -0.3871312             -10.5344
       123        2.0000           -0.3848312             -10.4718
       124        2.0000           -0.3702916             -10.0761
       125        2.0000           -0.3428067              -9.3282 (HOMO)
       126                         -0.2910436              -7.9197 (LUMO)
       127                         -0.2712264              -7.3804
       128                         -0.2626886              -7.1481
       129                         -0.2539244              -6.9096
       130                         -0.2522107              -6.8630
       131                         -0.2369936              -6.4489
       132                         -0.2356636              -6.4127
       133                         -0.2314108              -6.2970
       134                         -0.2205224              -6.0007
       135                         -0.2173406              -5.9141
       136                         -0.2155967              -5.8667
       ...                                ...                  ...
       246                          1.1609910              31.5922
      -------------------------------------------------------------
                  HL-Gap            0.0517631 Eh            1.4085 eV

     #   Z          covCN         q      C6AA      α(0)
     1   6 C        3.761    -0.103    22.506     6.763
     2   6 C        3.909     0.021    20.157     6.381
     3   6 C        3.761    -0.103    22.505     6.763
     4   6 C        2.979    -0.015    28.370     8.737
     5   6 C        2.928    -0.036    28.903     8.817
     6   6 C        2.917    -0.045    29.124     8.850
     7   6 C        2.920    -0.033    28.830     8.805
     8   6 C        2.924    -0.059    29.476     8.903
     9   6 C        2.928     0.058    26.695     8.473
    10   7 N        2.754    -0.072    22.632     7.066
    11   6 C        2.928     0.069    26.446     8.434
    12   6 C        2.920    -0.038    28.946     8.823
    13   6 C        2.925    -0.033    28.827     8.805
    14   6 C        2.977     0.009    27.815     8.651
    15   6 C        2.977     0.012    27.737     8.639
    16   6 C        2.923    -0.032    28.795     8.800
    17   6 C        2.927    -0.028    28.689     8.784
    18   6 C        2.974     0.000    28.018     8.683
    19   6 C        3.187     0.128    24.777     8.122
    20   7 N        1.895    -0.285    28.239     7.878
    21   6 C        3.206     0.058    26.114     8.322
    22   6 C        2.986     0.003    27.948     8.672
    23   6 C        2.922    -0.031    28.762     8.795
    24   6 C        2.917    -0.029    28.732     8.790
    25   6 C        2.918    -0.032    28.791     8.799
    26   6 C        2.922    -0.034    28.854     8.809
    27   6 C        2.979    -0.001    28.041     8.686
    28   6 C        2.980     0.003    27.955     8.673
    29   6 C        2.922    -0.033    28.821     8.804
    30   6 C        2.917    -0.032    28.801     8.800
    31   6 C        2.917    -0.031    28.775     8.796
    32   6 C        2.919    -0.040    28.993     8.830
    33   6 C        2.978    -0.002    28.078     8.692
    34   6 C        3.069     0.020    27.498     8.598
    35   7 N        2.841    -0.047    22.139     6.988
    36   6 C        2.912     0.078    26.266     8.404
    37   6 C        2.921    -0.035    28.882     8.813
    38   6 C        2.926    -0.018    28.451     8.747
    39   6 C        2.973     0.019    27.571     8.613
    40   6 C        1.912     0.112    28.329     8.596
    41   7 N        0.911    -0.224    25.904     7.361
    42   6 C        2.926    -0.019    28.482     8.752
    43   6 C        2.920    -0.034    28.850     8.808
    44   6 C        2.920    -0.035    28.863     8.810
    45   6 C        2.924    -0.034    28.845     8.808
    46   6 C        2.925    -0.033    28.824     8.804
    47   6 C        2.920    -0.038    28.942     8.822
    48   6 C        2.928     0.058    26.695     8.473
    49   6 C        2.924    -0.059    29.473     8.903
    50   6 C        2.920    -0.033    28.828     8.805
    51   6 C        2.917    -0.045    29.121     8.849
    52   6 C        2.928    -0.036    28.903     8.817
    53   6 C        2.979    -0.015    28.370     8.737
    54   1 H        0.925     0.039     2.467     2.456
    55   1 H        0.925     0.039     2.467     2.456
    56   1 H        0.925     0.031     2.576     2.510
    57   1 H        0.925     0.039     2.466     2.456
    58   1 H        0.925     0.039     2.467     2.456
    59   1 H        0.925     0.031     2.575     2.509
    60   1 H        0.926     0.029     2.601     2.522
    61   1 H        0.926     0.025     2.659     2.550
    62   1 H        0.926     0.026     2.649     2.545
    63   1 H        0.926     0.022     2.701     2.570
    64   1 H        0.926     0.042     2.417     2.431
    65   1 H        0.926     0.038     2.481     2.463
    66   1 H        0.926     0.040     2.443     2.444
    67   1 H        0.926     0.054     2.273     2.357
    68   1 H        0.926     0.051     2.302     2.373
    69   1 H        0.926     0.032     2.557     2.500
    70   1 H        0.926     0.030     2.585     2.514
    71   1 H        0.926     0.032     2.557     2.501
    72   1 H        0.926     0.036     2.498     2.471
    73   1 H        0.926     0.031     2.570     2.507
    74   1 H        0.926     0.029     2.602     2.522
    75   1 H        0.926     0.021     2.711     2.575
    76   1 H        0.926     0.048     2.345     2.395
    77   1 H        0.926     0.051     2.311     2.377
    78   1 H        0.926     0.051     2.305     2.374
    79   1 H        0.926     0.052     2.301     2.372
    80   1 H        0.926     0.024     2.670     2.555
    81   1 H        0.926     0.035     2.510     2.477
    82   1 H        0.926     0.041     2.440     2.443
    83   1 H        0.926     0.043     2.414     2.430
    84   1 H        0.926     0.022     2.700     2.570
    85   1 H        0.926     0.026     2.647     2.544
    86   1 H        0.926     0.025     2.658     2.549
    87   1 H        0.926     0.029     2.600     2.522

molecular dipole:
                 x           y           z       tot (Debye)
 q only:       -0.293      -0.541       0.045
   full:       -0.628      -0.539       0.042       2.106

 projected vibrational frequencies (cm⁻¹)
eigval :       -0.00    -0.00    -0.00     0.00     0.00     0.00
eigval :        6.23     9.04    11.78    19.55    20.23    28.18
eigval :       33.47    37.25    49.78    52.84    67.13    72.52
eigval :       82.77    84.12    90.93    97.18   101.41   106.06
eigval :      120.85   122.71   129.08   133.23   174.73   179.68
eigval :      190.35   201.81   207.61   210.59   213.28   220.51
eigval :      236.32   256.60   262.48   267.40   276.83   304.96
eigval :      319.21   331.04   340.56   343.45   348.05   370.83
eigval :      373.69   379.00   380.99   382.52   396.89   400.96
eigval :      403.41   418.45   424.61   426.54   430.45   439.96
eigval :      451.36   465.66   472.38   488.96   501.10   513.85
eigval :      515.55   521.38   532.47   535.04   539.55   545.97
eigval :      547.46   558.43   579.31   582.78   585.94   594.76
eigval :      602.76   611.61   613.35   629.43   642.06   651.80
eigval :      663.53   671.09   674.14   682.19   682.51   689.62
eigval :      692.49   693.42   707.46   713.40   731.29   735.11
eigval :      764.43   766.89   776.40   777.71   782.74   784.70
eigval :      805.24   810.54   824.31   825.90   833.51   862.28
eigval :      865.15   865.73   868.48   869.80   875.38   875.98
eigval :      907.64   912.58   912.87   913.53   914.52   915.43
eigval :      915.81   918.93   920.71   920.77   923.15   923.97
eigval :      926.43   926.95   927.93   932.28   938.70   939.17
eigval :      957.08   960.72   993.24  1010.40  1014.32  1017.23
eigval :     1031.08  1068.35  1077.43  1079.56  1085.77  1086.99
eigval :     1108.57  1113.58  1119.76  1127.68  1131.01  1132.64
eigval :     1141.03  1142.85  1151.73  1160.51  1171.94  1172.69
eigval :     1180.62  1182.95  1185.37  1185.94  1187.42  1188.02
eigval :     1201.17  1206.37  1209.69  1230.78  1244.96  1250.18
eigval :     1254.31  1257.99  1260.07  1264.33  1269.14  1271.54
eigval :     1283.61  1284.95  1295.09  1306.64  1307.21  1311.49
eigval :     1319.73  1325.67  1326.51  1332.88  1337.79  1339.16
eigval :     1345.64  1347.37  1375.45  1392.28  1400.67  1402.74
eigval :     1407.60  1410.46  1419.84  1420.93  1430.22  1435.92
eigval :     1437.23  1444.82  1463.03  1481.77  1483.06  1490.41
eigval :     1491.30  1493.17  1500.82  1501.18  1505.74  1513.76
eigval :     1517.41  1543.25  1550.75  1556.24  1562.65  1566.49
eigval :     1571.58  1575.72  1585.07  1589.21  1591.76  1593.55
eigval :     1594.71  1600.96  1603.90  1605.05  2376.26  3025.98
eigval :     3028.29  3038.75  3041.50  3047.76  3052.08  3074.41
eigval :     3076.70  3076.93  3078.18  3078.47  3081.26  3081.66
eigval :     3081.86  3082.64  3085.71  3085.85  3088.41  3089.67
eigval :     3091.70  3092.50  3092.63  3092.90  3093.24  3094.63
eigval :     3098.51  3098.80  3099.44  3100.57  3102.87  3105.76
eigval :     3106.57  3109.62  3112.73

   temp. (K)  partition function   enthalpy   heat capacity  entropy
                                   cal/mol     cal/K/mol   cal/K/mol   J/K/mol
 298.15  VIB  0.221E+21            25246.827    158.293    158.299
         ROT  0.152E+09              888.752      2.981     40.419
         INT  0.336E+29            26135.580    161.274    198.718
         TR   0.171E+29             1481.254      4.968     45.406
         TOT                       27616.8337   166.2419   244.1241  1021.4152

       T/K    H(0)-H(T)+PV         H(T)/Eh          T*S/Eh         G(T)/Eh
   ------------------------------------------------------------------------
    298.15    0.440102E-01    0.717123E+00    0.115991E+00    0.601131E+00
   ------------------------------------------------------------------------

         :::::::::::::::::::::::::::::::::::::::::::::::::::::
         ::                  THERMODYNAMIC                  ::
         :::::::::::::::::::::::::::::::::::::::::::::::::::::
         :: total free energy        -133.402460344674 Eh   ::
         ::.................................................::
         :: total energy             -134.003591700694 Eh   ::
         :: zero point energy           0.673112358341 Eh   ::
         :: G(RRHO) w/o ZPVE           -0.071981002320 Eh   ::
         :: G(RRHO) contrib.            0.601131356021 Eh   ::
         :::::::::::::::::::::::::::::::::::::::::::::::::::::

           -------------------------------------------------
          | TOTAL ENERGY             -134.003591700694 Eh   |
          | TOTAL ENTHALPY           -133.286469116439 Eh   |
          | TOTAL FREE ENERGY        -133.402460344674 Eh   |
          | GRADIENT NORM               0.000067116924 Eh/α |
          | HOMO-LUMO GAP               1.408545969810 eV   |
           -------------------------------------------------

 * finished run on 2025/08/22 at 09:11:44.669
