   * xtb version 6.7.1 (edcfbbe) compiled by 'albert@albert-system' on 2024-07-22

   ID    Z sym.   atoms
    1    6 C      1-9, 11-19, 21-34, 36-40, 42-53
    2    7 N      10, 20, 35, 41
    3    1 H      54-87

          program call               : xtb data2507/gas/DPCN/DPCN.xyz --gfn 2 --ohess vtight --parallel 40 --molden --ceasefiles --namespace data2507/gas/DPCN/DPCN_gas_S0_preOpt
          :  Hamiltonian                  GFN2-xTB          :
 * total energy  :  -133.9755997 Eh     change       -0.2116764E-08 Eh
 * total energy  :  -133.9926220 Eh     change       -0.1702233E-01 Eh
 * total energy  :  -133.9976948 Eh     change       -0.5072829E-02 Eh
 * total energy  :  -133.9989480 Eh     change       -0.1253195E-02 Eh
 * total energy  :  -133.9998999 Eh     change       -0.9518958E-03 Eh
 * total energy  :  -134.0003931 Eh     change       -0.4932345E-03 Eh
 * total energy  :  -134.0006869 Eh     change       -0.2938058E-03 Eh
 * total energy  :  -134.0008936 Eh     change       -0.2066559E-03 Eh
 * total energy  :  -134.0010273 Eh     change       -0.1337167E-03 Eh
 * total energy  :  -134.0011919 Eh     change       -0.1645599E-03 Eh
 * total energy  :  -134.0034028 Eh     change       -0.5589271E-06 Eh
 * total energy  :  -134.0034032 Eh     change       -0.4632498E-06 Eh
 * total energy  :  -134.0034037 Eh     change       -0.5147213E-06 Eh
 * total energy  :  -134.0034041 Eh     change       -0.4109372E-06 Eh
 * total energy  :  -134.0034046 Eh     change       -0.4954543E-06 Eh
 * total energy  :  -134.0034052 Eh     change       -0.5186538E-06 Eh
 * total energy  :  -134.0034057 Eh     change       -0.5499385E-06 Eh
 * total energy  :  -134.0034063 Eh     change       -0.6358379E-06 Eh
 * total energy  :  -134.0034064 Eh     change       -0.2266262E-08 Eh
   *** GEOMETRY OPTIMIZATION CONVERGED AFTER 122 ITERATIONS ***

 final structure:
================
87
 xtb: 6.7.1 (edcfbbe)
C            9.55100263564082        0.15966760817601        1.23919768664690
C            8.68610052630028       -0.05130834139964       -0.01696901266302
C            9.57857985456822       -0.15952000595750       -1.26685698496334
C            7.91051253051993       -1.34587920516347        0.13583014857152
C            8.60024626139038       -2.54085047111222        0.28767730078333
C            7.94967514680527       -3.75484387967324        0.40696124750661
C            6.56788123960473       -3.78786885257358        0.36006434342906
C            5.85751039041902       -2.61552488040944        0.21157164233539
C            6.51237402603065       -1.38410484305188        0.11397164913473
N            5.77073436996884       -0.22124907290674       -0.02378410367024
C            4.35320925056797       -0.30283863592884       -0.02580502402156
C            3.64817525596398       -0.19026012282233       -1.21861603975023
C            2.26906488423722       -0.25759630740210       -1.21687250766977
C            1.56701560699898       -0.45255257465643       -0.02888872488701
C            0.09998828059886       -0.52658449286773       -0.02839213516399
C           -0.56615457440254       -1.47930176400912        0.74148653389374
C           -1.94297351857799       -1.54407149545574        0.74567372779732
C           -2.69763349024631       -0.64446277127929       -0.00772022970291
C           -4.14649460424027       -0.75488863193937        0.03602648696542
N           -4.78027488178796       -1.89648235188792        0.07922595268367
C           -6.10567820778853       -1.59432927451234        0.08255672908533
C           -7.20525168932472       -2.49696914085303        0.07581658372290
C           -7.00592809286037       -3.88125657620860        0.05515520586866
C           -8.07988601372321       -4.73432290474157        0.00747090906646
C           -9.37023783476042       -4.20899753679830       -0.02500964030017
C           -9.57752336014430       -2.84971854975013        0.00203245738539
C           -8.50639307559721       -1.94492566431108        0.06198770076238
C           -8.69178620910385       -0.50590811775311        0.13292444086814
C           -9.96894673332613        0.06676454566423        0.21598083094399
C          -10.15457499315480        1.42350007492251        0.33622489290323
C           -9.05652497407429        2.27515545579660        0.40055890163736
C           -7.78866914815074        1.75581279502254        0.31295786748283
C           -7.57790144810534        0.37847234563330        0.15481338839406
C           -6.28719803335898       -0.21345842967363        0.05622352896704
N           -5.01573041972529        0.31985155401130        0.01627006173789
C           -4.62263765323452        1.66385101993287       -0.05872073429036
C           -5.01142188639865        2.44786890391693       -1.14508122970789
C           -4.58892634299888        3.75713438770805       -1.23541297842686
C           -3.76704018858162        4.29202827923594       -0.24092586187878
C           -3.33026862150575        5.63352120570076       -0.33555561939224
N           -2.97748759805506        6.72118818637085       -0.41420196213238
C           -3.37592554448408        3.50621645238456        0.84406793479010
C           -3.80309361317243        2.19767090170167        0.93329865966773
C           -2.03513728135786        0.29386618505311       -0.79719042186142
C           -0.65628267441373        0.34816389616149       -0.80549910896820
C            2.28361355943370       -0.57469276037477        1.16017942109329
C            3.66204041198049       -0.49375457544846        1.16512213383710
C            6.37297488109403        1.01993883004626       -0.16004474707054
C            5.58030202141696        2.16710433987330       -0.26234126915564
C            6.15048944134561        3.41385450173291       -0.40945712590619
C            7.52695504880405        3.54132548395699       -0.44984989843636
C            8.31332291452466        2.41109670935548       -0.32570272497977
C            7.76616644501798        1.14425072065647       -0.17553940256750
H           10.23428968086171       -0.67247986294416        1.38457515279483
H           10.13700288124250        1.07103969692622        1.15878527575529
H            8.91346345501254        0.23818987726283        2.11796721073844
H            8.96077699103927       -0.31131536061374       -2.15010033680335
H           10.16132561494632        0.74658514632707       -1.40770431439593
H           10.26626832430817       -0.99637493862874       -1.18202146510792
H            9.67952508862016       -2.53079334816462        0.31255072387546
H            8.51743459254798       -4.66495821056976        0.52666649973265
H            6.03896205195803       -4.72631740322285        0.43617497015278
H            4.77987045741866       -2.65128790576003        0.16475731466473
H            4.19021613191641       -0.04655744777239       -2.14168806975469
H            1.72904085579577       -0.18417226650613       -2.14919519262920
H            0.00548055408624       -2.18671063514649        1.32392599007201
H           -2.46035379082424       -2.28851178796210        1.33051909184029
H           -5.99035331203059       -4.24511064048108        0.06916243334795
H           -7.93167078612256       -5.80382876347905       -0.01107600767052
H          -10.21847903546676       -4.87654467936185       -0.07194802525484
H          -10.59371086603539       -2.49008144588750       -0.02860321109357
H          -10.84154476008243       -0.56570150146443        0.19788959421979
H          -11.15414648741347        1.82750076234060        0.39771007498251
H           -9.19876386763374        3.33840065187548        0.52466922012508
H           -6.94130717282250        2.41895691526631        0.38887110372876
H           -5.64391557354676        2.02035711542494       -1.90912825199176
H           -4.88457510364065        4.37083630279407       -2.07307998988005
H           -2.74244187407683        3.92817080640223        1.60958336422073
H           -3.50634541094649        1.57933349272536        1.76692886663198
H           -2.59392830976531        0.96939836502357       -1.42797564855177
H           -0.15746885306691        1.09041366379434       -1.41135834176011
H            1.75252630825331       -0.70853713673550        2.09103342475131
H            4.21444032448385       -0.57954694335377        2.08926914019809
H            4.50553706237818        2.07808174597574       -0.22075500876275
H            5.51652120893993        4.28440289174156       -0.48967383402741
H            7.98579092829820        4.51105179284536       -0.56834961868031
H            9.38657941482134        2.52632789923105       -0.34527201581764

          :  Hamiltonian                  GFN2-xTB          :
         :: gradient norm              0.000038539794 Eh/a0 ::
         :: HOMO-LUMO gap              1.425233339234 eV    ::
         :: SCC energy              -136.526239930748 Eh    ::
         :: -> dispersion             -0.124804249155 Eh    ::
         :: repulsion energy           2.522833579149 Eh    ::

    * Orbital Energies and Occupations

         #    Occupation            Energy/Eh            Energy/eV
      -------------------------------------------------------------
         1        2.0000           -0.6972939             -18.9743
       ...           ...                  ...                  ...
       113        2.0000           -0.4181163             -11.3775
       114        2.0000           -0.4134527             -11.2506
       115        2.0000           -0.4082487             -11.1090
       116        2.0000           -0.4047821             -11.0147
       117        2.0000           -0.4039001             -10.9907
       118        2.0000           -0.3997967             -10.8790
       119        2.0000           -0.3972121             -10.8087
       120        2.0000           -0.3944881             -10.7346
       121        2.0000           -0.3892323             -10.5916
       122        2.0000           -0.3869768             -10.5302
       123        2.0000           -0.3846839             -10.4678
       124        2.0000           -0.3702567             -10.0752
       125        2.0000           -0.3429516              -9.3322 (HOMO)
       126                         -0.2905752              -7.9070 (LUMO)
       127                         -0.2704748              -7.3600
       128                         -0.2622663              -7.1366
       129                         -0.2537377              -6.9046
       130                         -0.2520146              -6.8577
       131                         -0.2368777              -6.4458
       132                         -0.2358952              -6.4190
       133                         -0.2311228              -6.2892
       134                         -0.2206243              -6.0035
       135                         -0.2168586              -5.9010
       136                         -0.2156781              -5.8689
       ...                                ...                  ...
       246                          1.1614959              31.6059
      -------------------------------------------------------------
                  HL-Gap            0.0523764 Eh            1.4252 eV

     #   Z          covCN         q      C6AA      α(0)
     1   6 C        3.761    -0.103    22.505     6.763
     2   6 C        3.909     0.021    20.157     6.381
     3   6 C        3.761    -0.103    22.506     6.763
     4   6 C        2.979    -0.015    28.369     8.737
     5   6 C        2.928    -0.036    28.904     8.817
     6   6 C        2.917    -0.045    29.121     8.849
     7   6 C        2.920    -0.033    28.830     8.805
     8   6 C        2.924    -0.059    29.474     8.903
     9   6 C        2.928     0.058    26.697     8.474
    10   7 N        2.754    -0.071    22.624     7.064
    11   6 C        2.928     0.069    26.451     8.434
    12   6 C        2.920    -0.038    28.946     8.823
    13   6 C        2.924    -0.033    28.822     8.804
    14   6 C        2.977     0.009    27.818     8.652
    15   6 C        2.977     0.012    27.735     8.639
    16   6 C        2.923    -0.032    28.795     8.800
    17   6 C        2.926    -0.028    28.689     8.784
    18   6 C        2.974     0.000    28.016     8.682
    19   6 C        3.188     0.128    24.767     8.119
    20   7 N        1.895    -0.285    28.237     7.878
    21   6 C        3.207     0.058    26.112     8.321
    22   6 C        2.986     0.003    27.948     8.672
    23   6 C        2.922    -0.031    28.763     8.795
    24   6 C        2.917    -0.029    28.732     8.790
    25   6 C        2.917    -0.032    28.791     8.799
    26   6 C        2.922    -0.034    28.854     8.809
    27   6 C        2.979    -0.001    28.042     8.686
    28   6 C        2.980     0.003    27.956     8.673
    29   6 C        2.922    -0.033    28.821     8.804
    30   6 C        2.917    -0.032    28.802     8.801
    31   6 C        2.917    -0.031    28.775     8.797
    32   6 C        2.919    -0.040    28.993     8.830
    33   6 C        2.978    -0.002    28.077     8.692
    34   6 C        3.069     0.020    27.501     8.599
    35   7 N        2.841    -0.047    22.138     6.988
    36   6 C        2.912     0.077    26.271     8.405
    37   6 C        2.920    -0.034    28.853     8.809
    38   6 C        2.926    -0.019    28.484     8.752
    39   6 C        2.973     0.019    27.570     8.613
    40   6 C        1.912     0.112    28.328     8.596
    41   7 N        0.911    -0.224    25.903     7.361
    42   6 C        2.926    -0.018    28.449     8.747
    43   6 C        2.921    -0.036    28.885     8.814
    44   6 C        2.920    -0.034    28.854     8.809
    45   6 C        2.924    -0.034    28.843     8.807
    46   6 C        2.925    -0.033    28.832     8.806
    47   6 C        2.920    -0.038    28.950     8.823
    48   6 C        2.928     0.058    26.699     8.474
    49   6 C        2.924    -0.059    29.474     8.903
    50   6 C        2.920    -0.033    28.829     8.805
    51   6 C        2.917    -0.045    29.118     8.849
    52   6 C        2.928    -0.036    28.904     8.817
    53   6 C        2.979    -0.015    28.368     8.737
    54   1 H        0.925     0.039     2.467     2.456
    55   1 H        0.925     0.039     2.467     2.456
    56   1 H        0.925     0.031     2.576     2.510
    57   1 H        0.925     0.031     2.575     2.510
    58   1 H        0.925     0.039     2.466     2.456
    59   1 H        0.925     0.039     2.467     2.456
    60   1 H        0.926     0.029     2.601     2.522
    61   1 H        0.926     0.025     2.658     2.549
    62   1 H        0.926     0.026     2.643     2.543
    63   1 H        0.926     0.023     2.691     2.565
    64   1 H        0.926     0.042     2.417     2.431
    65   1 H        0.926     0.039     2.463     2.454
    66   1 H        0.926     0.040     2.444     2.444
    67   1 H        0.926     0.053     2.283     2.363
    68   1 H        0.926     0.052     2.301     2.372
    69   1 H        0.926     0.032     2.557     2.501
    70   1 H        0.926     0.030     2.586     2.515
    71   1 H        0.926     0.032     2.558     2.501
    72   1 H        0.926     0.036     2.498     2.472
    73   1 H        0.926     0.031     2.571     2.507
    74   1 H        0.926     0.029     2.602     2.523
    75   1 H        0.926     0.022     2.710     2.574
    76   1 H        0.926     0.051     2.301     2.372
    77   1 H        0.926     0.051     2.306     2.375
    78   1 H        0.926     0.051     2.310     2.377
    79   1 H        0.926     0.048     2.349     2.397
    80   1 H        0.926     0.024     2.668     2.554
    81   1 H        0.926     0.036     2.509     2.477
    82   1 H        0.926     0.039     2.467     2.456
    83   1 H        0.926     0.042     2.419     2.432
    84   1 H        0.926     0.022     2.698     2.569
    85   1 H        0.926     0.026     2.640     2.541
    86   1 H        0.926     0.025     2.653     2.547
    87   1 H        0.926     0.029     2.599     2.521

molecular dipole:
                 x           y           z       tot (Debye)
 q only:       -0.260      -0.510       0.106
   full:       -0.591      -0.513       0.111       2.009

 projected vibrational frequencies (cm⁻¹)
eigval :       -0.00    -0.00     0.00     0.00     0.00     0.00
eigval :        6.59     8.26    13.14    19.40    21.59    24.26
eigval :       36.52    39.89    45.43    54.70    68.35    72.91
eigval :       82.60    85.96    89.42    97.64   101.18   103.70
eigval :      121.18   123.23   128.85   139.82   166.30   176.77
eigval :      190.17   201.70   203.28   210.48   220.68   232.86
eigval :      238.36   244.80   261.36   267.54   276.54   305.16
eigval :      317.67   331.28   340.73   344.12   350.19   370.88
eigval :      372.84   378.48   379.72   382.90   397.22   399.31
eigval :      405.15   419.80   422.64   426.08   432.19   438.83
eigval :      451.88   466.40   469.28   490.01   505.73   514.25
eigval :      515.57   519.65   532.42   535.08   539.36   546.12
eigval :      547.45   558.44   579.19   583.01   586.20   595.52
eigval :      602.80   610.26   614.31   629.49   642.51   651.57
eigval :      663.58   671.16   673.41   682.24   682.67   690.04
eigval :      693.50   694.14   705.97   713.41   731.44   735.09
eigval :      764.46   766.99   776.64   777.95   782.82   784.76
eigval :      804.99   810.97   824.43   825.77   833.50   862.46
eigval :      865.73   866.30   868.48   869.84   875.49   876.69
eigval :      907.72   912.60   912.98   913.72   914.47   915.35
eigval :      915.75   918.66   920.87   921.03   922.86   923.96
eigval :      926.59   927.12   927.97   932.03   938.67   939.16
eigval :      957.01   960.80   993.40  1010.47  1014.35  1017.30
eigval :     1031.19  1068.29  1077.39  1079.72  1085.75  1086.67
eigval :     1108.52  1113.97  1119.96  1127.84  1131.23  1132.56
eigval :     1141.12  1141.84  1151.75  1160.42  1171.97  1173.00
eigval :     1180.72  1182.95  1185.43  1185.86  1187.49  1188.20
eigval :     1200.50  1205.96  1209.23  1230.74  1244.81  1250.31
eigval :     1254.31  1257.97  1260.16  1264.50  1269.25  1270.93
eigval :     1283.55  1284.65  1295.13  1306.54  1307.39  1311.48
eigval :     1318.93  1325.27  1326.38  1332.52  1337.54  1339.24
eigval :     1344.44  1347.23  1375.45  1392.23  1400.83  1402.77
eigval :     1407.76  1410.30  1419.74  1420.82  1430.24  1435.87
eigval :     1437.07  1444.43  1463.24  1481.33  1483.23  1490.32
eigval :     1491.18  1493.26  1500.58  1501.37  1505.63  1513.93
eigval :     1517.87  1544.44  1551.14  1556.26  1562.86  1566.48
eigval :     1571.72  1575.71  1585.32  1589.31  1591.90  1593.52
eigval :     1594.73  1601.00  1603.82  1605.10  2376.30  3026.03
eigval :     3028.25  3038.91  3041.66  3047.84  3051.75  3074.33
eigval :     3077.08  3077.38  3077.85  3078.41  3080.46  3081.93
eigval :     3082.06  3082.68  3084.91  3085.70  3088.30  3089.48
eigval :     3090.63  3092.69  3092.83  3093.09  3093.31  3094.08
eigval :     3098.70  3099.20  3100.03  3100.45  3103.10  3105.23
eigval :     3105.78  3109.13  3112.60

   temp. (K)  partition function   enthalpy   heat capacity  entropy
                                   cal/mol     cal/K/mol   cal/K/mol   J/K/mol
 298.15  VIB  0.201E+21            25242.691    158.321    158.224
         ROT  0.151E+09              888.752      2.981     40.407
         INT  0.303E+29            26131.443    161.302    198.631
         TR   0.171E+29             1481.254      4.968     45.406
         TOT                       27612.6973   166.2703   244.0375  1021.0529

       T/K    H(0)-H(T)+PV         H(T)/Eh          T*S/Eh         G(T)/Eh
   ------------------------------------------------------------------------
    298.15    0.440036E-01    0.717122E+00    0.115950E+00    0.601172E+00
   ------------------------------------------------------------------------

         :::::::::::::::::::::::::::::::::::::::::::::::::::::
         ::                  THERMODYNAMIC                  ::
         :::::::::::::::::::::::::::::::::::::::::::::::::::::
         :: total free energy        -133.402234643828 Eh   ::
         ::.................................................::
         :: total energy             -134.003406351598 Eh   ::
         :: zero point energy           0.673118163191 Eh   ::
         :: G(RRHO) w/o ZPVE           -0.071946455421 Eh   ::
         :: G(RRHO) contrib.            0.601171707770 Eh   ::
         :::::::::::::::::::::::::::::::::::::::::::::::::::::

           -------------------------------------------------
          | TOTAL ENERGY             -134.003406351598 Eh   |
          | TOTAL ENTHALPY           -133.286284554231 Eh   |
          | TOTAL FREE ENERGY        -133.402234643828 Eh   |
          | GRADIENT NORM               0.000038540290 Eh/α |
          | HOMO-LUMO GAP               1.425233595143 eV   |
           -------------------------------------------------

 * finished run on 2025/08/22 at 09:07:00.912
