   * xtb version 6.7.1 (edcfbbe) compiled by 'albert@albert-system' on 2024-07-22

   ID    Z sym.   atoms
    1    6 C      1-9, 11-19, 21-34, 36-40, 42-53
    2    7 N      10, 20, 35, 41
    3    1 H      54-87

          program call               : xtb data2507/gas/DPCN/DPCN_gas_T1_crest.xyz --gfn 2 --spinpol --tblite --uhf 2 --ohess vtight --parallel 40 --molden --ceasefiles --namespace data2507/gas/DPCN/DPCN_gas_T1_finalOpt
 * total energy  :  -133.9250879 Eh     change       -0.1818194E-08 Eh
 * total energy  :  -133.9250943 Eh     change       -0.6362600E-05 Eh
 * total energy  :  -133.9250946 Eh     change       -0.3952744E-06 Eh
 * total energy  :  -133.9250977 Eh     change       -0.3073605E-05 Eh
 * total energy  :  -133.9250990 Eh     change       -0.1317103E-05 Eh
 * total energy  :  -133.9250999 Eh     change       -0.8526663E-06 Eh
 * total energy  :  -133.9251016 Eh     change       -0.1729812E-05 Eh
 * total energy  :  -133.9251032 Eh     change       -0.1600204E-05 Eh
 * total energy  :  -133.9251045 Eh     change       -0.1265014E-05 Eh
 * total energy  :  -133.9251058 Eh     change       -0.1331318E-05 Eh
 * total energy  :  -133.9251182 Eh     change        0.6668586E-07 Eh
 * total energy  :  -133.9251184 Eh     change       -0.1798873E-06 Eh
 * total energy  :  -133.9251185 Eh     change       -0.1643249E-06 Eh
 * total energy  :  -133.9251185 Eh     change        0.1010301E-07 Eh
 * total energy  :  -133.9251187 Eh     change       -0.1709269E-06 Eh
 * total energy  :  -133.9251189 Eh     change       -0.2407700E-06 Eh
 * total energy  :  -133.9251189 Eh     change        0.7635370E-07 Eh
 * total energy  :  -133.9251191 Eh     change       -0.2341366E-06 Eh
 * total energy  :  -133.9251192 Eh     change       -0.6887012E-07 Eh
   *** GEOMETRY OPTIMIZATION CONVERGED AFTER 36 ITERATIONS ***

 final structure:
================
87
 xtb: 6.7.1 (edcfbbe)
C           10.22082614328430       -1.11633310825930        0.81347517198492
C            9.28416472630654       -0.17774131055829        0.02990058314901
C           10.10633710486067        0.84158965967013       -0.78087796360759
C            8.45792984791750       -1.00249268829708       -0.93495811911804
C            9.09846690024802       -1.75029472339983       -1.91375999816594
C            8.39784030893832       -2.48638648788953       -2.85059766240435
C            7.01345577479464       -2.45999618011937       -2.83524263522283
C            6.35165031935253       -1.72770907520669       -1.87474334536526
C            7.05720212535313       -1.01493016574602       -0.89667772730003
N            6.36406363286438       -0.30380757656285        0.06854060249804
C            4.94853123275318       -0.35567418687530        0.08199975975482
C            4.19691414587884        0.78003291721331       -0.22568644730793
C            2.82469567519395        0.72946110520690       -0.21370423529918
C            2.13345609387768       -0.45566626165653        0.11111930823697
C            0.69567417600564       -0.50195699817149        0.12461799276189
C           -0.01738392324352       -1.71106764280312       -0.07646380152788
C           -1.37663118624266       -1.74264840219287       -0.09541326974113
C           -2.15391978999385       -0.55930819278027        0.07681432936187
C           -3.55086703152290       -0.68776791118178        0.02130143619096
N           -4.15595951201233       -1.88292295812752        0.14731053068470
C           -5.45864614425192       -1.64816266015058        0.20260638127691
C           -6.50232183841367       -2.59579956101555        0.41557938780027
C           -6.20775915011782       -3.94212573655463        0.64282128350623
C           -7.21806761203467       -4.84165255827587        0.89794386008811
C           -8.53270066965715       -4.39226710332946        0.93734074876883
C           -8.83373328107753       -3.06540492909431        0.70594086626756
C           -7.83470882183471       -2.12529880150631        0.42524218183894
C           -8.12051146641641       -0.73037690845062        0.12424899468345
C           -9.43154966518945       -0.26828718368926       -0.00111808968312
C           -9.72391016746992        1.03631915366995       -0.34148731136411
C           -8.69146668241066        1.93479541727063       -0.60009317596462
C           -7.38840058954279        1.52838608353501       -0.47888949650807
C           -7.06147668608960        0.21038962548775       -0.09248416180048
C           -5.74001461911073       -0.25896563080095        0.04412736763610
N           -4.50859724868403        0.34400784113550       -0.06879050668110
C           -4.22065316132858        1.69016198027864       -0.29086809721859
C           -3.43877453014528        2.06205192960569       -1.39282362792572
C           -3.13252199092625        3.38403597388684       -1.60839491726775
C           -3.59280990358267        4.36724867409494       -0.72097592481879
C           -3.27142722169661        5.71925443856546       -0.93477501763491
N           -3.00735950492267        6.82456279396638       -1.10851905673897
C           -4.37190120430702        3.99458519088177        0.38440446460335
C           -4.68413601781284        2.67269761834543        0.59421833043666
C           -1.44022318455258        0.64061217598786        0.34977823621790
C           -0.07783915226827        0.65968534339671        0.36284657572400
C            2.91309052408292       -1.58887904658363        0.41926953319927
C            4.28559585590251       -1.54167516611519        0.40350914837504
C            7.01909608761252        0.46212109374376        1.01848889017722
C            6.28067199130511        1.10948504875346        2.01756080949155
C            6.90197808369173        1.89431546022741        2.96348273677774
C            8.27884076295476        2.04033785474025        2.94243763516804
C            9.01542400032450        1.36912846313190        1.98468354653861
C            8.41614895025354        0.56988972619636        1.02049413660843
H           10.86899179516069       -1.66846969100752        0.13898853436313
H           10.84597254653803       -0.55468485511301        1.50163843431022
H            9.63369895923811       -1.83051774573978        1.38778116999446
H           10.72120000086816        1.45193304146323       -0.12560697398972
H           10.75891243812411        0.33852339699205       -1.48868025738152
H            9.43888302138162        1.49807704822410       -1.33595285412434
H           10.17695752201107       -1.75920430626932       -1.95333345914734
H            8.92753899586848       -3.06093941600904       -3.59469149164392
H            6.44733082692033       -3.00484405842742       -3.57533765426659
H            5.27384842548650       -1.69553668843331       -1.88322270244275
H            4.70903102816526        1.69394669116365       -0.49056537249505
H            2.26803670850394        1.60845431981679       -0.49866803601395
H            0.53127281227061       -2.62206496146733       -0.26182983283172
H           -1.91108149955946       -2.66255837827097       -0.27027697400360
H           -5.17199709222569       -4.24275322563037        0.61934602690961
H           -6.99453551019343       -5.88312896096416        1.07391369769374
H           -9.33155536078241       -5.08777945461401        1.15062360283903
H           -9.86855598001386       -2.76574770756641        0.75242508157217
H          -10.25583867571663       -0.94508558646150        0.15644214914302
H          -10.75222214245412        1.35389152638773       -0.42609467860294
H           -8.91580746203739        2.94722672721765       -0.90116349943206
H           -6.59751358276328        2.22263881634388       -0.70915650894768
H           -3.08539232351695        1.29840871232212       -2.06939166669978
H           -2.54026367840341        3.67597268535757       -2.46280999901167
H           -4.71547632996958        4.75335146458580        1.07176395437881
H           -5.27592905687028        2.37718251182713        1.44835029039628
H           -1.97739659868578        1.53824428387246        0.60989547692056
H            0.42432712929468        1.58222808026310        0.61390371860115
H            2.42656113995824       -2.50518588970625        0.71438602964286
H            4.86660569480072       -2.41667775276459        0.65758203022890
H            5.21016929299350        0.98485224493500        2.05363369897362
H            6.31071036378326        2.38703620002791        3.72023091180930
H            8.77635506149695        2.65781635217489        3.67423957501282
H           10.08969423303682        1.47220987787012        1.99518138770690

 projected vibrational frequencies (cm⁻¹)
eigval :       -0.00    -0.00     0.00     0.00     0.00     0.00
eigval :        8.26     8.66    12.91    18.00    20.00    29.69
eigval :       36.35    48.27    52.08    56.63    64.61    70.33
eigval :       84.10    90.48    93.08   102.76   109.49   113.51
eigval :      121.63   126.78   127.70   140.01   173.22   180.83
eigval :      189.86   200.68   203.53   210.22   219.73   221.31
eigval :      237.89   259.59   260.47   264.36   275.74   303.26
eigval :      317.01   329.62   331.57   341.84   346.85   371.81
eigval :      373.67   377.93   380.54   382.47   390.58   392.23
eigval :      400.98   410.00   415.28   416.55   426.09   439.12
eigval :      441.25   453.17   460.43   474.24   496.28   504.75
eigval :      509.33   513.62   514.73   526.49   529.85   535.62
eigval :      545.28   557.48   574.86   579.50   582.66   590.59
eigval :      592.97   601.54   610.54   617.80   624.36   641.57
eigval :      656.11   660.03   665.83   667.17   671.18   677.75
eigval :      686.13   689.41   698.61   702.93   726.18   729.00
eigval :      755.63   758.35   775.06   776.13   776.83   777.58
eigval :      796.09   800.25   814.27   815.57   823.15   826.95
eigval :      847.82   850.63   859.99   868.13   870.48   871.30
eigval :      898.56   905.50   906.96   908.73   911.96   913.22
eigval :      914.13   914.44   915.48   916.05   916.84   920.08
eigval :      922.57   923.11   923.21   923.51   924.01   937.88
eigval :      942.01   957.58   962.17   996.53   997.67  1008.17
eigval :     1013.57  1043.92  1054.20  1076.29  1082.66  1085.31
eigval :     1093.71  1105.08  1112.28  1117.53  1129.77  1133.02
eigval :     1137.25  1139.97  1150.08  1155.34  1157.62  1166.77
eigval :     1173.46  1180.15  1181.55  1184.19  1185.54  1186.20
eigval :     1194.99  1199.52  1210.37  1230.41  1237.77  1242.70
eigval :     1246.72  1248.68  1251.36  1259.73  1262.01  1263.11
eigval :     1272.75  1281.19  1286.56  1294.73  1305.66  1309.46
eigval :     1315.45  1317.75  1328.17  1330.01  1330.17  1334.58
eigval :     1334.93  1336.99  1361.08  1390.35  1396.86  1402.48
eigval :     1405.36  1411.25  1415.63  1419.93  1422.66  1425.77
eigval :     1431.06  1432.23  1440.59  1451.03  1458.24  1462.61
eigval :     1471.83  1474.04  1478.95  1484.90  1487.25  1488.10
eigval :     1493.17  1497.93  1499.42  1502.15  1515.61  1537.20
eigval :     1545.00  1553.39  1563.45  1565.28  1576.14  1579.81
eigval :     1581.79  1584.20  1588.67  1595.61  2335.99  3028.48
eigval :     3030.07  3042.99  3045.45  3051.19  3054.97  3075.08
eigval :     3077.25  3078.55  3080.63  3081.06  3082.13  3084.08
eigval :     3084.34  3084.87  3085.98  3088.14  3089.16  3089.37
eigval :     3090.63  3094.37  3096.94  3098.88  3099.57  3100.05
eigval :     3100.49  3102.09  3107.50  3109.70  3109.90  3110.72
eigval :     3111.75  3112.19  3125.67

   temp. (K)  partition function   enthalpy   heat capacity  entropy
                                   cal/mol     cal/K/mol   cal/K/mol   J/K/mol
 298.15  VIB  0.106E+21            25401.929    160.388    158.499
         ROT  0.156E+09              888.752      2.981     40.473
         INT  0.165E+29            26290.681    163.369    198.972
         TR   0.171E+29             1481.254      4.968     45.406
         TOT                       27771.9351   168.3374   244.3783  1022.4787

       T/K    H(0)-H(T)+PV         H(T)/Eh          T*S/Eh         G(T)/Eh
   ------------------------------------------------------------------------
    298.15    0.442574E-01    0.713621E+00    0.116112E+00    0.597509E+00
   ------------------------------------------------------------------------

         :::::::::::::::::::::::::::::::::::::::::::::::::::::
         ::                  THERMODYNAMIC                  ::
         :::::::::::::::::::::::::::::::::::::::::::::::::::::
         :: total free energy        -133.327610695195 Eh   ::
         ::.................................................::
         :: total energy             -133.925119219057 Eh   ::
         :: zero point energy           0.669363127526 Eh   ::
         :: G(RRHO) w/o ZPVE           -0.071854603664 Eh   ::
         :: G(RRHO) contrib.            0.597508523862 Eh   ::
         :::::::::::::::::::::::::::::::::::::::::::::::::::::

           -------------------------------------------------
          | TOTAL ENERGY             -133.925119219057 Eh   |
          | TOTAL ENTHALPY           -133.211498695825 Eh   |
          | TOTAL FREE ENERGY        -133.327610695195 Eh   |
          | GRADIENT NORM               0.000104939852 Eh/α |
           -------------------------------------------------

 * finished run on 2025/08/22 at 09:18:10.209
