   * xtb version 6.7.1 (edcfbbe) compiled by 'albert@albert-system' on 2024-07-22

   ID    Z sym.   atoms
    1    6 C      1-9, 11-19, 21-34, 36-40, 42-53
    2    7 N      10, 20, 35, 41
    3    1 H      54-87

          program call               : xtb data2507/gas/DPCN/DPCN_gas_S0_finalOpt.xtbopt.xyz --gfn 2 --spinpol --tblite --uhf 2 --ohess vtight --parallel 40 --molden --ceasefiles --namespace data2507/gas/DPCN/DPCN_gas_T1_preOpt
 * total energy  :  -133.9150418 Eh     change       -0.3651166E-07 Eh
 * total energy  :  -133.9198460 Eh     change       -0.4804181E-02 Eh
 * total energy  :  -133.9221581 Eh     change       -0.2312125E-02 Eh
 * total energy  :  -133.9228327 Eh     change       -0.6746116E-03 Eh
 * total energy  :  -133.9235590 Eh     change       -0.7262808E-03 Eh
 * total energy  :  -133.9239090 Eh     change       -0.3500289E-03 Eh
 * total energy  :  -133.9242405 Eh     change       -0.3314016E-03 Eh
 * total energy  :  -133.9244079 Eh     change       -0.1674520E-03 Eh
 * total energy  :  -133.9245955 Eh     change       -0.1875973E-03 Eh
 * total energy  :  -133.9246739 Eh     change       -0.7844011E-04 Eh
 * total energy  :  -133.9251104 Eh     change       -0.2940545E-06 Eh
 * total energy  :  -133.9251107 Eh     change       -0.3123884E-06 Eh
 * total energy  :  -133.9251109 Eh     change       -0.2084355E-06 Eh
 * total energy  :  -133.9251110 Eh     change       -0.1616600E-06 Eh
 * total energy  :  -133.9251112 Eh     change       -0.1525934E-06 Eh
 * total energy  :  -133.9251113 Eh     change       -0.1373182E-06 Eh
 * total energy  :  -133.9251116 Eh     change       -0.2540276E-06 Eh
 * total energy  :  -133.9251118 Eh     change       -0.1950885E-06 Eh
 * total energy  :  -133.9251119 Eh     change       -0.8596336E-07 Eh
   *** GEOMETRY OPTIMIZATION CONVERGED AFTER 94 ITERATIONS ***

 final structure:
================
87
 xtb: 6.7.1 (edcfbbe)
C           10.19928475484396       -1.28460041796173        0.74181829395027
C            9.27428995173095       -0.29071747062678        0.01461241514521
C           10.10916000748268        0.75376806395783       -0.74985888203168
C            8.42637511326410       -1.05080970990126       -0.98400089675970
C            9.04579691008602       -1.75825708148801       -2.00544359772491
C            8.32477841265405       -2.43470416331182       -2.97136722307463
C            6.94115589111871       -2.38829921990662       -2.94053916020834
C            6.29999748949562       -1.69517644703967       -1.93792308854507
C            7.02603309113394       -1.04250797097262       -0.93325186630133
N            6.35317044745525       -0.36830468123170        0.07170432293192
C            4.93684073666504       -0.39945668319004        0.09490420600991
C            4.19954376006946        0.75663972261223       -0.16746623357797
C            2.82674570775608        0.72335751471701       -0.15370680615915
C            2.12022775672251       -0.46349693533389        0.13036148868436
C            0.68204212632025       -0.49401324561246        0.13919873607441
C           -0.04306596908917       -1.69160534361274       -0.08793926209903
C           -1.40239237307617       -1.70899862855055       -0.11347151472887
C           -2.16816940655371       -0.52071345213287        0.07363857882728
C           -3.56609836127334       -0.63330820817700        0.00654792049148
N           -4.18543528673920       -1.82234293656885        0.11803061577264
C           -5.48592945694911       -1.57313269602359        0.16372230635002
C           -6.54201844290146       -2.51000158929328        0.36232324583291
C           -6.26469158453204       -3.86070028540390        0.58532766659264
C           -7.28727422487417       -4.74973584197946        0.82797776145562
C           -8.59695689716308       -4.28546542162591        0.85907188363271
C           -8.88095085703631       -2.95417581756258        0.63151061233398
C           -7.86899524315841       -2.02435806353136        0.36327382389509
C           -8.13629006786283       -0.62494105454293        0.06609880161244
C           -9.44077169443193       -0.14787511389367       -0.07093377738467
C           -9.71506574056963        1.16134227445034       -0.40865233784319
C           -8.67012310253271        2.04940087409574       -0.65256026146239
C           -7.37294779135574        1.62812627055845       -0.51928689865083
C           -7.06479908116562        0.30499391881946       -0.13517809707760
C           -5.75006408907598       -0.17980679391126        0.01236169299626
N           -4.51089014477436        0.40996614445542       -0.08399367754764
C           -4.20473111125785        1.75392786533265       -0.29416554718560
C           -3.40387242583957        2.12309722379929       -1.38330672624249
C           -3.08059073756519        3.44278820939332       -1.58763466127722
C           -3.54235035459379        4.42629191017048       -0.70130695428305
C           -3.20441650670978        5.77594888887324       -0.90409331840166
N           -2.92696556573791        6.87936997166880       -1.06885390906644
C           -4.33997923285032        4.05622955124747        0.39164088975072
C           -4.66913940474747        2.73670749502298        0.59014826197094
C           -1.44382706113258        0.66667513947955        0.37163490251516
C           -0.08143370526877        0.67085759556944        0.39511631985170
C            2.88649351250821       -1.61609922144403        0.39900281555695
C            4.25935012408847       -1.58680754688408        0.37826080320866
C            7.02825595777838        0.33965102772250        1.05160572959824
C            6.30792796577822        0.95257342450848        2.08496840123304
C            6.94984170827007        1.67808936654479        3.06390269171077
C            8.32927968257973        1.79748102108901        3.04140645342987
C            9.04728598646975        1.16050775296125        2.04681296379479
C            8.42708908193139        0.42142306340488        1.04851619878446
H           10.83228281874231       -1.81308780546703        0.03474927041669
H           10.83958306139315       -0.77005564367774        1.45251835997457
H            9.60342084358165       -2.01658648626901        1.28379510311882
H           10.73989486180024        1.31862705882038       -0.06936500629103
H           10.74722357428177        0.27592684139648       -1.48772260567581
H            9.44985929491818        1.44968719708726       -1.26521396083745
H           10.12360069764638       -1.78250087638136       -2.05589579194032
H            8.83832649728138       -2.97878467438895       -3.74893578312322
H            6.35964964623862       -2.88678420356823       -3.70110343507914
H            5.22276702715165       -1.64667819416275       -1.93310676117195
H            4.72290523487000        1.67286749824633       -0.40044091370270
H            2.28183890268493        1.61949640392075       -0.40584933738254
H            0.49612031062206       -2.60513589598988       -0.28750609221266
H           -1.94519747111135       -2.62031594008992       -0.30673202871846
H           -5.23224961281549       -4.17300470282900        0.56899230443885
H           -7.07709647631884       -5.79450419195274        1.00087136323777
H           -9.40536939227953       -4.97273272823019        1.06284927105923
H           -9.91259110062716       -2.64278924509854        0.67131738047780
H          -10.27404591153831       -0.81629129506225        0.07473870470702
H          -10.73885286944705        1.49063806144913       -0.50278414657474
H           -8.88011863028803        3.06541197548075       -0.95191206904544
H           -6.57197009289069        2.31436600100757       -0.73852846338942
H           -3.04990269186986        1.35935624726602       -2.05944862219043
H           -2.47384811989570        3.73278072663810       -2.43249243330208
H           -4.68460156887847        4.81504905237473        1.07841247203188
H           -5.27541264628757        2.44316190904831        1.43474988058129
H           -1.97375121620925        1.56536568271592        0.64323055178507
H            0.42782932504100        1.58354325159420        0.66679202483634
H            2.38978732390149       -2.53569834791270        0.66522604655032
H            4.82962527687872       -2.47799890974267        0.59807619312336
H            5.23526815777952        0.84764266651007        2.12080740406713
H            6.37268952275006        2.14521636594929        3.84731079572799
H            8.84295234058560        2.36812855336322        3.79959073581722
H           10.12339256037367        1.24253223926526        2.05516910891467

 projected vibrational frequencies (cm⁻¹)
eigval :       -0.00    -0.00     0.00     0.00     0.00     0.00
eigval :        8.10     8.77    12.91    18.08    19.93    30.33
eigval :       36.06    48.48    52.53    56.42    65.54    70.41
eigval :       84.08    90.57    93.26   102.20   109.28   113.35
eigval :      121.72   126.86   127.65   139.71   172.85   180.61
eigval :      189.90   200.66   203.58   210.37   219.59   221.25
eigval :      237.71   259.68   260.43   264.43   276.01   303.20
eigval :      317.12   329.43   331.61   341.79   346.60   371.51
eigval :      373.59   377.86   380.26   381.89   390.18   392.38
eigval :      400.94   409.96   415.28   416.69   426.16   439.49
eigval :      441.34   452.81   459.78   474.37   496.28   504.45
eigval :      509.32   513.43   514.44   526.49   529.91   535.71
eigval :      545.20   557.47   574.83   579.33   582.60   590.48
eigval :      592.80   601.73   610.61   617.88   624.27   641.56
eigval :      656.05   660.09   665.80   667.24   671.23   677.68
eigval :      686.09   689.34   698.57   702.99   726.42   729.01
eigval :      755.60   758.49   775.14   776.00   777.06   777.49
eigval :      795.85   800.17   814.06   815.21   822.56   826.83
eigval :      846.25   850.64   859.93   868.17   870.25   871.01
eigval :      898.59   905.59   906.61   908.53   911.64   913.20
eigval :      914.16   914.29   915.42   916.06   916.54   919.61
eigval :      922.62   922.95   923.23   923.43   923.93   937.89
eigval :      942.29   957.43   962.39   996.51   997.73  1008.30
eigval :     1013.42  1043.31  1054.34  1076.23  1082.88  1085.41
eigval :     1094.00  1105.00  1112.18  1117.45  1129.83  1132.94
eigval :     1136.97  1139.94  1150.74  1155.28  1157.67  1166.66
eigval :     1173.50  1180.10  1181.42  1184.16  1185.27  1185.96
eigval :     1195.51  1199.52  1210.58  1230.94  1237.94  1242.72
eigval :     1246.59  1248.60  1251.36  1259.81  1261.95  1263.00
eigval :     1273.55  1280.92  1286.50  1294.62  1305.76  1309.73
eigval :     1315.50  1317.86  1328.05  1330.16  1330.18  1334.58
eigval :     1334.91  1336.81  1361.19  1390.43  1396.97  1402.02
eigval :     1405.23  1411.19  1415.59  1419.08  1422.64  1425.66
eigval :     1430.96  1432.20  1440.45  1450.78  1458.16  1462.55
eigval :     1471.90  1474.08  1479.01  1484.91  1486.92  1487.87
eigval :     1493.32  1497.66  1499.21  1501.81  1515.74  1536.85
eigval :     1544.98  1553.21  1563.38  1565.39  1576.13  1579.90
eigval :     1581.84  1584.13  1588.96  1595.69  2335.89  3028.33
eigval :     3029.89  3042.92  3045.36  3050.79  3054.64  3075.01
eigval :     3077.36  3078.67  3080.62  3081.50  3082.40  3083.93
eigval :     3084.17  3085.69  3086.25  3088.10  3089.07  3089.27
eigval :     3090.61  3094.47  3097.06  3098.78  3099.33  3099.86
eigval :     3100.94  3102.67  3107.35  3109.41  3109.77  3110.07
eigval :     3110.65  3111.55  3125.28

   temp. (K)  partition function   enthalpy   heat capacity  entropy
                                   cal/mol     cal/K/mol   cal/K/mol   J/K/mol
 298.15  VIB  0.104E+21            25403.613    160.426    158.514
         ROT  0.156E+09              888.752      2.981     40.473
         INT  0.162E+29            26292.365    163.407    198.987
         TR   0.171E+29             1481.254      4.968     45.406
         TOT                       27773.6190   168.3751   244.3935  1022.5425

       T/K    H(0)-H(T)+PV         H(T)/Eh          T*S/Eh         G(T)/Eh
   ------------------------------------------------------------------------
    298.15    0.442601E-01    0.713596E+00    0.116119E+00    0.597477E+00
   ------------------------------------------------------------------------

         :::::::::::::::::::::::::::::::::::::::::::::::::::::
         ::                  THERMODYNAMIC                  ::
         :::::::::::::::::::::::::::::::::::::::::::::::::::::
         :: total free energy        -133.327635309652 Eh   ::
         ::.................................................::
         :: total energy             -133.925111872310 Eh   ::
         :: zero point energy           0.669335733052 Eh   ::
         :: G(RRHO) w/o ZPVE           -0.071859170394 Eh   ::
         :: G(RRHO) contrib.            0.597476562658 Eh   ::
         :::::::::::::::::::::::::::::::::::::::::::::::::::::

           -------------------------------------------------
          | TOTAL ENERGY             -133.925111872310 Eh   |
          | TOTAL ENTHALPY           -133.211516060156 Eh   |
          | TOTAL FREE ENERGY        -133.327635309652 Eh   |
          | GRADIENT NORM               0.000074843122 Eh/α |
           -------------------------------------------------

 * finished run on 2025/08/22 at 09:12:02.849
