   * xtb version 6.7.1 (edcfbbe) compiled by 'albert@albert-system' on 2024-07-22

   ID    Z sym.   atoms
    1    6 C      1-9, 11-18, 20-37, 39-44, 46-54
    2    7 N      10, 19, 38, 45
    3    1 H      55-92

          program call               : xtb data2507/gas/AcDbp/AcDbp_gas_S0_finalOpt.xtbopt.xyz --gfn 2 --spinpol --tblite --uhf 2 --ohess vtight --parallel 40 --molden --ceasefiles --namespace data2507/gas/AcDbp/AcDbp_gas_T1_preOpt
 * total energy  :  -138.2028705 Eh     change       -0.6881825E-07 Eh
 * total energy  :  -138.2058241 Eh     change       -0.2953684E-02 Eh
 * total energy  :  -138.2067121 Eh     change       -0.8879280E-03 Eh
 * total energy  :  -138.2068270 Eh     change       -0.1149304E-03 Eh
 * total energy  :  -138.2068735 Eh     change       -0.4649306E-04 Eh
 * total energy  :  -138.2068798 Eh     change       -0.6286004E-05 Eh
 * total energy  :  -138.2068872 Eh     change       -0.7442833E-05 Eh
 * total energy  :  -138.2068961 Eh     change       -0.8916910E-05 Eh
 * total energy  :  -138.2069037 Eh     change       -0.7562654E-05 Eh
 * total energy  :  -138.2069091 Eh     change       -0.5374639E-05 Eh
 * total energy  :  -138.2071113 Eh     change       -0.8051349E-06 Eh
 * total energy  :  -138.2071122 Eh     change       -0.9047027E-06 Eh
 * total energy  :  -138.2071131 Eh     change       -0.9083666E-06 Eh
 * total energy  :  -138.2071138 Eh     change       -0.6955445E-06 Eh
 * total energy  :  -138.2071143 Eh     change       -0.4542005E-06 Eh
 * total energy  :  -138.2071147 Eh     change       -0.4041363E-06 Eh
 * total energy  :  -138.2071146 Eh     change        0.5589553E-07 Eh
 * total energy  :  -138.2071146 Eh     change        0.2287496E-07 Eh
 * total energy  :  -138.2071147 Eh     change       -0.6620309E-07 Eh
   *** GEOMETRY OPTIMIZATION CONVERGED AFTER 70 ITERATIONS ***

 final structure:
================
92
 xtb: 6.7.1 (edcfbbe)
C           -8.75818798843792       -1.83728411122278        1.04611316053331
C           -7.87298515093688       -0.78113020144643        0.35893430757949
C           -8.74883375428104        0.27896091407908       -0.33401413266488
C           -7.02262806276791       -1.46810942954455       -0.69174046295415
C           -7.63711402393326       -2.14395349397360       -1.73669962876207
C           -6.91108365122333       -2.78041241858422       -2.72645755312381
C           -5.52829262037663       -2.74135877231080       -2.68466894269016
C           -4.89126503695360       -2.07809188133266       -1.65835502693734
C           -5.62351367174889       -1.44225682587813       -0.64985819733692
N           -4.95537112502008       -0.79339035166311        0.37208224718556
C           -3.53242165458725       -0.81258997031179        0.38462035459499
C           -2.85550385122227       -1.91158868701098        0.92944692025471
C           -1.48389280807533       -1.93477174868294        0.94481596852737
C           -0.71991366096797       -0.87600099384422        0.42776758459213
C            0.72099753083167       -0.87323811895629        0.43208582330696
C            1.48583609977876       -1.92889813692248        0.95419616023927
C            2.85740504091715       -1.90140149434641        0.94523292239957
C            3.53347357482844       -0.80102983259458        0.40210039836076
N            4.95641721418707       -0.78012104009240        0.39193907269804
C            5.62657095374554       -0.11757834227237        1.40410924830093
C            4.89738708238592        0.51739802369400        2.41521942162112
C            5.53730762622690        1.18495738108602        3.43693408837169
C            6.92015300508550        1.22912292621807        3.47158362567294
C            7.64326654818178        0.59499568068425        2.47829911553761
C            7.02582437246738       -0.08465650469415        1.43746844610811
C            7.87407220597230       -0.77117805634966        0.38467302766601
C            8.75383660170393        0.28607306333054       -0.30766866219937
C            8.75538191495907       -1.82802291381338        1.07579370586598
C            7.02510188141214       -1.45823023717355       -0.66706210362157
C            7.64097100668632       -2.13599467118950       -1.70996608971334
C            6.91629375459460       -2.77276851977259       -2.70049342415383
C            5.53348348372150       -2.73206178436399       -2.66160269445968
C            4.89510922255282       -2.06696521530880       -1.63733121324829
C            5.62595858106367       -1.43086488809439       -0.62796969062230
C            2.81873183893231        0.25009438892013       -0.11880497221249
C            1.41566365406363        0.23545724588709       -0.11104572967236
C            0.71105083507373        1.35280469644480       -0.65751880101921
N            1.36072512719308        2.39285306213988       -1.16005208728823
C            0.72072816238763        3.44639756043559       -1.67347258180014
C            1.39119921254899        4.54641428802797       -2.20243441347903
C            0.69123738205433        5.61905116917144       -2.72384032846818
C           -0.69619856400718        5.61624748814834       -2.72825897056285
C           -1.39510462798475        4.54082145446251       -2.21121133079411
C           -0.72354739693212        3.44354725771496       -1.67793133600980
N           -1.36253385475011        2.38759485072884       -1.16825998867402
C           -0.71186696784132        1.35011801170710       -0.66169735074169
C           -1.41548120951952        0.23030286833220       -0.11906295829838
C           -2.81852236956051        0.24057998808005       -0.13327085557532
C           -5.62687188376606       -0.13233010563466        1.38436762360400
C           -4.89904382763429        0.49960087599213        2.39839306293491
C           -5.54027042250031        1.16575974138357        3.42017768367918
C           -6.92311718861746        1.21165700461142        3.45196878057407
C           -7.64491580153341        0.58047632225468        2.45585175701987
C           -7.02613032836248       -0.09788415742355        1.41497167126775
H           -9.39212302448018       -2.34238709419689        0.32269605664605
H           -8.13326162056128       -2.58259486653747        1.53473236578505
H           -9.39631777767113       -1.37971179771556        1.79692522991890
H           -8.11703245724995        1.02069711771726       -0.81895149148492
H           -9.38465622029925       -0.17592716633797       -1.08842591411017
H           -9.38464342507754        0.78746220603591        0.38536517620131
H           -8.71499063162473       -2.17805815605022       -1.78609979932896
H           -7.42137040231561       -3.29807118803625       -3.52426988199724
H           -4.94343452595984       -3.22602027076308       -3.45202285234678
H           -3.81305729456921       -2.04492653492861       -1.63313670472333
H           -3.42614207900395       -2.73478405012196        1.33269977842706
H           -0.99279189027730       -2.79482963175875        1.37052942151037
H            0.99543874444261       -2.79010057705078        1.37839672001311
H            3.42873195791531       -2.72257542090117        1.35162262597840
H            3.81918759661072        0.48337923024461        2.39386607183429
H            4.95458017341082        1.66963256265456        4.20586443447167
H            7.43269204643624        1.74979243766093        4.26598669397719
H            8.72124698289656        0.63360417882681        2.52164422795030
H            9.39043098061577       -0.17117760827343       -1.05998913682342
H            9.38911559997674        0.79414751314589        0.41246833183853
H            8.12477765559832        1.02853206158288       -0.79506549924998
H            9.39278556107079       -1.37047897793086        1.82724305531378
H            8.12770677121646       -2.57108791408032        1.56433054514334
H            9.38980766400385       -2.33582677534341        0.35470086015715
H            8.71891291108309       -2.17145407956268       -1.75704729006722
H            7.42761995514598       -3.29197173645314       -3.49664234557253
H            4.94957969778176       -3.21690694162371       -3.42958384075462
H            3.81689770033208       -2.03263443285056       -1.61454254103890
H            3.32494045324463        1.10551015467249       -0.53910983613730
H            2.47014177263770        4.53672764187409       -2.19310232089947
H            1.23099878196164        6.46168725519808       -3.12872737397065
H           -1.23678298541832        6.45666638367367       -3.13664152458406
H           -2.47403649574620        4.52675644784816       -2.20869834202972
H           -3.32544781780981        1.09473615119239       -0.55527728078418
H           -3.82085566996225        0.46439108847323        2.37934588812134
H           -4.95850441260438        1.64805776933556        4.19132815548748
H           -7.43666154052319        1.73142599486413        4.24630955626605
H           -8.72293009576144        0.62048691436833        2.49693071938554

 projected vibrational frequencies (cm⁻¹)
eigval :       -0.00    -0.00    -0.00     0.00     0.00     0.00
eigval :        3.35     5.10    10.96    14.65    19.55    30.48
eigval :       39.62    43.06    46.21    57.84    83.15    91.08
eigval :       92.38    93.60    96.68    99.07   105.48   112.39
eigval :      129.39   129.40   136.85   156.59   175.06   184.26
eigval :      191.11   191.26   203.21   219.05   219.25   231.86
eigval :      238.41   243.45   244.45   282.69   288.26   299.58
eigval :      304.17   311.99   323.57   329.70   329.71   334.77
eigval :      342.09   346.48   367.23   367.62   370.07   370.73
eigval :      379.62   384.75   409.87   412.91   421.86   437.00
eigval :      439.45   448.28   450.73   451.00   466.70   487.10
eigval :      495.77   501.27   512.77   512.91   512.92   524.00
eigval :      539.20   544.28   544.86   546.14   546.33   555.36
eigval :      566.51   584.90   585.99   589.67   597.53   600.56
eigval :      614.27   631.37   652.07   652.89   664.33   677.23
eigval :      681.55   683.70   683.90   684.59   695.33   695.46
eigval :      705.91   711.35   722.98   748.76   761.10   775.21
eigval :      775.43   776.81   776.88   785.17   808.84   815.23
eigval :      825.08   826.38   826.61   833.67   850.94   865.66
eigval :      865.76   866.27   866.32   876.13   879.09   880.72
eigval :      893.34   901.34   905.06   909.74   913.32   913.34
eigval :      914.14   914.16   916.56   916.61   921.15   921.18
eigval :      921.24   921.26   938.01   938.19   957.27   957.27
eigval :      978.60   993.08  1014.03  1014.04  1023.69  1061.83
eigval :     1073.71  1077.23  1077.23  1085.80  1088.39  1111.07
eigval :     1111.30  1117.79  1117.80  1127.95  1140.42  1140.43
eigval :     1154.57  1154.82  1158.15  1158.22  1165.86  1166.68
eigval :     1173.67  1185.93  1186.63  1186.80  1186.93  1188.29
eigval :     1193.62  1217.66  1226.93  1233.98  1234.44  1247.09
eigval :     1247.86  1248.64  1248.85  1256.56  1265.04  1265.38
eigval :     1274.30  1293.43  1294.97  1294.99  1300.04  1313.35
eigval :     1319.39  1322.23  1325.59  1325.65  1335.36  1335.86
eigval :     1336.53  1340.86  1341.07  1359.17  1361.45  1388.40
eigval :     1402.15  1402.16  1408.78  1410.59  1420.17  1420.22
eigval :     1434.65  1435.70  1440.01  1440.41  1441.61  1457.83
eigval :     1471.03  1471.79  1472.04  1485.98  1489.33  1489.34
eigval :     1490.21  1490.22  1490.40  1491.15  1499.84  1499.85
eigval :     1504.07  1504.08  1519.79  1533.24  1538.43  1550.60
eigval :     1569.40  1569.65  1570.20  1581.99  1585.07  1587.87
eigval :     1588.26  1588.34  1599.11  1599.62  3027.11  3027.19
eigval :     3029.76  3029.80  3040.08  3040.11  3042.67  3042.70
eigval :     3049.29  3049.32  3052.74  3052.99  3079.66  3079.73
eigval :     3079.90  3079.95  3081.78  3084.45  3084.52  3084.80
eigval :     3084.85  3087.09  3087.84  3088.86  3095.23  3095.37
eigval :     3095.42  3095.58  3096.15  3100.48  3101.96  3102.48
eigval :     3102.51  3102.60  3102.74  3103.27  3103.79  3112.44

   temp. (K)  partition function   enthalpy   heat capacity  entropy
                                   cal/mol     cal/K/mol   cal/K/mol   J/K/mol
 298.15  VIB  0.659E+21            26057.587    166.413    162.654
         ROT  0.126E+09              888.752      2.981     40.050
         INT  0.831E+29            26946.340    169.394    202.704
         TR   0.177E+29             1481.254      4.968     45.476
         TOT                       28427.5937   174.3621   248.1795  1038.3830

       T/K    H(0)-H(T)+PV         H(T)/Eh          T*S/Eh         G(T)/Eh
   ------------------------------------------------------------------------
    298.15    0.453023E-01    0.767448E+00    0.117918E+00    0.649530E+00
   ------------------------------------------------------------------------

         :::::::::::::::::::::::::::::::::::::::::::::::::::::
         ::                  THERMODYNAMIC                  ::
         :::::::::::::::::::::::::::::::::::::::::::::::::::::
         :: total free energy        -137.557584791208 Eh   ::
         ::.................................................::
         :: total energy             -138.207114699610 Eh   ::
         :: zero point energy           0.722145744364 Eh   ::
         :: G(RRHO) w/o ZPVE           -0.072615835963 Eh   ::
         :: G(RRHO) contrib.            0.649529908402 Eh   ::
         :::::::::::::::::::::::::::::::::::::::::::::::::::::

           -------------------------------------------------
          | TOTAL ENERGY             -138.207114699610 Eh   |
          | TOTAL ENTHALPY           -137.439666701028 Eh   |
          | TOTAL FREE ENERGY        -137.557584791208 Eh   |
          | GRADIENT NORM               0.000092290114 Eh/α |
           -------------------------------------------------

 * finished run on 2025/09/12 at 08:04:06.958
