   * xtb version 6.7.1 (edcfbbe) compiled by 'albert@albert-system' on 2024-07-22

   ID    Z sym.   atoms
    1    6 C      1-9, 11-18, 20-37, 39-44, 46-54
    2    7 N      10, 19, 38, 45
    3    1 H      55-92

          program call               : xtb data2507/gas/AcDbp/AcDbp_gas_T1_crest.xyz --gfn 2 --spinpol --tblite --uhf 2 --ohess vtight --parallel 40 --molden --ceasefiles --namespace data2507/gas/AcDbp/AcDbp_gas_T1_finalOpt
 * total energy  :  -138.2070886 Eh     change        0.3082945E-07 Eh
 * total energy  :  -138.2071138 Eh     change       -0.2518658E-04 Eh
 * total energy  :  -138.2071192 Eh     change       -0.5415262E-05 Eh
 * total energy  :  -138.2071205 Eh     change       -0.1307837E-05 Eh
 * total energy  :  -138.2071221 Eh     change       -0.1539796E-05 Eh
 * total energy  :  -138.2071238 Eh     change       -0.1727166E-05 Eh
 * total energy  :  -138.2071263 Eh     change       -0.2467986E-05 Eh
 * total energy  :  -138.2071286 Eh     change       -0.2314806E-05 Eh
 * total energy  :  -138.2071296 Eh     change       -0.1017663E-05 Eh
 * total energy  :  -138.2071300 Eh     change       -0.4453768E-06 Eh
 * total energy  :  -138.2071323 Eh     change       -0.1468558E-05 Eh
 * total energy  :  -138.2071327 Eh     change       -0.4435519E-06 Eh
 * total energy  :  -138.2071331 Eh     change       -0.3563970E-06 Eh
 * total energy  :  -138.2071327 Eh     change        0.3707035E-06 Eh
 * total energy  :  -138.2071334 Eh     change       -0.7455677E-06 Eh
 * total energy  :  -138.2071340 Eh     change       -0.5337608E-06 Eh
 * total energy  :  -138.2071344 Eh     change       -0.4585864E-06 Eh
 * total energy  :  -138.2071347 Eh     change       -0.2831511E-06 Eh
 * total energy  :  -138.2071348 Eh     change       -0.9735419E-07 Eh
   *** GEOMETRY OPTIMIZATION CONVERGED AFTER 20 ITERATIONS ***

 final structure:
================
92
 xtb: 6.7.1 (edcfbbe)
C           -8.76852356042368       -2.09164226366085        0.00979599380476
C           -7.87209695055672       -0.83962570352830        0.00244598668716
C           -8.73663001601419        0.43456623139407       -0.00900316051279
C           -7.02079571206523       -0.85922339043859       -1.25223299143034
C           -7.63406587663105       -0.86441487993133       -2.49729622908674
C           -6.90686772363958       -0.88231435504308       -3.67320346294768
C           -5.52413052522300       -0.89437124999373       -3.61568429188240
C           -4.88821711169257       -0.88953997711404       -2.39315408312679
C           -5.62179198080294       -0.87277547379841       -1.20196227659365
N           -4.95511781231047       -0.87370873520978        0.00920547948885
C           -3.53175511239929       -0.89684564484117        0.01135262844290
C           -2.85484462090472       -2.12335401220515        0.01094647047473
C           -1.48319577327979       -2.15047710444460        0.00912428980929
C           -0.71965302064000       -0.97191292189632        0.00761928470541
C            0.72132828162688       -0.97093781519255        0.00372941680907
C            1.48635460511652       -2.14851873655783        0.00182497456693
C            2.85794773804634       -2.11961840846843       -0.00289661459508
C            3.53332231914241       -0.89227294966742       -0.00581466147354
N            4.95665918298720       -0.86821744660822       -0.01073485483544
C            5.63018185558612       -0.87483744982886        1.19656645151160
C            4.90323841336408       -0.89190309065851        2.39180563116015
C            5.54601947050638       -0.90416770674801        3.61069305564264
C            6.92911566955554       -0.89953507089588        3.66040609662821
C            7.64976586489923       -0.88107340180797        2.48047853464407
C            7.02950364126920       -0.86799996353091        1.23894983510257
C            7.87376747371653       -0.84842467252719       -0.02047128722712
C            8.75015440199570        0.41756875513925       -0.00651807216823
C            8.75855752697484       -2.10860289160385       -0.04035908309984
C            7.02085582971855       -0.83482968895598       -1.27414737168658
C            7.63266708795316       -0.81533886926279       -2.51978521923360
C            6.90403957922822       -0.80534929875501       -3.69489785485086
C            5.52133536143160       -0.81533958065562       -3.63596363568668
C            4.88684809940082       -0.83492903512317       -2.41283088235138
C            5.62185206285323       -0.84434105245186       -1.22246069176398
C            2.81869443871182        0.28074660150324       -0.00364022228305
C            1.41555951564930        0.26389678729443        0.00111386956296
C            0.71070595557928        1.50755236787335        0.00348479781641
N            1.36010043975710        2.66278670591199        0.00147170480333
C            0.71964967423046        3.83461527895202        0.00447515874017
C            1.38987306707708        5.05537793466715        0.00284016919213
C            0.68955624300739        6.24778851639008        0.00688360191576
C           -0.69790257236775        6.24679905111686        0.01254084293744
C           -1.39648967486215        5.05337462025880        0.01395218505971
C           -0.72448084543640        3.83360200254559        0.00996733896685
N           -1.36327113261116        2.66087914433281        0.01106639734603
C           -0.71225012697712        1.50657678953576        0.00817413309101
C           -1.41545758190936        0.26200545097440        0.00939491285029
C           -2.81860008643547        0.27705402504791        0.01126920593992
C           -5.62710653764426       -0.85543719493294        1.21720215759115
C           -4.89877637393799       -0.85700847679157        2.41169486712537
C           -5.54010375232942       -0.84350484676677        3.63134317156951
C           -6.92307742856047       -0.82823272699347        3.68252981013960
C           -7.64509837505413       -0.82669809977245        2.50329726688971
C           -7.02633192338383       -0.84040428356757        1.26102849592360
H           -9.40572213381485       -2.10757316993629        0.88957556460399
H           -9.40398425093910       -2.11908714884107       -0.87095770335047
H           -8.15165316950850       -2.98840942113635        0.01629126802156
H           -8.09701568241123        1.31514034783111       -0.01218135608590
H           -9.36864494410754        0.46652540621009       -0.89212459749411
H           -9.37543290921241        0.47773382534759        0.86874192292180
H           -8.71182977784333       -0.85412074752522       -2.55849522142778
H           -7.41624619848125       -0.88598407526255       -4.62472466161513
H           -4.93845544961198       -0.90705269850457       -4.52265411747523
H           -3.80998946430321       -0.89689259048726       -2.35258662693221
H           -3.42540580492719       -3.04003946658018        0.01134192905971
H           -0.99170764334595       -3.10993494362101        0.00836359133758
H            0.99609305177796       -3.10860011035793        0.00386017040475
H            3.42968104243254       -3.03557260493175       -0.00426940563026
H            3.82476637255831       -0.89339167147488        2.35715519427554
H            4.96547230391702       -0.91677418317454        4.52095678092013
H            7.44384681928747       -0.90938126188751        4.60900174821792
H            8.72789860041703       -0.87700326357175        2.53559422798497
H            9.38258139696602        0.46142049804428       -0.88881128749905
H            9.38942211727136        0.43725259033092        0.87171022307451
H            8.11875509895181        1.30392625985786        0.00811290899730
H            9.39151904768184       -2.12436777865776       -0.92322467039318
H            9.39753959146198       -2.14791872599242        0.83742317090353
H            8.13333600019140       -2.99954167256593       -0.05015422062871
H            8.71039514258066       -0.80802364928694       -2.58207610960937
H            7.41231909244781       -0.78996116647991       -4.64689388759841
H            4.93462164627168       -0.80761731895310       -4.54231725608675
H            3.80865603441534       -0.84151770159709       -2.37099201981432
H            3.32479220483610        1.23387183850209       -0.00583939309636
H            2.46880646637332        5.04288371620806       -0.00153090421770
H            1.22898821993262        7.18283911768991        0.00569742780104
H           -1.23868162895346        7.18106605331365        0.01584055285170
H           -2.47540450616002        5.03926775580572        0.01824750364182
H           -3.32591739016217        1.22952872155780        0.01187029178829
H           -3.82038303975718       -0.86726203662344        2.37570467410884
H           -4.95856978869620       -0.84448525150204        4.54106183187142
H           -7.43667888767325       -0.81727354396290        4.63172940339940
H           -8.72311423925322       -0.81438408489130        2.55956079196043

 projected vibrational frequencies (cm⁻¹)
eigval :       -0.00    -0.00     0.00     0.00     0.00     0.00
eigval :        1.45     3.46    10.83    14.76    19.76    30.26
eigval :       39.40    42.79    45.69    57.53    82.78    91.47
eigval :       92.50    94.08    96.04    98.86   104.38   112.53
eigval :      129.68   129.71   137.14   156.30   174.78   184.25
eigval :      191.40   191.54   202.95   219.21   219.24   231.37
eigval :      238.37   242.95   244.39   282.66   287.76   299.83
eigval :      303.93   311.77   323.46   329.55   329.56   334.50
eigval :      342.20   346.36   367.18   367.58   370.04   370.42
eigval :      379.50   384.76   409.82   412.90   421.96   436.99
eigval :      439.47   448.28   450.55   450.77   466.60   487.03
eigval :      495.60   501.28   512.76   512.92   512.93   523.72
eigval :      538.82   544.18   544.87   546.09   546.35   554.97
eigval :      566.68   584.93   586.10   589.40   598.66   599.33
eigval :      614.24   631.55   652.00   652.83   664.52   677.29
eigval :      681.68   683.82   683.85   684.47   695.30   695.42
eigval :      706.29   710.90   723.13   748.50   761.11   775.20
eigval :      775.41   776.80   776.91   783.98   808.53   815.02
eigval :      825.17   826.30   826.55   833.92   850.58   865.54
eigval :      865.63   866.08   866.13   875.61   879.11   880.25
eigval :      892.87   901.04   905.12   909.52   913.32   913.32
eigval :      914.12   914.13   916.68   916.74   921.18   921.18
eigval :      921.26   921.26   938.17   938.34   957.35   957.36
eigval :      978.69   993.17  1014.08  1014.09  1024.06  1063.45
eigval :     1073.74  1077.24  1077.27  1085.99  1088.55  1110.63
eigval :     1110.95  1117.51  1117.53  1128.16  1140.30  1140.32
eigval :     1154.76  1154.81  1158.29  1158.36  1165.83  1166.67
eigval :     1173.55  1186.07  1186.65  1186.71  1186.84  1188.04
eigval :     1193.71  1218.62  1226.43  1233.58  1234.59  1247.56
eigval :     1247.88  1247.94  1248.02  1256.57  1265.13  1265.26
eigval :     1274.99  1293.54  1294.94  1294.96  1300.07  1314.19
eigval :     1319.70  1322.25  1325.67  1325.68  1335.48  1335.80
eigval :     1336.13  1341.44  1341.79  1358.94  1361.12  1388.41
eigval :     1402.17  1402.17  1408.47  1410.57  1420.19  1420.24
eigval :     1434.91  1435.90  1440.45  1440.75  1441.44  1457.67
eigval :     1470.78  1472.00  1472.23  1485.02  1489.35  1489.35
eigval :     1489.67  1490.37  1490.38  1491.19  1500.02  1500.02
eigval :     1504.08  1504.10  1519.48  1533.41  1538.68  1550.87
eigval :     1569.69  1569.70  1570.30  1581.92  1585.12  1587.95
eigval :     1588.35  1588.44  1598.69  1599.08  3027.17  3027.21
eigval :     3029.75  3029.83  3040.04  3040.07  3042.60  3042.65
eigval :     3049.34  3049.36  3052.65  3052.84  3079.76  3079.77
eigval :     3079.88  3079.93  3081.91  3084.44  3084.48  3084.60
eigval :     3084.63  3087.35  3087.95  3089.12  3095.32  3095.34
eigval :     3095.39  3095.52  3095.86  3100.81  3101.87  3102.29
eigval :     3102.38  3102.48  3102.85  3103.35  3103.60  3112.36

   temp. (K)  partition function   enthalpy   heat capacity  entropy
                                   cal/mol     cal/K/mol   cal/K/mol   J/K/mol
 298.15  VIB  0.231E+22            26068.663    166.396    163.907
         ROT  0.631E+08              888.752      2.981     38.671
         INT  0.146E+30            26957.415    169.377    202.579
         TR   0.177E+29             1481.254      4.968     45.476
         TOT                       28438.6689   174.3452   248.0543  1037.8593

       T/K    H(0)-H(T)+PV         H(T)/Eh          T*S/Eh         G(T)/Eh
   ------------------------------------------------------------------------
    298.15    0.453199E-01    0.767440E+00    0.117859E+00    0.649581E+00
   ------------------------------------------------------------------------

         :::::::::::::::::::::::::::::::::::::::::::::::::::::
         ::                  THERMODYNAMIC                  ::
         :::::::::::::::::::::::::::::::::::::::::::::::::::::
         :: total free energy        -137.557553693879 Eh   ::
         ::.................................................::
         :: total energy             -138.207134852150 Eh   ::
         :: zero point energy           0.722119865061 Eh   ::
         :: G(RRHO) w/o ZPVE           -0.072538706791 Eh   ::
         :: G(RRHO) contrib.            0.649581158271 Eh   ::
         :::::::::::::::::::::::::::::::::::::::::::::::::::::

           -------------------------------------------------
          | TOTAL ENERGY             -138.207134852150 Eh   |
          | TOTAL ENTHALPY           -137.439695083530 Eh   |
          | TOTAL FREE ENERGY        -137.557553693879 Eh   |
          | GRADIENT NORM               0.000111576985 Eh/α |
           -------------------------------------------------

 * finished run on 2025/09/12 at 08:13:08.131
