   * xtb version 6.7.1 (edcfbbe) compiled by 'albert@albert-system' on 2024-07-22

   ID    Z sym.   atoms
    1    6 C      1-9, 11-18, 20-37, 39-44, 46-54
    2    7 N      10, 19, 38, 45
    3    1 H      55-92

          program call               : xtb data2507/gas/AcDbp/AcDbp.xyz --gfn 2 --ohess vtight --parallel 40 --molden --ceasefiles --namespace data2507/gas/AcDbp/AcDbp_gas_S0_preOpt
          :  Hamiltonian                  GFN2-xTB          :
 * total energy  :  -138.2120072 Eh     change       -0.2126086E-08 Eh
 * total energy  :  -138.2367682 Eh     change       -0.2476103E-01 Eh
 * total energy  :  -138.2449542 Eh     change       -0.8186020E-02 Eh
 * total energy  :  -138.2462857 Eh     change       -0.1331505E-02 Eh
 * total energy  :  -138.2470624 Eh     change       -0.7766896E-03 Eh
 * total energy  :  -138.2474045 Eh     change       -0.3420955E-03 Eh
 * total energy  :  -138.2475912 Eh     change       -0.1866598E-03 Eh
 * total energy  :  -138.2476974 Eh     change       -0.1062453E-03 Eh
 * total energy  :  -138.2477766 Eh     change       -0.7913780E-04 Eh
 * total energy  :  -138.2478051 Eh     change       -0.2851713E-04 Eh
 * total energy  :  -138.2478227 Eh     change       -0.3164033E-06 Eh
 * total energy  :  -138.2478231 Eh     change       -0.3946563E-06 Eh
 * total energy  :  -138.2478239 Eh     change       -0.7418460E-06 Eh
 * total energy  :  -138.2478247 Eh     change       -0.8336032E-06 Eh
 * total energy  :  -138.2478252 Eh     change       -0.5323829E-06 Eh
 * total energy  :  -138.2478256 Eh     change       -0.3307761E-06 Eh
 * total energy  :  -138.2478258 Eh     change       -0.2530229E-06 Eh
 * total energy  :  -138.2478260 Eh     change       -0.2239387E-06 Eh
 * total energy  :  -138.2478260 Eh     change       -0.5846374E-08 Eh
   *** GEOMETRY OPTIMIZATION CONVERGED AFTER 22 ITERATIONS ***

 final structure:
================
92
 xtb: 6.7.1 (edcfbbe)
C           -8.77077368730466       -2.01198967123029        0.00007575172711
C           -7.88017117330063       -0.75618945487849        0.00029580858947
C           -8.74994337052067        0.51419244350013        0.00043279121734
C           -7.03107741940625       -0.76171287182144       -1.25704820707160
C           -7.64818124320225       -0.76304082343491       -2.50021266009908
C           -6.92536495794485       -0.76642837115249       -3.67898833036889
C           -5.54339107212563       -0.76692903599347       -3.62527061555238
C           -4.90388977540205       -0.76511809383748       -2.40365000839491
C           -5.63315651542071       -0.76298647875119       -1.21119703640922
N           -4.96257815039998       -0.76407095423797        0.00041891931078
C           -3.54143065607987       -0.77998704117779        0.00048842504107
C           -2.85729550709505       -1.99621982836855        0.00129768089642
C           -1.48130169484087       -2.01910260983022        0.00133228380242
C           -0.72779301838885       -0.83830166392671        0.00057402551326
C            0.72785235058728       -0.83824970800194        0.00053279297708
C            1.48144028861737       -2.01899965547855        0.00107596785166
C            2.85743191777603       -1.99602297311603        0.00103549999726
C            3.54148573741388       -0.77974436741099        0.00042533659283
N            4.96263270273342       -0.76375519250213        0.00038070333364
C            5.63328218771725       -0.76121195315625        1.21195437393297
C            4.90408331049103       -0.76181627448402        2.40445082323860
C            5.54365555441059       -0.76211640647384        3.62603513286263
C            6.92563262086829       -0.76159899600446        3.67967259730692
C            7.64838104560397       -0.75974859081019        2.50085175172509
C            7.03120572404455       -0.75996790138473        1.25772241832496
C            7.88022748986721       -0.75614644332715        0.00032212842712
C            8.75021161480058        0.51408963817688       -0.00148584433435
C            8.77062078771231       -2.01209330816051        0.00208167128250
C            7.03116553043398       -0.76349392220099       -1.25703526517651
C            7.64829936062960       -0.76672085263445       -2.50018076730349
C            6.92551147137282       -0.77168362629831       -3.67896859192018
C            5.54353622379432       -0.77179569453778       -3.62528490636940
C            4.90400476974885       -0.76812114261296       -2.40368396483207
C            5.63324263064477       -0.76452695871403       -1.21121620563219
C            2.82617570668656        0.39944585949423       -0.00013542037783
C            1.43036770978386        0.38333699295252       -0.00008957792924
C            0.71327030927920        1.64029708466373       -0.00072827643111
N            1.39817971441071        2.76767192234301       -0.00122082978064
C            0.71380117077572        3.91961647359914       -0.00185212844784
C            1.40536495833796        5.15022206658302       -0.00237380879881
C            0.70417001803753        6.32137070306027       -0.00304018618717
C           -0.70463416317266        6.32131796383625       -0.00321591830945
C           -1.40573985534869        5.15011615048013       -0.00271913386042
C           -0.71408181043786        3.91956375508584       -0.00201502158493
N           -1.39837466889358        2.76756900863328       -0.00148518572150
C           -0.71338186223389        1.64024535852716       -0.00083262650725
C           -1.43039128854665        0.38323614786645       -0.00017171288388
C           -2.82619952154539        0.39925044717567       -0.00022144681775
C           -5.63325782360119       -0.76331548056812        1.21197599567376
C           -4.90408762786337       -0.76556618349137        2.40448865852731
C           -5.54368981950032       -0.76768187829190        3.62605572684809
C           -6.92566812534132       -0.76731528996931        3.67965982820178
C           -7.64838804810121       -0.76369995841300        2.50082520729903
C           -7.03118312189980       -0.76207835082793        1.25771230006963
H           -8.14969785283394       -2.90592229185750       -0.00002951256031
H           -9.40723576579562       -2.03712872224673        0.88025919917260
H           -9.40717354476169       -2.03687699518766       -0.88016065595828
H           -8.11358544909804        1.39720687962786        0.00058011254806
H           -9.38547030430436        0.54969719449803       -0.88015535176768
H           -9.38552940563386        0.54945103337940        0.88098395377341
H           -8.72629541244394       -0.76122519850145       -2.55764055037292
H           -7.43795610253443       -0.76783321097540       -4.62888205401856
H           -4.95947765327888       -0.76830811051591       -4.53371577028864
H           -3.82503091558580       -0.76364055118846       -2.36807549194115
H           -3.42019011095356       -2.91789733136251        0.00187463025145
H           -0.98888080218613       -2.97789729300446        0.00194747909670
H            0.98908404620855       -2.97782750357454        0.00155799273097
H            3.42038940954057       -2.91766219396565        0.00144372911488
H            3.82522262367347       -0.76034673495080        2.36893615128843
H            4.95979404143551       -0.76235668968145        4.53451460336947
H            7.43827929123708       -0.76185107552223        4.62953725015138
H            8.72649842976641       -0.75793572125780        2.55821424526557
H            9.38578519428371        0.54810832179685       -0.88209692936454
H            9.38576728654402        0.55062728166274        0.87903745595458
H            8.11399969268298        1.39720770121067       -0.00275597818552
H            9.40707091729425       -2.03595978385823        0.88230946084953
H            8.14939778914989       -2.90592348113338        0.00336981337553
H            9.40701969358689       -2.03845991243368       -0.87811170828708
H            8.72641493468931       -0.76516608228772       -2.55758372940469
H            7.43812650811857       -0.77458098736034       -4.62884580000578
H            4.95964578390907       -0.77431882255009       -4.53374242869830
H            3.82514511117685       -0.76627717023207       -2.36813753590262
H            3.33012566548395        1.35318668203520       -0.00061538453259
H            2.48405789604203        5.12838332501461       -0.00222730938671
H            1.22740989105996        7.26626346928041       -0.00344455361770
H           -1.22794568069765        7.26617102362233       -0.00375939039850
H           -2.48443118124889        5.12819355004081       -0.00284096321262
H           -3.33021401314451        1.35295702339420       -0.00082310293170
H           -3.82522581901017       -0.76390091014295        2.36900136519907
H           -4.95985123087133       -0.76919106059542        4.53454876383261
H           -7.43833843827877       -0.76900143095373        4.62950998110635
H           -8.72650645188250       -0.76195622869207        2.55816409028655

          :  Hamiltonian                  GFN2-xTB          :
         :: gradient norm              0.000039083836 Eh/a0 ::
         :: HOMO-LUMO gap              0.970352333494 eV    ::
         :: SCC energy              -140.752621749838 Eh    ::
         :: -> dispersion             -0.132748967746 Eh    ::
         :: repulsion energy           2.504795700636 Eh    ::

    * Orbital Energies and Occupations

         #    Occupation            Energy/Eh            Energy/eV
      -------------------------------------------------------------
         1        2.0000           -0.6795371             -18.4911
       ...           ...                  ...                  ...
       117        2.0000           -0.4036993             -10.9852
       118        2.0000           -0.4035732             -10.9818
       119        2.0000           -0.4017571             -10.9324
       120        2.0000           -0.3991922             -10.8626
       121        2.0000           -0.3988553             -10.8534
       122        2.0000           -0.3943183             -10.7299
       123        2.0000           -0.3939359             -10.7195
       124        2.0000           -0.3939204             -10.7191
       125        2.0000           -0.3887244             -10.5777
       126        2.0000           -0.3887193             -10.5776
       127        2.0000           -0.3548569              -9.6561
       128        2.0000           -0.3423590              -9.3161
       129        2.0000           -0.3423552              -9.3160 (HOMO)
       130                         -0.3066954              -8.3456 (LUMO)
       131                         -0.2737760              -7.4498
       132                         -0.2647984              -7.2055
       133                         -0.2312117              -6.2916
       134                         -0.2233865              -6.0787
       135                         -0.2199036              -5.9839
       136                         -0.2198875              -5.9834
       137                         -0.2149839              -5.8500
       138                         -0.2149826              -5.8500
       139                         -0.2140419              -5.8244
       140                         -0.2139375              -5.8215
       ...                                ...                  ...
       254                          0.7103152              19.3287
      -------------------------------------------------------------
                  HL-Gap            0.0356598 Eh            0.9704 eV

     #   Z          covCN         q      C6AA      α(0)
     1   6 C        3.761    -0.103    22.507     6.763
     2   6 C        3.909     0.021    20.157     6.381
     3   6 C        3.761    -0.103    22.508     6.763
     4   6 C        2.979    -0.014    28.364     8.736
     5   6 C        2.928    -0.036    28.900     8.816
     6   6 C        2.917    -0.045    29.123     8.849
     7   6 C        2.920    -0.033    28.820     8.804
     8   6 C        2.924    -0.059    29.461     8.901
     9   6 C        2.929     0.059    26.686     8.472
    10   7 N        2.755    -0.072    22.629     7.065
    11   6 C        2.926     0.073    26.368     8.421
    12   6 C        2.919    -0.036    28.904     8.816
    13   6 C        2.922    -0.034    28.836     8.806
    14   6 C        2.976     0.006    27.889     8.663
    15   6 C        2.976     0.006    27.889     8.663
    16   6 C        2.922    -0.034    28.836     8.806
    17   6 C        2.919    -0.036    28.904     8.816
    18   6 C        2.926     0.073    26.368     8.421
    19   7 N        2.755    -0.072    22.629     7.065
    20   6 C        2.929     0.059    26.686     8.472
    21   6 C        2.924    -0.059    29.461     8.901
    22   6 C        2.920    -0.033    28.820     8.804
    23   6 C        2.917    -0.045    29.123     8.849
    24   6 C        2.928    -0.036    28.900     8.816
    25   6 C        2.979    -0.014    28.364     8.736
    26   6 C        3.909     0.021    20.157     6.381
    27   6 C        3.761    -0.103    22.509     6.763
    28   6 C        3.761    -0.103    22.507     6.763
    29   6 C        2.979    -0.014    28.364     8.736
    30   6 C        2.928    -0.036    28.900     8.816
    31   6 C        2.917    -0.045    29.123     8.849
    32   6 C        2.920    -0.033    28.820     8.804
    33   6 C        2.924    -0.059    29.461     8.901
    34   6 C        2.929     0.059    26.686     8.472
    35   6 C        2.926    -0.037    28.912     8.818
    36   6 C        2.988     0.001    28.008     8.681
    37   6 C        2.963     0.084    26.133     8.385
    38   7 N        1.848    -0.236    27.025     7.705
    39   6 C        2.968     0.084    26.134     8.385
    40   6 C        2.916    -0.038    28.952     8.823
    41   6 C        2.916    -0.025    28.638     8.775
    42   6 C        2.916    -0.025    28.638     8.775
    43   6 C        2.916    -0.038    28.952     8.823
    44   6 C        2.968     0.084    26.134     8.385
    45   7 N        1.848    -0.236    27.025     7.705
    46   6 C        2.963     0.084    26.133     8.385
    47   6 C        2.988     0.001    28.008     8.681
    48   6 C        2.926    -0.037    28.912     8.818
    49   6 C        2.929     0.059    26.686     8.472
    50   6 C        2.924    -0.059    29.461     8.901
    51   6 C        2.920    -0.033    28.820     8.804
    52   6 C        2.917    -0.045    29.123     8.849
    53   6 C        2.928    -0.036    28.900     8.816
    54   6 C        2.979    -0.014    28.364     8.736
    55   1 H        0.925     0.031     2.579     2.511
    56   1 H        0.925     0.039     2.467     2.456
    57   1 H        0.925     0.039     2.467     2.456
    58   1 H        0.925     0.032     2.563     2.503
    59   1 H        0.925     0.039     2.468     2.457
    60   1 H        0.925     0.039     2.468     2.457
    61   1 H        0.926     0.029     2.600     2.522
    62   1 H        0.926     0.025     2.659     2.550
    63   1 H        0.926     0.026     2.645     2.543
    64   1 H        0.926     0.021     2.716     2.577
    65   1 H        0.926     0.046     2.376     2.411
    66   1 H        0.926     0.043     2.406     2.426
    67   1 H        0.926     0.043     2.406     2.426
    68   1 H        0.926     0.046     2.376     2.411
    69   1 H        0.926     0.021     2.716     2.577
    70   1 H        0.926     0.026     2.645     2.543
    71   1 H        0.926     0.025     2.659     2.550
    72   1 H        0.926     0.029     2.600     2.522
    73   1 H        0.925     0.039     2.468     2.457
    74   1 H        0.925     0.039     2.468     2.457
    75   1 H        0.925     0.032     2.563     2.503
    76   1 H        0.925     0.039     2.467     2.456
    77   1 H        0.925     0.031     2.579     2.512
    78   1 H        0.925     0.039     2.467     2.456
    79   1 H        0.926     0.029     2.600     2.522
    80   1 H        0.926     0.025     2.659     2.550
    81   1 H        0.926     0.026     2.645     2.543
    82   1 H        0.926     0.021     2.716     2.577
    83   1 H        0.926     0.070     2.089     2.260
    84   1 H        0.926     0.054     2.271     2.357
    85   1 H        0.926     0.042     2.423     2.434
    86   1 H        0.926     0.042     2.423     2.434
    87   1 H        0.926     0.054     2.271     2.357
    88   1 H        0.926     0.070     2.089     2.260
    89   1 H        0.926     0.021     2.716     2.577
    90   1 H        0.926     0.026     2.645     2.543
    91   1 H        0.926     0.025     2.659     2.550
    92   1 H        0.926     0.029     2.600     2.522

molecular dipole:
                 x           y           z       tot (Debye)
 q only:       -0.000       0.030       0.000
   full:       -0.000       0.028       0.000       0.072

 projected vibrational frequencies (cm⁻¹)
eigval :       -0.00    -0.00    -0.00     0.00     0.00     0.00
eigval :       -8.44    -6.35    10.19    14.49    19.30    29.88
eigval :       36.39    38.25    41.31    55.04    82.10    87.37
eigval :       92.32    94.54    96.62    98.99    99.02   113.33
eigval :      129.48   129.48   137.36   154.13   172.64   185.76
eigval :      190.81   191.00   203.21   219.77   219.78   231.63
eigval :      238.30   241.76   261.85   284.31   295.21   302.42
eigval :      304.32   310.69   322.47   330.68   330.68   332.94
eigval :      343.25   346.39   366.21   369.36   371.30   371.70
eigval :      379.39   384.96   409.42   412.25   422.15   437.50
eigval :      438.64   448.04   449.42   449.74   455.35   485.22
eigval :      489.47   495.70   515.48   515.48   517.10   536.68
eigval :      544.14   544.89   547.23   547.32   547.58   557.27
eigval :      567.03   586.45   586.67   594.50   599.73   614.50
eigval :      618.93   636.09   652.80   655.99   681.95   681.95
eigval :      686.26   691.99   693.04   693.52   694.77   706.89
eigval :      716.14   737.68   756.66   768.32   773.71   775.80
eigval :      775.95   777.17   777.24   789.78   814.24   819.62
eigval :      827.25   828.26   835.24   861.98   863.78   863.87
eigval :      864.36   864.39   877.19   883.79   888.93   912.48
eigval :      912.49   912.88   913.33   913.42   915.05   915.68
eigval :      917.74   918.49   919.29   920.61   920.62   920.62
eigval :      920.63   930.73   938.41   938.69   957.02   957.03
eigval :      979.62   998.28  1014.34  1014.34  1035.56  1054.40
eigval :     1064.45  1077.53  1077.54  1085.93  1088.57  1112.85
eigval :     1112.98  1119.26  1119.27  1141.03  1141.03  1143.04
eigval :     1153.41  1155.17  1160.63  1160.68  1166.02  1166.85
eigval :     1174.39  1185.97  1187.31  1187.61  1187.74  1187.99
eigval :     1194.06  1219.33  1222.41  1236.15  1242.13  1249.81
eigval :     1249.91  1251.52  1261.50  1266.86  1269.56  1269.96
eigval :     1287.22  1294.85  1294.88  1297.91  1311.64  1317.65
eigval :     1325.22  1326.45  1326.45  1335.67  1335.91  1341.29
eigval :     1345.24  1346.92  1347.30  1367.86  1399.55  1402.59
eigval :     1402.59  1418.48  1420.21  1420.65  1421.02  1436.62
eigval :     1437.49  1443.52  1445.14  1445.41  1470.97  1472.19
eigval :     1482.24  1482.69  1490.26  1490.26  1491.14  1491.15
eigval :     1494.36  1496.93  1500.39  1500.90  1501.18  1505.64
eigval :     1505.70  1508.88  1531.18  1547.99  1554.74  1575.89
eigval :     1575.89  1581.17  1590.47  1591.43  1593.42  1593.61
eigval :     1595.48  1603.23  1603.36  1607.69  3026.34  3026.36
eigval :     3028.91  3028.92  3038.68  3038.68  3041.50  3041.51
eigval :     3047.60  3047.60  3051.53  3051.60  3076.75  3076.77
eigval :     3076.87  3076.92  3079.60  3081.44  3081.47  3081.55
eigval :     3081.58  3087.70  3087.96  3089.45  3091.72  3091.77
eigval :     3091.97  3092.21  3097.75  3097.87  3098.64  3098.67
eigval :     3100.64  3102.93  3104.73  3112.11  3112.17  3114.48

   temp. (K)  partition function   enthalpy   heat capacity  entropy
                                   cal/mol     cal/K/mol   cal/K/mol   J/K/mol
 298.15  VIB  0.327E+21            25971.191    165.135    161.274
         ROT  0.631E+08              888.752      2.981     38.673
         INT  0.206E+29            26859.944    168.116    199.948
         TR   0.177E+29             1481.254      4.968     45.476
         TOT                       28341.1975   173.0837   245.4234  1026.8514

       T/K    H(0)-H(T)+PV         H(T)/Eh          T*S/Eh         G(T)/Eh
   ------------------------------------------------------------------------
    298.15    0.451646E-01    0.769510E+00    0.116609E+00    0.652902E+00
   ------------------------------------------------------------------------

         :::::::::::::::::::::::::::::::::::::::::::::::::::::
         ::                  THERMODYNAMIC                  ::
         :::::::::::::::::::::::::::::::::::::::::::::::::::::
         :: total free energy        -137.594924350669 Eh   ::
         ::.................................................::
         :: total energy             -138.247826049202 Eh   ::
         :: zero point energy           0.724345686587 Eh   ::
         :: G(RRHO) w/o ZPVE           -0.071443988054 Eh   ::
         :: G(RRHO) contrib.            0.652901698533 Eh   ::
         :::::::::::::::::::::::::::::::::::::::::::::::::::::

           -------------------------------------------------
          | TOTAL ENERGY             -138.247826049202 Eh   |
          | TOTAL ENTHALPY           -137.478315789557 Eh   |
          | TOTAL FREE ENERGY        -137.594924350669 Eh   |
          | GRADIENT NORM               0.000039080149 Eh/α |
          | HOMO-LUMO GAP               0.970352107758 eV   |
           -------------------------------------------------

 * finished run on 2025/09/12 at 07:57:58.396
