   * xtb version 6.7.1 (edcfbbe) compiled by 'albert@albert-system' on 2024-07-22

   ID    Z sym.   atoms
    1    6 C      1-9, 11-18, 20-37, 39-44, 46-54
    2    7 N      10, 19, 38, 45
    3    1 H      55-92

          program call               : xtb data2507/gas/AcDbp/AcDbp_gas_S0_crest.xyz --gfn 2 --ohess vtight --parallel 40 --molden --ceasefiles --namespace data2507/gas/AcDbp/AcDbp_gas_S0_finalOpt
          :  Hamiltonian                  GFN2-xTB          :
 * total energy  :  -138.2480521 Eh     change       -0.1976133E-08 Eh
 * total energy  :  -138.2480533 Eh     change       -0.1180370E-05 Eh
 * total energy  :  -138.2480554 Eh     change       -0.2139376E-05 Eh
 * total energy  :  -138.2480590 Eh     change       -0.3573216E-05 Eh
 * total energy  :  -138.2480609 Eh     change       -0.1861935E-05 Eh
 * total energy  :  -138.2480619 Eh     change       -0.9971002E-06 Eh
 * total energy  :  -138.2480632 Eh     change       -0.1328730E-05 Eh
 * total energy  :  -138.2480649 Eh     change       -0.1718598E-05 Eh
 * total energy  :  -138.2480661 Eh     change       -0.1194607E-05 Eh
 * total energy  :  -138.2480670 Eh     change       -0.8809633E-06 Eh
 * total energy  :  -138.2480864 Eh     change       -0.6818260E-06 Eh
 * total energy  :  -138.2480873 Eh     change       -0.9169770E-06 Eh
 * total energy  :  -138.2480881 Eh     change       -0.8498012E-06 Eh
 * total energy  :  -138.2480890 Eh     change       -0.8745915E-06 Eh
 * total energy  :  -138.2480900 Eh     change       -0.9928855E-06 Eh
 * total energy  :  -138.2480903 Eh     change       -0.2874484E-06 Eh
 * total energy  :  -138.2480907 Eh     change       -0.4444487E-06 Eh
 * total energy  :  -138.2480913 Eh     change       -0.5065641E-06 Eh
 * total energy  :  -138.2480913 Eh     change       -0.2805950E-07 Eh
   *** GEOMETRY OPTIMIZATION CONVERGED AFTER 47 ITERATIONS ***

 final structure:
================
92
 xtb: 6.7.1 (edcfbbe)
C           -8.72983735374664       -1.87250372848972        1.09701432273433
C           -7.88122283528071       -0.84247982349724        0.32919348253939
C           -8.79219838622764        0.15380789232027       -0.41104843183341
C           -7.03432744394447       -1.57437105117043       -0.69404156821675
C           -7.65596177783157       -2.31831615226355       -1.68750480393294
C           -6.93898876176044       -2.98707142571702       -2.66204263308205
C           -5.55855182018806       -2.90314228132854       -2.66153642757678
C           -4.91526857551939       -2.17206432233478       -1.68543724412743
C           -5.63695508169003       -1.51588114028416       -0.68362914276240
N           -4.96140811311539       -0.79712432497504        0.29074396742854
C           -3.54311780360876       -0.81007169020560        0.29217840234054
C           -2.85619430199057       -1.94907296976832        0.71713850007300
C           -1.48074322896177       -1.97068898890857        0.72309728402160
C           -0.72702386163861       -0.86323736723020        0.31290064914585
C            0.72733811975143       -0.86180621459163        0.31439751547484
C            1.48257147568968       -1.96403552518022        0.73573573460304
C            2.85789019338562       -1.93989779846256        0.73214537089387
C            3.54419949492140       -0.80454190437353        0.29578151956556
N            4.96155152258368       -0.78882713008464        0.29792664134652
C            5.62934613540807       -0.03120294175441        1.24986516144132
C            4.90132104953322        0.70388403058047        2.19020609970784
C            5.53923880706543        1.46959263321028        3.14290091366789
C            6.92098797095588        1.51025354151462        3.18267423183139
C            7.64347174883071        0.76436947308847        2.27051353009697
C            7.02711560824936       -0.01562277628247        1.30137403980018
C            7.88201371615902       -0.83521402783918        0.35382680363679
C            8.80089416638902        0.11601978533122       -0.43436194904872
C            8.72209793388197       -1.82356581775188        1.18333355383618
C            7.03951293112096       -1.61936109792309       -0.63352236192939
C            7.66570593574849       -2.41600889453502       -1.58241224570999
C            6.95364065233408       -3.13095825465903       -2.52719083897787
C            5.57385874487682       -3.03840316112904       -2.54429331440258
C            4.92635094222706       -2.25585459829634       -1.61193009194926
C            5.64233284018682       -1.55612958193287       -0.63572340316455
C            2.82545119666802        0.29487444683310       -0.12856275553419
C            1.43014008114027        0.28059985317890       -0.11848826755976
C            0.71243876936070        1.45757026716869       -0.55864501781823
N            1.39660796776356        2.51387289475908       -0.95384278555721
C            0.71148720679456        3.59459020331095       -1.35198379157198
C            1.40233812837349        4.74763890108166       -1.78284685795185
C            0.70055428795959        5.84636320697228       -2.18753954894612
C           -0.70812427492782        5.84785727936033       -2.18119244029679
C           -1.40851347115547        4.75053926966893       -1.77035040523479
C           -0.71620059045527        3.59602624228883       -1.34578761848740
N           -1.39999431196110        2.51635989167341       -0.94262806801978
C           -0.71453939469200        1.45868508012871       -0.55339054840704
C           -1.43097158301175        0.28092277140645       -0.11341157263404
C           -2.82641847191601        0.29429918606720       -0.12160320002727
C           -5.63260586041697       -0.08973772179796        1.27724694420622
C           -4.90697646581683        0.59938701832750        2.25346495822110
C           -5.54805492121679        1.31253802674432        3.24412793033906
C           -6.93000089140631        1.34563448125602        3.28531734910186
C           -7.64989203148297        0.64805467776684        2.33355984848430
C           -7.03050913464438       -0.07804824831432        1.32543071481540
H           -9.36113062386623       -2.43878649439905        0.41782498709237
H           -8.07938801947658       -2.56925469380474        1.62262623325201
H           -9.36861959704634       -1.38318409425390        1.82701852563439
H           -8.18506095625352        0.87596317288715       -0.95373909999396
H           -9.43244237027179       -0.35958823647779       -1.12304530927612
H           -9.42532197347353        0.69402988113421        0.28736956652302
H           -8.73356752938398       -2.38022436723523       -1.70818689527555
H           -7.45452010300918       -3.55892091363749       -3.41846537493454
H           -4.97845776706903       -3.40353127067608       -3.42265709017106
H           -3.83847620895817       -2.10121287991065       -1.70098774332645
H           -3.41786097515172       -2.81392254943343        1.03832344078103
H           -0.98813076008351       -2.86880606415138        1.05851565790714
H            0.99119761261911       -2.85899301063291        1.08125950777474
H            3.42011562876858       -2.80022072280797        1.06438990097619
H            3.82304707022061        0.67099814557190        2.17671401542068
H            4.95325399956456        2.03118494935627        3.85519277975908
H            7.43263285809831        2.10822226581863        3.92134844866948
H            8.72145772213583        0.79204521118258        2.32207493460251
H            9.44418668463512       -0.43778231873313       -1.11249965899798
H            9.43128906317082        0.69242509799259        0.23701210162227
H            8.19952584952363        0.80856571787145       -1.02034885750009
H            9.35657922300376       -1.29631785374804        1.89035840123369
H            8.06585389839896       -2.48891012805345        1.74151866163957
H            9.35697636079923       -2.42774329836498        0.54111624691814
H            8.74313792103049       -2.48358157984320       -1.59045379503797
H            7.47248344627361       -3.74416018445947       -3.24811883689668
H            4.99763949562789       -3.57200299275355       -3.28554474644998
H            3.85044259802767       -2.17823230257642       -1.64349996629724
H            3.32735280487478        1.18678648079010       -0.46987362641990
H            2.48106273057593        4.72626856720394       -1.77937455666102
H            1.22335399940235        6.73162402754439       -2.51868011758197
H           -1.23204017702339        6.73415735680273       -2.50776667222556
H           -2.48720623843183        4.73127250455676       -1.75751449738578
H           -3.32986311159912        1.18824241129884       -0.45512778602212
H           -3.82846850222179        0.57189802307584        2.23653792746756
H           -4.96465314729231        1.83928508424645        3.98461862971583
H           -7.44405567540407        1.90178755275152        4.05437702193005
H           -8.72802493889170        0.67140344599566        2.38457258026761

          :  Hamiltonian                  GFN2-xTB          :
         :: gradient norm              0.000152073562 Eh/a0 ::
         :: HOMO-LUMO gap              1.023415084564 eV    ::
         :: SCC energy              -140.752254411318 Eh    ::
         :: -> dispersion             -0.133025287397 Eh    ::
         :: repulsion energy           2.504163129948 Eh    ::

    * Orbital Energies and Occupations

         #    Occupation            Energy/Eh            Energy/eV
      -------------------------------------------------------------
         1        2.0000           -0.6779258             -18.4473
       ...           ...                  ...                  ...
       117        2.0000           -0.4044509             -11.0057
       118        2.0000           -0.4031166             -10.9694
       119        2.0000           -0.4005683             -10.9000
       120        2.0000           -0.3997567             -10.8779
       121        2.0000           -0.3983796             -10.8405
       122        2.0000           -0.3944875             -10.7346
       123        2.0000           -0.3941532             -10.7255
       124        2.0000           -0.3932596             -10.7011
       125        2.0000           -0.3892015             -10.5907
       126        2.0000           -0.3888814             -10.5820
       127        2.0000           -0.3533734              -9.6158
       128        2.0000           -0.3435855              -9.3494
       129        2.0000           -0.3426516              -9.3240 (HOMO)
       130                         -0.3050417              -8.3006 (LUMO)
       131                         -0.2719023              -7.3988
       132                         -0.2628861              -7.1535
       133                         -0.2295032              -6.2451
       134                         -0.2218297              -6.0363
       135                         -0.2207878              -6.0079
       136                         -0.2203881              -5.9971
       137                         -0.2160235              -5.8783
       138                         -0.2155396              -5.8651
       139                         -0.2145697              -5.8387
       140                         -0.2142396              -5.8298
       ...                                ...                  ...
       254                          0.7119976              19.3744
      -------------------------------------------------------------
                  HL-Gap            0.0376098 Eh            1.0234 eV

     #   Z          covCN         q      C6AA      α(0)
     1   6 C        3.761    -0.103    22.507     6.763
     2   6 C        3.909     0.021    20.157     6.381
     3   6 C        3.761    -0.103    22.512     6.764
     4   6 C        2.980    -0.014    28.355     8.735
     5   6 C        2.928    -0.036    28.901     8.816
     6   6 C        2.917    -0.045    29.115     8.848
     7   6 C        2.920    -0.033    28.825     8.804
     8   6 C        2.924    -0.059    29.459     8.901
     9   6 C        2.928     0.058    26.693     8.473
    10   7 N        2.754    -0.069    22.586     7.058
    11   6 C        2.925     0.071    26.405     8.427
    12   6 C        2.919    -0.037    28.924     8.819
    13   6 C        2.922    -0.034    28.850     8.808
    14   6 C        2.976     0.005    27.910     8.666
    15   6 C        2.976     0.005    27.916     8.667
    16   6 C        2.922    -0.034    28.852     8.808
    17   6 C        2.919    -0.037    28.929     8.820
    18   6 C        2.925     0.071    26.411     8.428
    19   7 N        2.754    -0.069    22.574     7.056
    20   6 C        2.927     0.058    26.693     8.473
    21   6 C        2.924    -0.058    29.448     8.899
    22   6 C        2.920    -0.033    28.814     8.803
    23   6 C        2.917    -0.045    29.107     8.847
    24   6 C        2.928    -0.036    28.902     8.816
    25   6 C        2.980    -0.014    28.351     8.734
    26   6 C        3.909     0.021    20.156     6.381
    27   6 C        3.761    -0.103    22.513     6.764
    28   6 C        3.761    -0.103    22.506     6.763
    29   6 C        2.980    -0.014    28.351     8.734
    30   6 C        2.928    -0.036    28.901     8.816
    31   6 C        2.917    -0.045    29.111     8.848
    32   6 C        2.920    -0.033    28.825     8.804
    33   6 C        2.924    -0.059    29.457     8.901
    34   6 C        2.928     0.058    26.695     8.473
    35   6 C        2.926    -0.038    28.945     8.823
    36   6 C        2.988    -0.000    28.029     8.684
    37   6 C        2.963     0.084    26.136     8.386
    38   7 N        1.848    -0.237    27.047     7.708
    39   6 C        2.968     0.083    26.140     8.386
    40   6 C        2.916    -0.039    28.958     8.824
    41   6 C        2.916    -0.026    28.645     8.777
    42   6 C        2.916    -0.026    28.645     8.777
    43   6 C        2.916    -0.039    28.957     8.824
    44   6 C        2.968     0.083    26.140     8.386
    45   7 N        1.848    -0.237    27.046     7.708
    46   6 C        2.963     0.084    26.136     8.386
    47   6 C        2.988    -0.000    28.028     8.684
    48   6 C        2.926    -0.038    28.937     8.822
    49   6 C        2.927     0.058    26.691     8.473
    50   6 C        2.924    -0.058    29.450     8.899
    51   6 C        2.920    -0.033    28.815     8.803
    52   6 C        2.917    -0.045    29.111     8.848
    53   6 C        2.928    -0.036    28.902     8.816
    54   6 C        2.980    -0.014    28.355     8.735
    55   1 H        0.925     0.039     2.466     2.456
    56   1 H        0.925     0.031     2.578     2.511
    57   1 H        0.925     0.039     2.465     2.455
    58   1 H        0.925     0.032     2.560     2.502
    59   1 H        0.925     0.039     2.467     2.456
    60   1 H        0.925     0.039     2.465     2.455
    61   1 H        0.926     0.029     2.597     2.520
    62   1 H        0.926     0.025     2.655     2.548
    63   1 H        0.926     0.026     2.642     2.542
    64   1 H        0.926     0.023     2.694     2.567
    65   1 H        0.926     0.044     2.390     2.417
    66   1 H        0.926     0.042     2.419     2.432
    67   1 H        0.926     0.042     2.420     2.433
    68   1 H        0.926     0.044     2.391     2.418
    69   1 H        0.926     0.024     2.668     2.554
    70   1 H        0.926     0.027     2.635     2.538
    71   1 H        0.926     0.025     2.652     2.547
    72   1 H        0.926     0.029     2.595     2.519
    73   1 H        0.925     0.039     2.466     2.456
    74   1 H        0.925     0.039     2.464     2.455
    75   1 H        0.925     0.032     2.559     2.502
    76   1 H        0.925     0.039     2.464     2.455
    77   1 H        0.925     0.031     2.578     2.511
    78   1 H        0.925     0.039     2.465     2.455
    79   1 H        0.926     0.029     2.595     2.519
    80   1 H        0.926     0.025     2.653     2.547
    81   1 H        0.926     0.026     2.639     2.541
    82   1 H        0.926     0.023     2.687     2.563
    83   1 H        0.926     0.069     2.095     2.264
    84   1 H        0.926     0.053     2.277     2.360
    85   1 H        0.926     0.041     2.431     2.438
    86   1 H        0.926     0.041     2.431     2.438
    87   1 H        0.926     0.053     2.277     2.360
    88   1 H        0.926     0.069     2.095     2.264
    89   1 H        0.926     0.024     2.678     2.559
    90   1 H        0.926     0.026     2.638     2.540
    91   1 H        0.926     0.025     2.655     2.548
    92   1 H        0.926     0.029     2.597     2.520

molecular dipole:
                 x           y           z       tot (Debye)
 q only:        0.034      -0.013       0.035
   full:        0.035      -0.018       0.033       0.131

 projected vibrational frequencies (cm⁻¹)
eigval :       -0.00    -0.00    -0.00    -0.00     0.00     0.00
eigval :        6.73     8.63    12.48    13.92    18.06    31.26
eigval :       39.75    40.00    44.28    60.79    84.30    88.45
eigval :       91.16    92.89    98.68   101.51   105.45   113.88
eigval :      128.51   128.58   135.90   156.90   175.78   187.35
eigval :      189.93   190.12   206.19   219.04   220.35   234.46
eigval :      238.70   243.20   264.07   287.88   296.60   301.60
eigval :      305.77   311.71   323.04   331.16   331.65   334.26
eigval :      342.73   347.15   367.95   369.06   372.76   373.62
eigval :      379.63   385.11   409.96   412.56   422.01   438.48
eigval :      438.96   448.16   451.63   452.34   455.69   486.20
eigval :      491.62   496.82   515.12   515.26   517.68   536.52
eigval :      545.84   546.33   547.36   547.45   548.42   558.65
eigval :      567.39   586.53   586.69   594.86   599.14   614.24
eigval :      619.84   634.74   652.33   655.69   682.66   682.86
eigval :      685.71   692.04   693.44   693.67   693.92   706.91
eigval :      715.89   736.71   756.40   768.53   773.42   776.29
eigval :      776.50   777.61   777.83   789.37   816.33   820.93
eigval :      827.50   828.36   835.10   861.84   865.22   865.69
eigval :      866.12   866.74   877.12   887.54   892.63   912.86
eigval :      913.00   913.57   913.77   914.78   915.50   915.60
eigval :      917.42   917.74   920.28   920.99   921.04   921.20
eigval :      921.64   930.56   938.31   938.61   957.13   957.20
eigval :      979.55   998.15  1014.44  1014.47  1036.14  1054.49
eigval :     1064.45  1077.36  1077.41  1086.00  1088.51  1114.26
eigval :     1114.67  1120.19  1120.42  1141.32  1141.42  1143.17
eigval :     1154.64  1156.63  1160.42  1160.46  1166.44  1167.87
eigval :     1175.20  1186.13  1187.68  1188.47  1188.73  1189.39
eigval :     1194.85  1219.22  1223.30  1236.46  1242.54  1250.46
eigval :     1250.84  1252.42  1260.88  1265.86  1270.30  1270.57
eigval :     1287.83  1295.49  1295.53  1298.84  1310.23  1317.63
eigval :     1324.65  1326.15  1326.49  1334.92  1335.25  1341.29
eigval :     1343.00  1344.16  1346.96  1369.93  1399.51  1402.79
eigval :     1402.89  1418.35  1420.47  1420.97  1421.25  1435.85
eigval :     1437.02  1443.23  1443.88  1444.26  1471.23  1471.89
eigval :     1480.45  1481.05  1490.30  1490.30  1491.33  1491.33
eigval :     1493.94  1495.71  1499.92  1500.83  1500.84  1505.59
eigval :     1505.64  1508.16  1530.41  1547.58  1553.76  1575.61
eigval :     1575.75  1578.90  1589.88  1591.06  1593.41  1593.62
eigval :     1594.59  1603.05  1603.14  1607.61  3026.14  3026.44
eigval :     3029.03  3029.12  3038.90  3038.94  3041.65  3041.72
eigval :     3048.03  3048.06  3052.42  3052.52  3077.29  3077.37
eigval :     3077.53  3077.74  3079.11  3082.22  3082.34  3082.52
eigval :     3082.79  3086.63  3087.27  3088.04  3093.21  3093.44
eigval :     3093.90  3094.33  3099.55  3099.98  3100.24  3101.51
eigval :     3102.53  3102.61  3104.27  3110.66  3111.00  3114.35

   temp. (K)  partition function   enthalpy   heat capacity  entropy
                                   cal/mol     cal/K/mol   cal/K/mol   J/K/mol
 298.15  VIB  0.172E+21            25900.509    165.292    160.562
         ROT  0.127E+09              888.752      2.981     40.058
         INT  0.219E+29            26789.261    168.273    200.620
         TR   0.177E+29             1481.254      4.968     45.476
         TOT                       28270.5152   173.2414   246.0957  1029.6643

       T/K    H(0)-H(T)+PV         H(T)/Eh          T*S/Eh         G(T)/Eh
   ------------------------------------------------------------------------
    298.15    0.450519E-01    0.769662E+00    0.116928E+00    0.652734E+00
   ------------------------------------------------------------------------

         :::::::::::::::::::::::::::::::::::::::::::::::::::::
         ::                  THERMODYNAMIC                  ::
         :::::::::::::::::::::::::::::::::::::::::::::::::::::
         :: total free energy        -137.595357750719 Eh   ::
         ::.................................................::
         :: total energy             -138.248091280778 Eh   ::
         :: zero point energy           0.724609595409 Eh   ::
         :: G(RRHO) w/o ZPVE           -0.071876065349 Eh   ::
         :: G(RRHO) contrib.            0.652733530059 Eh   ::
         :::::::::::::::::::::::::::::::::::::::::::::::::::::

           -------------------------------------------------
          | TOTAL ENERGY             -138.248091280778 Eh   |
          | TOTAL ENTHALPY           -137.478429751678 Eh   |
          | TOTAL FREE ENERGY        -137.595357750719 Eh   |
          | GRADIENT NORM               0.000152093188 Eh/α |
          | HOMO-LUMO GAP               1.023415854969 eV   |
           -------------------------------------------------

 * finished run on 2025/09/12 at 08:03:48.701
