   * xtb version 6.7.1 (edcfbbe) compiled by 'albert@albert-system' on 2024-07-22

   ID    Z sym.   atoms
    1    6 C      1-9, 11-14, 16-21, 23-28, 30-33, 35-42
    2    7 N      10, 15, 22, 29, 34
    3    1 H      43-65

          program call               : xtb data2507/toluene/11-AcBPdCN/11-AcBPdCN.xyz --gfn 2 --gbsa toluene --ohess vtight --parallel 40 --molden --ceasefiles --namespace data2507/toluene/11-AcBPdCN/11-AcBPdCN_toluene_S0_preOpt
      * Solvation model:               GBSA
        Solvent                        toluene
        Solvent mass                       9.2140E+01 g/mol
          :  Hamiltonian                  GFN2-xTB          :
 * total energy  :  -105.5882437 Eh     change       -0.3239251E-08 Eh
 * total energy  :  -105.6070411 Eh     change       -0.1879741E-01 Eh
 * total energy  :  -105.6123920 Eh     change       -0.5350886E-02 Eh
 * total energy  :  -105.6131710 Eh     change       -0.7789744E-03 Eh
 * total energy  :  -105.6135456 Eh     change       -0.3746572E-03 Eh
 * total energy  :  -105.6136162 Eh     change       -0.7054247E-04 Eh
 * total energy  :  -105.6135744 Eh     change        0.4172187E-04 Eh
 * total energy  :  -105.6136420 Eh     change       -0.6756945E-04 Eh
 * total energy  :  -105.6136451 Eh     change       -0.3080973E-05 Eh
 * total energy  :  -105.6136428 Eh     change        0.2288468E-05 Eh
 * total energy  :  -105.6136476 Eh     change       -0.3655421E-06 Eh
 * total energy  :  -105.6136481 Eh     change       -0.4917474E-06 Eh
 * total energy  :  -105.6136488 Eh     change       -0.7099848E-06 Eh
 * total energy  :  -105.6136495 Eh     change       -0.7130321E-06 Eh
 * total energy  :  -105.6136500 Eh     change       -0.5095418E-06 Eh
 * total energy  :  -105.6136504 Eh     change       -0.3768440E-06 Eh
 * total energy  :  -105.6136507 Eh     change       -0.3021877E-06 Eh
 * total energy  :  -105.6136509 Eh     change       -0.2166999E-06 Eh
 * total energy  :  -105.6136509 Eh     change       -0.4753531E-10 Eh
   *** GEOMETRY OPTIMIZATION CONVERGED AFTER 22 ITERATIONS ***

 final structure:
================
65
 xtb: 6.7.1 (edcfbbe)
C           -6.17277978033418       -1.76239055705353       -0.00023459164814
C           -5.64850495964644       -0.31398268549262       -0.00006641326368
C           -6.82666976380871        0.67825255868131        0.00002005491440
C           -4.82722888497090       -0.09494457993386       -1.25764812099591
C           -5.42814810548617       -0.23415736630837       -2.50163765861863
C           -4.73083602168322       -0.04556615169712       -3.68112036050369
C           -3.39035051095827        0.29125064076582       -3.62832218468730
C           -2.76698785236209        0.43322949575768       -2.40584774201789
C           -3.47073437279611        0.24308037258112       -1.21335791043341
N           -2.81508415713867        0.39298387216768        0.00006632789780
C           -1.43786850527764        0.74223900713866        0.00014717134523
C           -1.08014789774756        2.11275718689587        0.00041650548387
C            0.22891205921882        2.49443699846557        0.00050837137322
C            1.24685134057611        1.51417354615750        0.00033772966526
N            2.53359713420386        1.88468725575282        0.00039645627571
C            3.45515513534490        0.93879135937272        0.00022831140641
C            4.85115216149707        1.31985697039143        0.00022679725137
C            5.18830769005644        2.67843301352033        0.00048306485890
C            6.50050959185556        3.08131493614612        0.00049445235826
C            7.50743163832388        2.10692300129142        0.00023340360692
C            8.86612086902002        2.49913753648455        0.00022462461158
N            9.96831396620869        2.81776528727225        0.00021935512351
C            7.18748918126448        0.75515334860278       -0.00003373011955
C            5.85683114128467        0.33047991686755       -0.00001919964421
C            5.48958269113247       -1.08125722621997       -0.00019624107509
C            6.44453671732518       -2.10060966247980       -0.00044420276370
C            6.06478776814995       -3.43680851841828       -0.00059362263581
C            7.06015977185823       -4.44143149978203       -0.00087807592581
N            7.86772754069728       -5.25634385374738       -0.00105325253653
C            4.71082100131175       -3.79723840171664       -0.00048035849514
C            3.76130051051867       -2.80588377334914       -0.00028738756315
C            4.12945772133321       -1.45541677571189       -0.00015841458792
C            3.09580831424062       -0.44245113027204        0.00002223064741
N            1.83086562568556       -0.82029641613521       -0.00004528726642
C            0.88723951819376        0.13103055169279        0.00009011097646
C           -0.47559785806142       -0.23259574263631       -0.00000706005900
C           -3.47078913049703        0.24283833828389        1.21343061281544
C           -2.76708931290911        0.43273269291684        2.40598919892483
C           -3.39049245594372        0.29046408336058        3.62840891084970
C           -4.73097181685628       -0.04639664216288        3.68108247119366
C           -5.42823905393135       -0.23473132714333        2.50153177069651
C           -4.82727933257001       -0.09521824141196        1.25759545113155
H           -6.77962001909673       -1.95443462973167        0.88029550931931
H           -6.77958185939761       -1.95424547727825       -0.88083255621804
H           -5.33675920322382       -2.45990581251585       -0.00029048926499
H           -7.44894619377927        0.54133764924371        0.87980119459197
H           -6.45191493934191        1.70049883140123        0.00012866588529
H           -7.44892605950706        0.54151787948914       -0.87980315242465
H           -6.47308022914556       -0.49851689479866       -2.55891045613525
H           -5.23060339355174       -0.16119757308853       -4.63106651629359
H           -2.82602478554798        0.44410559267016       -4.53659030422926
H           -1.72010975914725        0.69514051362507       -2.37204434046631
H           -1.87107934252079        2.84800681498187        0.00054682249462
H            0.51943821858034        3.53334875005249        0.00069876114600
H            4.38428643669643        3.39717609405553        0.00068380052616
H            6.76403381000763        4.12788371553030        0.00066732478093
H            7.99859805553804        0.04498553081116       -0.00023290210939
H            7.49891044650875       -1.87585233987859       -0.00060041207348
H            4.43135967514235       -4.83969413749099       -0.00054623197137
H            2.70874021645177       -3.04096399290242       -0.00014416895463
H           -0.73552424067716       -1.27991179556794       -0.00019231000495
H           -1.72021372165358        0.69466578132536        2.37228292550272
H           -2.82620022692193        0.44311654660599        4.53673158024020
H           -5.23077067312814       -0.16224908471076        4.63098474232670
H           -6.47317252860692       -0.49910538072337        2.55870894476497

          :  Hamiltonian                  GFN2-xTB          :
         :: gradient norm              0.000115252566 Eh/a0 ::
         :: HOMO-LUMO gap              0.642964857921 eV    ::
         :: SCC energy              -107.584640730238 Eh    ::
         :: -> dispersion             -0.092528267851 Eh    ::
         :: -> Gsolv                  -0.048656423095 Eh    ::
         :: repulsion energy           1.970989847077 Eh    ::

    * Orbital Energies and Occupations

         #    Occupation            Energy/Eh            Energy/eV
      -------------------------------------------------------------
         1        2.0000           -0.6984141             -19.0048
       ...           ...                  ...                  ...
        86        2.0000           -0.4364686             -11.8769
        87        2.0000           -0.4317003             -11.7472
        88        2.0000           -0.4298498             -11.6968
        89        2.0000           -0.4260727             -11.5940
        90        2.0000           -0.4179779             -11.3738
        91        2.0000           -0.4164758             -11.3329
        92        2.0000           -0.4108650             -11.1802
        93        2.0000           -0.4102730             -11.1641
        94        2.0000           -0.4066947             -11.0667
        95        2.0000           -0.4010412             -10.9129
        96        2.0000           -0.3956492             -10.7662
        97        2.0000           -0.3735835             -10.1657
        98        2.0000           -0.3509275              -9.5492 (HOMO)
        99        0.0000           -0.3272989              -8.9063 (LUMO)
       100                         -0.3052577              -8.3065
       101                         -0.2813225              -7.6552
       102                         -0.2738569              -7.4520
       103                         -0.2547461              -6.9320
       104                         -0.2350602              -6.3963
       105                         -0.2328826              -6.3371
       106                         -0.2274029              -6.1879
       107                         -0.2229185              -6.0659
       108                         -0.2224348              -6.0528
       109                         -0.2223643              -6.0508
       ...                                ...                  ...
       191                          1.1506843              31.3117
      -------------------------------------------------------------
                  HL-Gap            0.0236285 Eh            0.6430 eV

     #   Z          covCN         q      C6AA      α(0)
     1   6 C        3.761    -0.104    22.533     6.767
     2   6 C        3.908     0.021    20.162     6.382
     3   6 C        3.761    -0.104    22.540     6.768
     4   6 C        2.978    -0.013    28.332     8.731
     5   6 C        2.928    -0.037    28.913     8.818
     6   6 C        2.917    -0.046    29.131     8.851
     7   6 C        2.919    -0.034    28.854     8.809
     8   6 C        2.924    -0.060    29.489     8.905
     9   6 C        2.928     0.058    26.701     8.474
    10   7 N        2.755    -0.075    22.693     7.075
    11   6 C        2.923     0.079    26.230     8.399
    12   6 C        2.918    -0.033    28.810     8.802
    13   6 C        2.915    -0.039    28.969     8.826
    14   6 C        2.965     0.082    26.177     8.392
    15   7 N        1.848    -0.240    27.131     7.720
    16   6 C        2.960     0.083    26.148     8.387
    17   6 C        2.987     0.005    27.906     8.665
    18   6 C        2.923    -0.022    28.548     8.762
    19   6 C        2.922    -0.016    28.416     8.742
    20   6 C        2.972     0.024    27.470     8.597
    21   6 C        1.913     0.120    28.154     8.569
    22   7 N        0.911    -0.253    26.587     7.458
    23   6 C        2.930    -0.022    28.555     8.764
    24   6 C        2.975     0.013    27.727     8.637
    25   6 C        2.975     0.013    27.724     8.637
    26   6 C        2.930    -0.022    28.556     8.764
    27   6 C        2.972     0.024    27.467     8.597
    28   6 C        1.913     0.120    28.153     8.569
    29   7 N        0.911    -0.253    26.581     7.457
    30   6 C        2.922    -0.016    28.415     8.742
    31   6 C        2.923    -0.022    28.544     8.761
    32   6 C        2.987     0.005    27.909     8.666
    33   6 C        2.960     0.084    26.123     8.383
    34   7 N        1.849    -0.243    27.184     7.727
    35   6 C        2.965     0.084    26.120     8.383
    36   6 C        2.919    -0.050    29.250     8.869
    37   6 C        2.928     0.058    26.701     8.474
    38   6 C        2.924    -0.060    29.489     8.905
    39   6 C        2.919    -0.034    28.854     8.809
    40   6 C        2.917    -0.046    29.131     8.851
    41   6 C        2.928    -0.037    28.913     8.818
    42   6 C        2.978    -0.013    28.332     8.731
    43   1 H        0.925     0.043     2.414     2.430
    44   1 H        0.925     0.043     2.414     2.430
    45   1 H        0.925     0.031     2.579     2.511
    46   1 H        0.925     0.043     2.413     2.429
    47   1 H        0.925     0.031     2.577     2.510
    48   1 H        0.925     0.043     2.413     2.429
    49   1 H        0.926     0.035     2.516     2.480
    50   1 H        0.926     0.028     2.618     2.530
    51   1 H        0.926     0.027     2.624     2.533
    52   1 H        0.926     0.018     2.763     2.599
    53   1 H        0.926     0.063     2.166     2.302
    54   1 H        0.926     0.069     2.101     2.267
    55   1 H        0.926     0.074     2.042     2.234
    56   1 H        0.926     0.058     2.221     2.331
    57   1 H        0.926     0.056     2.245     2.343
    58   1 H        0.926     0.056     2.243     2.342
    59   1 H        0.926     0.058     2.222     2.331
    60   1 H        0.926     0.074     2.046     2.237
    61   1 H        0.926     0.065     2.137     2.286
    62   1 H        0.926     0.018     2.763     2.599
    63   1 H        0.926     0.027     2.624     2.533
    64   1 H        0.926     0.028     2.618     2.530
    65   1 H        0.926     0.035     2.516     2.480

molecular dipole:
                 x           y           z       tot (Debye)
 q only:       -2.321       0.663       0.000
   full:       -2.915       0.861       0.000       7.725

 projected vibrational frequencies (cm⁻¹)
eigval :       -0.00    -0.00    -0.00     0.00     0.00     0.00
eigval :      -26.58     8.45    14.79    17.33    40.33    42.08
eigval :       56.86    75.21    80.29    82.64    94.25    97.20
eigval :      102.50   128.86   131.36   138.32   140.46   171.94
eigval :      194.34   195.19   198.31   219.62   229.36   245.45
eigval :      256.57   271.29   287.26   304.99   308.55   329.62
eigval :      341.50   344.18   361.97   363.85   368.82   379.99
eigval :      387.28   390.75   407.22   417.41   426.73   438.66
eigval :      445.69   465.30   478.78   488.56   493.38   505.86
eigval :      512.86   529.65   541.83   545.45   552.23   556.52
eigval :      573.94   577.78   586.49   597.75   625.38   632.97
eigval :      633.01   635.75   648.44   668.53   675.21   679.22
eigval :      690.45   690.88   712.97   728.22   736.02   769.99
eigval :      773.50   774.12   795.06   813.05   825.83   826.62
eigval :      832.52   833.50   857.47   859.96   862.42   863.09
eigval :      871.69   878.09   907.92   908.63   915.23   918.72
eigval :      918.74   921.51   925.24   925.39   937.89   950.62
eigval :      957.26   962.23   983.01  1011.89  1045.95  1059.79
eigval :     1075.64  1079.82  1111.54  1117.62  1135.63  1139.26
eigval :     1143.58  1145.57  1158.11  1159.67  1181.76  1183.33
eigval :     1185.95  1186.38  1193.13  1206.29  1231.65  1236.18
eigval :     1239.06  1248.23  1251.28  1265.58  1282.02  1288.06
eigval :     1292.55  1294.83  1301.61  1314.50  1323.12  1331.54
eigval :     1332.55  1337.29  1348.24  1370.30  1389.29  1399.17
eigval :     1406.69  1418.15  1423.08  1434.04  1435.96  1439.57
eigval :     1448.94  1471.00  1476.81  1478.52  1486.13  1487.71
eigval :     1493.84  1497.50  1501.15  1502.03  1519.32  1541.49
eigval :     1545.05  1570.84  1574.36  1583.13  1588.94  1589.92
eigval :     1596.07  1601.46  2364.71  2366.43  3021.49  3023.93
eigval :     3039.67  3042.83  3048.21  3053.29  3073.43  3073.46
eigval :     3080.94  3081.04  3088.90  3089.06  3090.84  3095.39
eigval :     3096.79  3097.55  3098.45  3102.58  3104.47  3106.05
eigval :     3114.01  3114.15  3115.77

   temp. (K)  partition function   enthalpy   heat capacity  entropy
                                   cal/mol     cal/K/mol   cal/K/mol   J/K/mol
 298.15  VIB  0.793E+14            18947.711    122.157    116.453
         ROT  0.632E+08              888.752      2.981     38.677
         INT  0.501E+22            19836.463    125.138    155.130
         TR   0.121E+29             1481.254      4.968     44.711
         TOT                       21317.7172   130.1059   199.8408   836.1340

       T/K    H(0)-H(T)+PV         H(T)/Eh          T*S/Eh         G(T)/Eh
   ------------------------------------------------------------------------
    298.15    0.339719E-01    0.519594E+00    0.949508E-01    0.424643E+00
   ------------------------------------------------------------------------

         :::::::::::::::::::::::::::::::::::::::::::::::::::::
         ::                  THERMODYNAMIC                  ::
         :::::::::::::::::::::::::::::::::::::::::::::::::::::
         :: total free energy        -105.189008090783 Eh   ::
         ::.................................................::
         :: total energy             -105.613650882467 Eh   ::
         :: zero point energy           0.485621673841 Eh   ::
         :: G(RRHO) w/o ZPVE           -0.060978882157 Eh   ::
         :: G(RRHO) contrib.            0.424642791684 Eh   ::
         :::::::::::::::::::::::::::::::::::::::::::::::::::::

           -------------------------------------------------
          | TOTAL ENERGY             -105.613650882467 Eh   |
          | TOTAL ENTHALPY           -105.094057263883 Eh   |
          | TOTAL FREE ENERGY        -105.189008090783 Eh   |
          | GRADIENT NORM               0.000115223331 Eh/α |
          | HOMO-LUMO GAP               0.642964910724 eV   |
           -------------------------------------------------

 * finished run on 2025/07/20 at 00:05:21.571
