   * xtb version 6.7.1 (edcfbbe) compiled by 'albert@albert-system' on 2024-07-22

   ID    Z sym.   atoms
    1    6 C      1-9, 11-14, 16-21, 23-28, 30-33, 35-42
    2    7 N      10, 15, 22, 29, 34
    3    1 H      43-65

          program call               : xtb data2507/toluene/11-AcBPdCN/11-AcBPdCN_toluene_S0_crest.xyz --gfn 2 --gbsa toluene --ohess vtight --parallel 40 --molden --ceasefiles --namespace data2507/toluene/11-AcBPdCN/11-AcBPdCN_toluene_S0_finalOpt
      * Solvation model:               GBSA
        Solvent                        toluene
        Solvent mass                       9.2140E+01 g/mol
          :  Hamiltonian                  GFN2-xTB          :
 * total energy  :  -105.6160750 Eh     change       -0.1715193E-08 Eh
 * total energy  :  -105.6161127 Eh     change       -0.3768933E-04 Eh
 * total energy  :  -105.6161221 Eh     change       -0.9391205E-05 Eh
 * total energy  :  -105.6161213 Eh     change        0.7125340E-06 Eh
 * total energy  :  -105.6161269 Eh     change       -0.5564171E-05 Eh
 * total energy  :  -105.6161277 Eh     change       -0.7644574E-06 Eh
 * total energy  :  -105.6161286 Eh     change       -0.9768208E-06 Eh
 * total energy  :  -105.6161295 Eh     change       -0.8663734E-06 Eh
 * total energy  :  -105.6161300 Eh     change       -0.4870387E-06 Eh
 * total energy  :  -105.6161307 Eh     change       -0.7365308E-06 Eh
 * total energy  :  -105.6161328 Eh     change       -0.2634136E-06 Eh
 * total energy  :  -105.6161331 Eh     change       -0.2988764E-06 Eh
 * total energy  :  -105.6161334 Eh     change       -0.2948639E-06 Eh
 * total energy  :  -105.6161336 Eh     change       -0.2361991E-06 Eh
 * total energy  :  -105.6161338 Eh     change       -0.1899137E-06 Eh
 * total energy  :  -105.6161340 Eh     change       -0.1546774E-06 Eh
 * total energy  :  -105.6161341 Eh     change       -0.1538147E-06 Eh
 * total energy  :  -105.6161344 Eh     change       -0.2350965E-06 Eh
 * total energy  :  -105.6161344 Eh     change       -0.2023341E-08 Eh
   *** GEOMETRY OPTIMIZATION CONVERGED AFTER 22 ITERATIONS ***

 final structure:
================
65
 xtb: 6.7.1 (edcfbbe)
C           -4.64523105700762       -0.07940895420439        2.43359368753386
C           -5.69021356009474       -0.40550479925047        1.34640858347393
C           -6.98710899877113       -0.81396329568163        2.04550704773506
C           -5.14576144974336       -1.50131863050794        0.44465199897036
C           -5.58350331942436       -2.81709764913255        0.45778441589981
C           -5.05178634446058       -3.75242997714739       -0.41457013231817
C           -4.09367301501519       -3.37763692402851       -1.33980672380755
C           -3.64836123961487       -2.06888661477775       -1.37563961421600
C           -4.14688242491959       -1.14458809661271       -0.46678025814950
N           -3.74397460492053        0.21086894172754       -0.50364485056295
C           -2.43953191465327        0.61543555807025       -0.39607485866012
C           -2.13571812260078        2.00359769265318       -0.25154673307035
C           -0.85791151260273        2.45346759195975       -0.14896022591169
C            0.22670957269873        1.54546836103577       -0.16225196594681
N            1.48024489061833        1.98621140739421       -0.07551468407885
C            2.45507128217990        1.08542999495204       -0.05128257885236
C            3.82262694815512        1.53944056828083        0.03627274887007
C            4.08725592616203        2.91436990929812        0.08427439295590
C            5.37256918492259        3.38613209804249        0.16412202871610
C            6.43128959408555        2.46743294972593        0.19856075480882
C            7.76303249248529        2.93114662643639        0.27992318415405
N            8.84502246473883        3.30849394858367        0.34752003026406
C            6.18469029415388        1.10117461467021        0.15319535457009
C            4.88139239972718        0.60643011021320        0.07246484052015
C            4.59048828983321       -0.82095754562284        0.02467263470392
C            5.59620691026429       -1.78979473357888        0.06562889343264
C            5.28946013619623       -3.14340463524549        0.01819066692387
C            6.33343814007236       -4.09484842448295        0.06346567892641
N            7.17973764158832       -4.86918843193037        0.10008737592067
C            3.95824301534818       -3.57282364644021       -0.07227518483926
C            2.96035369988803       -2.63187155783629       -0.11270609681079
C            3.25420404532351       -1.26403114157802       -0.06468094698513
C            2.16808500992235       -0.30760303815245       -0.10724987955013
N            0.92862915290940       -0.75739560644253       -0.19801188006843
C           -0.06781176699761        0.14552341210978       -0.23449509371788
C           -1.39241098600202       -0.29141963949344       -0.33906989269267
C           -4.84828681479945        1.09146023400837       -0.45885527719920
C           -4.96445953328423        2.14311426168604       -1.35957406242682
C           -6.07750807984768        2.96272159327075       -1.32031864455085
C           -7.08101503033214        2.71401827607257       -0.40051872311384
C           -6.98432207523198        1.63670953863859        0.46504806513379
C           -5.87273266812124        0.80781981049414        0.44969640404345
H           -4.48363337868624       -0.95270181219800        3.06201144663524
H           -3.68992575925423        0.21191084854549        2.00546542720315
H           -5.00420242531192        0.73726043195536        3.05647151872036
H           -7.33585627527593       -0.00793458822556        2.68591448348169
H           -7.76255551886083       -1.05490591902563        1.32191589153442
H           -6.81270728021016       -1.67802730956633        2.68132380301038
H           -6.34737445614804       -3.12972287704450        1.15048068842324
H           -5.40119245544285       -4.77352510541729       -0.38119187650549
H           -3.70014850314773       -4.09722827862439       -2.04192755041952
H           -2.92895651537698       -1.75786546657439       -2.11804264270557
H           -2.94752683392874        2.71105112613897       -0.19391250566540
H           -0.64230831277346        3.50497261471400       -0.03772015978215
H            3.24597913384053        3.58868084742406        0.05541341037308
H            5.57919285627437        4.44502084306100        0.20074667473995
H            7.03211332167283        0.43491961085712        0.18228948976348
H            6.63519469771567       -1.50983311987586        0.13523821756221
H            3.73525006805684       -4.62835640131069       -0.10827722620780
H            1.92291438467324       -2.91905373211903       -0.18107149885971
H           -1.56056521667406       -1.35522253751626       -0.35291396380620
H           -4.19193887838441        2.30475703388436       -2.09695390788451
H           -6.16369566667194        3.78379866017173       -2.01599640043146
H           -7.95243339656759        3.35056864214028       -0.36570708730058
H           -7.79096075794665        1.45223419592854        1.15515952569390

          :  Hamiltonian                  GFN2-xTB          :
         :: gradient norm              0.000047405868 Eh/a0 ::
         :: HOMO-LUMO gap              1.283987515021 eV    ::
         :: SCC energy              -107.586523289095 Eh    ::
         :: -> dispersion             -0.093189962892 Eh    ::
         :: -> Gsolv                  -0.050296805463 Eh    ::
         :: repulsion energy           1.970388915590 Eh    ::

    * Orbital Energies and Occupations

         #    Occupation            Energy/Eh            Energy/eV
      -------------------------------------------------------------
         1        2.0000           -0.6841366             -18.6163
       ...           ...                  ...                  ...
        86        2.0000           -0.4323387             -11.7645
        87        2.0000           -0.4294322             -11.6854
        88        2.0000           -0.4239239             -11.5356
        89        2.0000           -0.4220162             -11.4836
        90        2.0000           -0.4210547             -11.4575
        91        2.0000           -0.4173781             -11.3574
        92        2.0000           -0.4107458             -11.1770
        93        2.0000           -0.4099668             -11.1558
        94        2.0000           -0.4069167             -11.0728
        95        2.0000           -0.4058626             -11.0441
        96        2.0000           -0.4049021             -11.0179
        97        2.0000           -0.3665648              -9.9747
        98        2.0000           -0.3605200              -9.8102 (HOMO)
        99                         -0.3133343              -8.5263 (LUMO)
       100                         -0.2968611              -8.0780
       101                         -0.2746112              -7.4726
       102                         -0.2661035              -7.2410
       103                         -0.2448374              -6.6624
       104                         -0.2353198              -6.4034
       105                         -0.2310063              -6.2860
       106                         -0.2299706              -6.2578
       107                         -0.2268891              -6.1740
       108                         -0.2227347              -6.0609
       109                         -0.2193333              -5.9684
       ...                                ...                  ...
       191                          1.1541466              31.4059
      -------------------------------------------------------------
                  HL-Gap            0.0471857 Eh            1.2840 eV

     #   Z          covCN         q      C6AA      α(0)
     1   6 C        3.761    -0.100    22.448     6.754
     2   6 C        3.910     0.023    20.127     6.377
     3   6 C        3.759    -0.110    22.658     6.786
     4   6 C        2.987    -0.004    28.116     8.698
     5   6 C        2.923    -0.037    28.926     8.820
     6   6 C        2.919    -0.035    28.867     8.811
     7   6 C        2.920    -0.032    28.808     8.802
     8   6 C        2.920    -0.045    29.107     8.847
     9   6 C        2.951     0.053    26.813     8.493
    10   7 N        2.754    -0.054    22.289     7.012
    11   6 C        2.907     0.073    26.366     8.420
    12   6 C        2.919    -0.046    29.133     8.851
    13   6 C        2.913    -0.044    29.086     8.844
    14   6 C        2.967     0.079    26.231     8.401
    15   7 N        1.847    -0.257    27.530     7.776
    16   6 C        2.963     0.075    26.329     8.416
    17   6 C        2.986     0.004    27.935     8.670
    18   6 C        2.923    -0.025    28.625     8.774
    19   6 C        2.922    -0.019    28.475     8.751
    20   6 C        2.972     0.018    27.600     8.617
    21   6 C        1.913     0.119    28.175     8.572
    22   7 N        0.911    -0.263    26.827     7.491
    23   6 C        2.930    -0.024    28.592     8.769
    24   6 C        2.975     0.007    27.849     8.656
    25   6 C        2.975     0.009    27.804     8.649
    26   6 C        2.931    -0.024    28.591     8.769
    27   6 C        2.972     0.020    27.558     8.611
    28   6 C        1.913     0.119    28.164     8.571
    29   7 N        0.911    -0.260    26.755     7.481
    30   6 C        2.922    -0.019    28.474     8.751
    31   6 C        2.923    -0.024    28.592     8.769
    32   6 C        2.987     0.003    27.951     8.672
    33   6 C        2.958     0.083    26.140     8.386
    34   7 N        1.849    -0.268    27.809     7.816
    35   6 C        2.961     0.083    26.141     8.386
    36   6 C        2.923    -0.083    30.071     8.993
    37   6 C        2.951     0.053    26.817     8.494
    38   6 C        2.920    -0.046    29.132     8.851
    39   6 C        2.919    -0.033    28.812     8.802
    40   6 C        2.919    -0.035    28.868     8.811
    41   6 C        2.923    -0.037    28.918     8.819
    42   6 C        2.987    -0.004    28.115     8.698
    43   1 H        0.925     0.043     2.405     2.425
    44   1 H        0.925     0.031     2.568     2.506
    45   1 H        0.925     0.044     2.400     2.422
    46   1 H        0.925     0.047     2.361     2.403
    47   1 H        0.925     0.043     2.415     2.430
    48   1 H        0.925     0.046     2.365     2.405
    49   1 H        0.926     0.050     2.322     2.383
    50   1 H        0.926     0.040     2.455     2.450
    51   1 H        0.926     0.039     2.461     2.453
    52   1 H        0.926     0.040     2.447     2.446
    53   1 H        0.926     0.057     2.229     2.335
    54   1 H        0.926     0.056     2.244     2.343
    55   1 H        0.926     0.069     2.101     2.267
    56   1 H        0.926     0.052     2.295     2.369
    57   1 H        0.926     0.050     2.323     2.383
    58   1 H        0.926     0.051     2.311     2.377
    59   1 H        0.926     0.053     2.278     2.360
    60   1 H        0.926     0.070     2.081     2.256
    61   1 H        0.926     0.052     2.291     2.367
    62   1 H        0.926     0.040     2.449     2.447
    63   1 H        0.926     0.039     2.456     2.451
    64   1 H        0.926     0.040     2.453     2.449
    65   1 H        0.926     0.050     2.321     2.382

molecular dipole:
                 x           y           z       tot (Debye)
 q only:       -5.095       0.303       0.153
   full:       -5.638       0.490       0.063      14.385

 projected vibrational frequencies (cm⁻¹)
eigval :       -0.00    -0.00    -0.00    -0.00     0.00     0.00
eigval :        9.54    15.58    33.36    38.75    43.36    63.96
eigval :       68.51    75.23    79.51    81.38    89.78   127.93
eigval :      130.72   140.33   142.94   147.99   165.92   173.86
eigval :      179.18   204.67   218.57   230.43   243.59   256.89
eigval :      281.38   287.06   303.43   309.86   323.89   332.19
eigval :      333.63   350.99   361.12   373.72   385.79   392.00
eigval :      401.85   405.71   407.07   419.77   432.51   434.68
eigval :      457.35   467.09   484.37   488.78   491.08   500.97
eigval :      517.71   536.06   552.18   554.82   563.66   571.28
eigval :      573.67   578.16   582.70   589.67   601.83   624.69
eigval :      629.82   637.64   649.09   663.98   677.49   689.90
eigval :      693.77   713.29   723.77   725.82   731.66   764.28
eigval :      778.61   786.36   794.81   809.52   809.91   829.85
eigval :      830.51   833.31   854.74   857.09   857.74   869.59
eigval :      887.70   890.42   906.68   913.15   919.65   923.27
eigval :      924.05   925.07   937.03   943.45   945.04   950.80
eigval :      963.54   966.45   987.12  1009.84  1046.24  1064.00
eigval :     1072.31  1076.14  1099.01  1106.98  1136.92  1143.95
eigval :     1144.11  1151.29  1161.79  1172.91  1181.36  1182.87
eigval :     1185.64  1188.75  1195.61  1222.21  1230.21  1233.50
eigval :     1237.43  1252.16  1256.98  1266.98  1271.84  1280.09
eigval :     1286.20  1292.96  1302.03  1315.83  1318.75  1321.32
eigval :     1324.47  1340.72  1366.15  1376.54  1390.62  1396.57
eigval :     1414.43  1421.28  1429.24  1434.66  1437.02  1446.95
eigval :     1450.90  1451.88  1468.29  1471.02  1477.15  1488.91
eigval :     1492.00  1495.98  1503.01  1516.92  1519.61  1539.18
eigval :     1544.16  1571.17  1574.48  1582.67  1582.82  1587.14
eigval :     1591.90  1601.01  2361.02  2363.92  3027.67  3029.92
eigval :     3034.50  3034.55  3049.44  3049.99  3078.19  3079.93
eigval :     3082.95  3086.96  3093.77  3093.84  3094.24  3094.62
eigval :     3096.36  3101.99  3110.05  3110.98  3111.68  3112.05
eigval :     3114.83  3115.89  3122.26

   temp. (K)  partition function   enthalpy   heat capacity  entropy
                                   cal/mol     cal/K/mol   cal/K/mol   J/K/mol
 298.15  VIB  0.453E+14            19097.645    123.494    116.872
         ROT  0.618E+08              888.752      2.981     38.631
         INT  0.280E+22            19986.398    126.475    155.503
         TR   0.121E+29             1481.254      4.968     44.711
         TOT                       21467.6516   131.4435   200.2144   837.6969

       T/K    H(0)-H(T)+PV         H(T)/Eh          T*S/Eh         G(T)/Eh
   ------------------------------------------------------------------------
    298.15    0.342109E-01    0.521236E+00    0.951283E-01    0.426108E+00
   ------------------------------------------------------------------------

         :::::::::::::::::::::::::::::::::::::::::::::::::::::
         ::                  THERMODYNAMIC                  ::
         :::::::::::::::::::::::::::::::::::::::::::::::::::::
         :: total free energy        -105.190026621631 Eh   ::
         ::.................................................::
         :: total energy             -105.616134378328 Eh   ::
         :: zero point energy           0.487025176366 Eh   ::
         :: G(RRHO) w/o ZPVE           -0.060917419669 Eh   ::
         :: G(RRHO) contrib.            0.426107756697 Eh   ::
         :::::::::::::::::::::::::::::::::::::::::::::::::::::

           -------------------------------------------------
          | TOTAL ENERGY             -105.616134378328 Eh   |
          | TOTAL ENTHALPY           -105.094898321556 Eh   |
          | TOTAL FREE ENERGY        -105.190026621631 Eh   |
          | GRADIENT NORM               0.000047402772 Eh/α |
          | HOMO-LUMO GAP               1.283987711348 eV   |
           -------------------------------------------------

 * finished run on 2025/07/20 at 00:08:28.325
