   * xtb version 6.7.1 (edcfbbe) compiled by 'albert@albert-system' on 2024-07-22

   ID    Z sym.   atoms
    1    6 C      1-9, 11-14, 16-21, 23-28, 30-33, 35-42
    2    7 N      10, 15, 22, 29, 34
    3    1 H      43-65

          program call               : xtb data2507/toluene/11-AcBPdCN/11-AcBPdCN_toluene_S0_finalOpt.xtbopt.xyz --gfn 2 --uhf 2 --gbsa toluene --ohess vtight --parallel 40 --molden --ceasefiles --namespace data2507/toluene/11-AcBPdCN/11-AcBPdCN_toluene_T1_preOpt
      * Solvation model:               GBSA
        Solvent                        toluene
        Solvent mass                       9.2140E+01 g/mol
          :  Hamiltonian                  GFN2-xTB          :
 * total energy  :  -105.5625603 Eh     change       -0.9144387E-08 Eh
 * total energy  :  -105.5651788 Eh     change       -0.2618467E-02 Eh
 * total energy  :  -105.5662824 Eh     change       -0.1103552E-02 Eh
 * total energy  :  -105.5664355 Eh     change       -0.1531254E-03 Eh
 * total energy  :  -105.5662589 Eh     change        0.1766069E-03 Eh
 * total energy  :  -105.5665422 Eh     change       -0.2832974E-03 Eh
 * total energy  :  -105.5665516 Eh     change       -0.9459472E-05 Eh
 * total energy  :  -105.5665662 Eh     change       -0.1460323E-04 Eh
 * total energy  :  -105.5665764 Eh     change       -0.1014669E-04 Eh
 * total energy  :  -105.5665892 Eh     change       -0.1284343E-04 Eh
 * total energy  :  -105.5667674 Eh     change       -0.3502753E-06 Eh
 * total energy  :  -105.5667678 Eh     change       -0.3590037E-06 Eh
 * total energy  :  -105.5667679 Eh     change       -0.1500056E-06 Eh
 * total energy  :  -105.5667681 Eh     change       -0.1575968E-06 Eh
 * total energy  :  -105.5667683 Eh     change       -0.1727289E-06 Eh
 * total energy  :  -105.5667683 Eh     change        0.1013447E-08 Eh
 * total energy  :  -105.5667684 Eh     change       -0.1488606E-06 Eh
 * total energy  :  -105.5667685 Eh     change       -0.1193979E-06 Eh
 * total energy  :  -105.5667686 Eh     change       -0.4396763E-07 Eh
   *** GEOMETRY OPTIMIZATION CONVERGED AFTER 61 ITERATIONS ***

 final structure:
================
65
 xtb: 6.7.1 (edcfbbe)
C           -4.69766542548231       -0.19730645365673        2.44465811397723
C           -5.71848072917273       -0.48434719550229        1.32348454327725
C           -7.01544147563359       -0.96459763601752        1.97550593860573
C           -5.13263538689422       -1.51240252504349        0.37087318508930
C           -5.52348257680199       -2.84055312862836        0.31039107604131
C           -4.94049348358294       -3.71499933367672       -0.59342363083584
C           -3.97099679479782       -3.26633128877435       -1.47341583551657
C           -3.56863327443752       -1.94435033736924       -1.43526782654234
C           -4.12377918576192       -1.07839959698913       -0.49853804889952
N           -3.76330443696689        0.28173450259458       -0.45692639961736
C           -2.45983496657083        0.71505269015174       -0.37209473022070
C           -2.14737849497235        2.07818130533608       -0.23488928133858
C           -0.83994687612176        2.50293765423247       -0.13859784083685
C            0.22555163144727        1.60445080949052       -0.18549637599482
N            1.50156050319372        1.98131608878484       -0.12621513829967
C            2.49044159927383        1.10548335427759       -0.08005526407442
C            3.85484177618177        1.52833322338642       -0.07086311808340
C            4.14233692396167        2.90440201784786       -0.14000883150447
C            5.43043198798009        3.36102050771732       -0.12557943928657
C            6.48488387930677        2.43086876047878       -0.03969610748996
C            7.81974482194488        2.88338975326900       -0.02577810117119
N            8.90718275449636        3.25454130319456       -0.01387762772006
C            6.22060283854802        1.07117767646536        0.03126905100019
C            4.91065696681396        0.58462922835060        0.01817496078712
C            4.59919673185896       -0.82511986513258        0.09113240718460
C            5.58149287072596       -1.81075279338901        0.21399481763422
C            5.24924155957467       -3.15643351664570        0.27402977016271
C            6.26739803050004       -4.12221539181622        0.39843911027317
N            7.09539368429078       -4.91301813232135        0.49941981622855
C            3.90122460924603       -3.56298601824458        0.20996173025171
C            2.92572304602540       -2.61359108184894        0.09541930927910
C            3.24375421319620       -1.24282756405205        0.03511937108347
C            2.18474956672466       -0.29178864163041       -0.06668261588057
N            0.92771673248970       -0.68015802912849       -0.20672972011815
C           -0.08204273954966        0.19343330091722       -0.26172149748646
C           -1.40573076062454       -0.21087347167118       -0.31797658652486
C           -4.88445201946054        1.13306720357323       -0.37947527783873
C           -5.01857708112282        2.22880722023054       -1.22489369847173
C           -6.14939251807188        3.02041219580803       -1.15127912304519
C           -7.15344731335527        2.70359087497048       -0.25270958685311
C           -7.04173288206120        1.58091284125916        0.55122734117140
C           -5.91489618811620        0.77514383211887        0.49786014318309
H           -4.51609703759741       -1.10315605844336        3.01900730249096
H           -3.74786109986312        0.15179153444029        2.04854615334853
H           -5.09057470229817        0.56651919655283        3.11215718578226
H           -7.39489102317240       -0.20621910687197        2.65517898498878
H           -7.77275766778571       -1.18231040377592        1.22590106762353
H           -6.82871757640214       -1.85919528541375        2.56369437657930
H           -6.28966122918453       -3.21204993485361        0.97042327908270
H           -5.25820767905315       -4.74641068865662       -0.61937745281151
H           -3.53619282305022       -3.93825415346531       -2.19779032446777
H           -2.84461135105082       -1.57173814568091       -2.14433335843848
H           -2.93343673025842        2.81138663725683       -0.17467605932085
H           -0.61476533686859        3.55386933764319       -0.04444954612985
H            3.31090684469748        3.58956043467435       -0.20249395098157
H            5.65220331638054        4.41611412628757       -0.17833354279032
H            7.05964489350218        0.39611531676206        0.09338299721546
H            6.62572794014596       -1.54568265152826        0.26815284147544
H            3.65893123471234       -4.61406074591447        0.25319943042734
H            1.88352844646874       -2.88977383583634        0.04863836021899
H           -1.60206905706138       -1.26831155420778       -0.24311971654446
H           -4.25097279672903        2.44062159463137       -1.95380431027922
H           -6.24947388055798        3.87383986029857       -1.80472960460870
H           -8.03732173370660        3.32020734646951       -0.18973747014358
H           -7.84988475995318        1.34069112839318        1.22194193011933

          :  Hamiltonian                  GFN2-xTB          :
         :: gradient norm              0.000060025363 Eh/a0 ::
         :: HOMO-LUMO gap              0.562404579475 eV    ::
         :: SCC energy              -107.539315662041 Eh    ::
         :: -> dispersion             -0.092995273008 Eh    ::
         :: -> Gsolv                  -0.051936131675 Eh    ::
         :: repulsion energy           1.972547078127 Eh    ::

    * Orbital Energies and Occupations

         #    Occupation            Energy/Eh            Energy/eV
      -------------------------------------------------------------
         1        2.0000           -0.6893941             -18.7594
       ...           ...                  ...                  ...
        87        2.0000           -0.4271994             -11.6247
        88        2.0000           -0.4271463             -11.6232
        89        2.0000           -0.4241831             -11.5426
        90        2.0000           -0.4234024             -11.5214
        91        2.0000           -0.4152400             -11.2993
        92        2.0000           -0.4133307             -11.2473
        93        2.0000           -0.4100334             -11.1576
        94        2.0000           -0.4092984             -11.1376
        95        2.0000           -0.4081464             -11.1062
        96        2.0000           -0.4022090             -10.9447
        97        1.9572           -0.3718320             -10.1181
        98        1.0428           -0.3659262              -9.9574
        99        1.0000           -0.3157965              -8.5933 (HOMO)
       100        0.0000           -0.2951283              -8.0309 (LUMO)
       101                         -0.2691445              -7.3238
       102                         -0.2622914              -7.1373
       103                         -0.2457896              -6.6883
       104                         -0.2385051              -6.4901
       105                         -0.2346125              -6.3841
       106                         -0.2308072              -6.2806
       107                         -0.2303559              -6.2683
       108                         -0.2190931              -5.9618
       109                         -0.2138915              -5.8203
       110                         -0.2134063              -5.8071
       ...                                ...                  ...
       191                          1.1572607              31.4907
      -------------------------------------------------------------
                  HL-Gap            0.0206682 Eh            0.5624 eV

     #   Z          covCN         q      C6AA      α(0)
     1   6 C        3.761    -0.101    22.474     6.758
     2   6 C        3.910     0.024    20.120     6.376
     3   6 C        3.759    -0.111    22.679     6.789
     4   6 C        2.987    -0.002    28.064     8.690
     5   6 C        2.922    -0.035    28.879     8.813
     6   6 C        2.919    -0.032    28.800     8.800
     7   6 C        2.919    -0.031    28.774     8.796
     8   6 C        2.919    -0.043    29.060     8.840
     9   6 C        2.952     0.053    26.805     8.492
    10   7 N        2.755    -0.036    21.934     6.956
    11   6 C        2.907     0.066    26.514     8.443
    12   6 C        2.918    -0.059    29.460     8.901
    13   6 C        2.915    -0.053    29.319     8.879
    14   6 C        2.942     0.080    26.206     8.396
    15   7 N        1.849    -0.223    26.725     7.662
    16   6 C        2.943     0.081    26.200     8.395
    17   6 C        2.985    -0.003    28.088     8.694
    18   6 C        2.922    -0.025    28.635     8.775
    19   6 C        2.921    -0.024    28.615     8.772
    20   6 C        2.971     0.013    27.719     8.636
    21   6 C        1.913     0.117    28.224     8.580
    22   7 N        0.911    -0.275    27.116     7.531
    23   6 C        2.929    -0.023    28.585     8.768
    24   6 C        2.975     0.004    27.931     8.669
    25   6 C        2.975     0.003    27.957     8.673
    26   6 C        2.929    -0.023    28.588     8.768
    27   6 C        2.971     0.011    27.756     8.642
    28   6 C        1.913     0.116    28.241     8.582
    29   7 N        0.911    -0.279    27.196     7.542
    30   6 C        2.921    -0.025    28.619     8.773
    31   6 C        2.922    -0.026    28.647     8.777
    32   6 C        2.986    -0.004    28.119     8.698
    33   6 C        2.941     0.082    26.181     8.392
    34   7 N        1.851    -0.230    26.892     7.686
    35   6 C        2.938     0.088    26.046     8.370
    36   6 C        2.923    -0.078    29.956     8.976
    37   6 C        2.951     0.052    26.824     8.495
    38   6 C        2.919    -0.044    29.090     8.845
    39   6 C        2.919    -0.031    28.779     8.797
    40   6 C        2.919    -0.033    28.817     8.803
    41   6 C        2.923    -0.036    28.887     8.814
    42   6 C        2.987    -0.002    28.069     8.691
    43   1 H        0.925     0.045     2.381     2.413
    44   1 H        0.925     0.033     2.538     2.491
    45   1 H        0.925     0.046     2.369     2.407
    46   1 H        0.925     0.049     2.337     2.391
    47   1 H        0.925     0.044     2.393     2.419
    48   1 H        0.925     0.048     2.341     2.393
    49   1 H        0.926     0.054     2.270     2.356
    50   1 H        0.926     0.043     2.406     2.425
    51   1 H        0.926     0.042     2.416     2.431
    52   1 H        0.926     0.044     2.390     2.417
    53   1 H        0.926     0.055     2.263     2.352
    54   1 H        0.926     0.054     2.265     2.354
    55   1 H        0.926     0.058     2.222     2.331
    56   1 H        0.926     0.047     2.362     2.403
    57   1 H        0.926     0.045     2.384     2.414
    58   1 H        0.926     0.044     2.397     2.421
    59   1 H        0.926     0.046     2.370     2.407
    60   1 H        0.926     0.058     2.225     2.333
    61   1 H        0.926     0.060     2.203     2.321
    62   1 H        0.926     0.044     2.390     2.418
    63   1 H        0.926     0.042     2.419     2.432
    64   1 H        0.926     0.042     2.417     2.431
    65   1 H        0.926     0.053     2.281     2.362

molecular dipole:
                 x           y           z       tot (Debye)
 q only:       -6.868       0.393       0.090
   full:       -7.370       0.582       0.010      18.791

 projected vibrational frequencies (cm⁻¹)
eigval :       -0.00    -0.00     0.00     0.00     0.00     0.00
eigval :       12.70    18.06    34.67    41.88    45.61    61.36
eigval :       72.58    77.75    81.19    85.35    89.87   124.09
eigval :      129.55   139.52   140.29   154.49   163.90   175.05
eigval :      185.10   200.79   213.50   228.95   240.67   256.73
eigval :      273.12   281.58   299.28   309.97   321.08   331.01
eigval :      333.17   347.28   355.65   364.37   384.03   394.35
eigval :      397.69   401.32   405.05   414.51   428.62   434.17
eigval :      455.93   460.86   480.88   484.11   489.95   499.38
eigval :      515.02   533.16   548.68   553.91   561.61   564.04
eigval :      571.28   576.03   576.80   584.68   599.47   616.31
eigval :      623.02   628.76   630.47   640.76   670.50   672.28
eigval :      676.97   691.75   704.18   718.29   722.29   724.20
eigval :      771.27   778.56   784.93   791.26   800.64   809.83
eigval :      821.35   821.91   828.76   845.27   853.65   866.99
eigval :      868.32   884.05   890.34   906.31   912.56   913.33
eigval :      915.98   921.66   929.37   934.24   940.44   942.66
eigval :      951.28   966.48   991.10  1008.62  1037.48  1058.90
eigval :     1072.35  1076.77  1096.75  1103.70  1135.12  1139.60
eigval :     1142.58  1148.37  1152.08  1169.22  1179.88  1183.64
eigval :     1187.14  1187.97  1190.00  1222.15  1227.12  1233.65
eigval :     1238.03  1244.50  1250.63  1259.65  1265.65  1267.29
eigval :     1270.65  1272.97  1286.26  1292.75  1295.74  1315.38
eigval :     1323.87  1328.91  1343.87  1350.59  1379.13  1395.85
eigval :     1399.53  1407.57  1412.97  1417.72  1424.07  1430.93
eigval :     1433.59  1446.85  1452.31  1462.31  1467.87  1474.85
eigval :     1487.52  1488.20  1490.31  1501.40  1503.95  1516.82
eigval :     1517.52  1540.16  1562.65  1567.06  1567.90  1576.61
eigval :     1581.05  1591.05  2339.15  2347.75  3029.56  3031.08
eigval :     3034.81  3035.67  3048.64  3049.40  3081.62  3082.46
eigval :     3087.22  3089.35  3089.64  3091.03  3095.35  3096.64
eigval :     3097.24  3098.10  3101.93  3102.65  3103.95  3107.41
eigval :     3116.57  3117.56  3125.69

   temp. (K)  partition function   enthalpy   heat capacity  entropy
                                   cal/mol     cal/K/mol   cal/K/mol   J/K/mol
 298.15  VIB  0.280E+14            19249.379    124.949    117.243
         ROT  0.619E+08              888.752      2.981     38.635
         INT  0.173E+22            20138.131    127.930    155.878
         TR   0.121E+29             1481.254      4.968     44.711
         TOT                       21619.3848   132.8984   200.5888   839.2637

       T/K    H(0)-H(T)+PV         H(T)/Eh          T*S/Eh         G(T)/Eh
   ------------------------------------------------------------------------
    298.15    0.344527E-01    0.518623E+00    0.953062E-01    0.423317E+00
   ------------------------------------------------------------------------

         :::::::::::::::::::::::::::::::::::::::::::::::::::::
         ::                  THERMODYNAMIC                  ::
         :::::::::::::::::::::::::::::::::::::::::::::::::::::
         :: total free energy        -105.143451998644 Eh   ::
         ::.................................................::
         :: total energy             -105.566768584130 Eh   ::
         :: zero point energy           0.484170136781 Eh   ::
         :: G(RRHO) w/o ZPVE           -0.060853551295 Eh   ::
         :: G(RRHO) contrib.            0.423316585486 Eh   ::
         :::::::::::::::::::::::::::::::::::::::::::::::::::::

           -------------------------------------------------
          | TOTAL ENERGY             -105.566768584130 Eh   |
          | TOTAL ENTHALPY           -105.048145764642 Eh   |
          | TOTAL FREE ENERGY        -105.143451998644 Eh   |
          | GRADIENT NORM               0.000060775390 Eh/α |
          | HOMO-LUMO GAP               0.562409640749 eV   |
           -------------------------------------------------

 * finished run on 2025/07/20 at 00:08:34.536
