   * xtb version 6.7.1 (edcfbbe) compiled by 'albert@albert-system' on 2024-07-22

   ID    Z sym.   atoms
    1    6 C      1-9, 11-14, 16-21, 23-28, 30-33, 35-42
    2    7 N      10, 15, 22, 29, 34
    3    1 H      43-65

          program call               : xtb data2507/toluene/11-AcBPdCN/11-AcBPdCN_toluene_T1_crest.xyz --gfn 2 --uhf 2 --gbsa toluene --ohess vtight --parallel 40 --molden --ceasefiles --namespace data2507/toluene/11-AcBPdCN/11-AcBPdCN_toluene_T1_finalOpt
      * Solvation model:               GBSA
        Solvent                        toluene
        Solvent mass                       9.2140E+01 g/mol
          :  Hamiltonian                  GFN2-xTB          :
 * total energy  :  -105.5719888 Eh     change       -0.8328043E-07 Eh
 * total energy  :  -105.5720705 Eh     change       -0.8165236E-04 Eh
 * total energy  :  -105.5720789 Eh     change       -0.8388871E-05 Eh
 * total energy  :  -105.5720889 Eh     change       -0.1000502E-04 Eh
 * total energy  :  -105.5721057 Eh     change       -0.1687472E-04 Eh
 * total energy  :  -105.5720985 Eh     change        0.7242931E-05 Eh
 * total energy  :  -105.5721088 Eh     change       -0.1032111E-04 Eh
 * total energy  :  -105.5721105 Eh     change       -0.1688879E-05 Eh
 * total energy  :  -105.5721113 Eh     change       -0.8160029E-06 Eh
 * total energy  :  -105.5721125 Eh     change       -0.1166401E-05 Eh
 * total energy  :  -105.5721374 Eh     change       -0.5910301E-06 Eh
 * total energy  :  -105.5721383 Eh     change       -0.9004583E-06 Eh
 * total energy  :  -105.5721390 Eh     change       -0.7240269E-06 Eh
 * total energy  :  -105.5721398 Eh     change       -0.8064716E-06 Eh
 * total energy  :  -105.5721398 Eh     change       -0.6194966E-08 Eh
 * total energy  :  -105.5721401 Eh     change       -0.3424028E-06 Eh
 * total energy  :  -105.5721403 Eh     change       -0.1274961E-06 Eh
 * total energy  :  -105.5721403 Eh     change        0.3753556E-08 Eh
 * total energy  :  -105.5721403 Eh     change       -0.5414292E-07 Eh
   *** GEOMETRY OPTIMIZATION CONVERGED AFTER 45 ITERATIONS ***

 final structure:
================
65
 xtb: 6.7.1 (edcfbbe)
C           -7.05596584571167       -1.89141570650181        0.41718508073242
C           -6.55738707417646       -0.46972416248424        0.08994149497634
C           -7.75520786753685        0.47010282587711       -0.15205704458256
C           -5.72316064776482       -0.52630675443497       -1.17213520640934
C           -6.29265338653083       -0.97756341988211       -2.35536291868966
C           -5.57443004783812       -1.04389538109633       -3.53538092892659
C           -4.24537275822401       -0.64727172633690       -3.55084809688545
C           -3.65284078930820       -0.19532150013179       -2.39338522714527
C           -4.37594414797344       -0.13138293174367       -1.19339541955344
N           -3.75454218697785        0.32338458532524       -0.04901188108759
C           -2.38684315504311        0.72192847653578       -0.11868468505954
C           -2.07094167139529        2.05790219988372       -0.35212103910099
C           -0.74959556881032        2.45549809870626       -0.42053959688113
C            0.28518600910088        1.53152383263949       -0.25974801006857
N            1.57061776518813        1.89173672365044       -0.32191202632592
C            2.54098597211698        1.00049219039988       -0.16873510600540
C            3.91220455857187        1.39950426773374       -0.23493056693910
C            4.21904224837340        2.75426635672027       -0.46043487006110
C            5.51395914058881        3.18610705976280       -0.52919932029279
C            6.55583118347701        2.25124459179312       -0.37262394202034
C            7.89730954344716        2.67809844620649       -0.44193514577973
N            8.99019688213681        3.02836240916167       -0.50064734252218
C            6.27232278780802        0.91174014749955       -0.15009631608622
C            4.95514163795796        0.45142201259655       -0.07586653463855
C            4.62396359719990       -0.93743518951845        0.15487686790932
C            5.59552117226278       -1.92879898135274        0.31576832159958
C            5.24449217756906       -3.25273126935168        0.53519264115708
C            6.25278569892103       -4.22520694648936        0.69107677274453
N            7.07237346811255       -5.02074058319851        0.81726953303871
C            3.88950293089581       -3.63153727892334        0.60080544084813
C            2.92502131825097       -2.67561536863498        0.44570366600237
C            3.26206554193992       -1.32770792607287        0.22224998688852
C            2.21410643850877       -0.36753286831375        0.06482420204870
N            0.94306451290521       -0.74016473110762        0.13185678158368
C           -0.04496404345981        0.14892754688534       -0.01957259855706
C           -1.38579552168416       -0.22566221987403        0.04691794026209
C           -4.41399778372680        0.41431076095782        1.15906114972180
C           -3.72379322080716        0.87561639730548        2.28946993239278
C           -4.35598852043710        0.98001981955631        3.50789662538823
C           -5.69191899816246        0.62545559044959        3.62405678729610
C           -6.37486892110610        0.16545097997720        2.51289963854109
C           -5.76459372507033        0.04767115723604        1.27127338726942
H           -6.20834920394618       -2.55191977276067        0.59042341353699
H           -7.67567849715904       -1.88629597917305        1.30876411450660
H           -7.64296995691465       -2.29240115561491       -0.40352592361764
H           -8.38887009959151        0.52061851904508        0.72818526857803
H           -7.40082113207887        1.47366371602835       -0.37985883764204
H           -8.35680700319208        0.12046362818578       -0.98555983951842
H           -7.32586266155214       -1.28728022913142       -2.36278918059654
H           -6.04744185170452       -1.40053413221272       -4.43740084872913
H           -3.67182853274536       -0.68994799824655       -4.46426321566416
H           -2.61965779113047        0.11426431185533       -2.40682480474116
H           -2.86390063094457        2.77901178104045       -0.47769963512685
H           -0.49060722025370        3.48674230040857       -0.60083490132511
H            3.39614323398018        3.44265861151921       -0.57622204108281
H            5.75076152764848        4.22519483255682       -0.70114550373201
H            7.10221916354269        0.23220280069644       -0.03565778725072
H            6.64547980935019       -1.68539496400156        0.27204118311102
H            3.63219470647950       -4.66590437731050        0.77164031921148
H            1.87736682866694       -2.93022929702966        0.48978117728186
H           -1.63009356275982       -1.26068080224220        0.22796889903886
H           -2.68443030486863        1.15000858630520        2.20061416736991
H           -3.80758759694326        1.33703238547400        4.36637590465205
H           -6.19684479869790        0.70530648982768        4.57440611796598
H           -7.41230021157562       -0.10854630473283        2.62274934969525

          :  Hamiltonian                  GFN2-xTB          :
         :: gradient norm              0.000070083339 Eh/a0 ::
         :: HOMO-LUMO gap              0.619163605093 eV    ::
         :: SCC energy              -107.542675243934 Eh    ::
         :: -> dispersion             -0.092342262962 Eh    ::
         :: -> Gsolv                  -0.052955192474 Eh    ::
         :: repulsion energy           1.970534926177 Eh    ::

    * Orbital Energies and Occupations

         #    Occupation            Energy/Eh            Energy/eV
      -------------------------------------------------------------
         1        2.0000           -0.6893764             -18.7589
       ...           ...                  ...                  ...
        87        2.0000           -0.4272309             -11.6255
        88        2.0000           -0.4257852             -11.5862
        89        2.0000           -0.4235096             -11.5243
        90        2.0000           -0.4217091             -11.4753
        91        2.0000           -0.4213904             -11.4666
        92        2.0000           -0.4156991             -11.3117
        93        2.0000           -0.4137151             -11.2578
        94        2.0000           -0.4096957             -11.1484
        95        2.0000           -0.4058929             -11.0449
        96        2.0000           -0.4008261             -10.9070
        97        1.6409           -0.3668218              -9.9817
        98        1.3591           -0.3657210              -9.9518
        99        1.0000           -0.3179998              -8.6532 (HOMO)
       100        0.0000           -0.2952457              -8.0340 (LUMO)
       101                         -0.2690267              -7.3206
       102                         -0.2628063              -7.1513
       103                         -0.2443103              -6.6480
       104                         -0.2439150              -6.6373
       105                         -0.2360743              -6.4239
       106                         -0.2354190              -6.4061
       107                         -0.2215272              -6.0281
       108                         -0.2202403              -5.9930
       109                         -0.2136140              -5.8127
       110                         -0.2131417              -5.7999
       ...                                ...                  ...
       191                          1.1572335              31.4899
      -------------------------------------------------------------
                  HL-Gap            0.0227541 Eh            0.6192 eV

     #   Z          covCN         q      C6AA      α(0)
     1   6 C        3.761    -0.108    22.606     6.778
     2   6 C        3.909     0.024    20.111     6.374
     3   6 C        3.761    -0.108    22.608     6.778
     4   6 C        2.978    -0.002    28.065     8.690
     5   6 C        2.925    -0.032    28.806     8.802
     6   6 C        2.917    -0.032    28.798     8.800
     7   6 C        2.918    -0.028    28.692     8.784
     8   6 C        2.923    -0.049    29.207     8.863
     9   6 C        2.929     0.061    26.637     8.464
    10   7 N        2.755    -0.024    21.720     6.922
    11   6 C        2.926     0.054    26.785     8.487
    12   6 C        2.916    -0.045    29.109     8.847
    13   6 C        2.918    -0.056    29.393     8.891
    14   6 C        2.943     0.084    26.131     8.384
    15   7 N        1.849    -0.240    27.122     7.718
    16   6 C        2.943     0.081    26.192     8.394
    17   6 C        2.986    -0.004    28.108     8.697
    18   6 C        2.922    -0.026    28.642     8.776
    19   6 C        2.921    -0.024    28.611     8.772
    20   6 C        2.971     0.012    27.733     8.638
    21   6 C        1.913     0.117    28.227     8.580
    22   7 N        0.911    -0.276    27.142     7.535
    23   6 C        2.929    -0.024    28.592     8.769
    24   6 C        2.975     0.003    27.946     8.671
    25   6 C        2.975     0.003    27.944     8.671
    26   6 C        2.929    -0.023    28.591     8.769
    27   6 C        2.971     0.013    27.731     8.638
    28   6 C        1.913     0.117    28.227     8.580
    29   7 N        0.911    -0.276    27.140     7.535
    30   6 C        2.921    -0.024    28.612     8.772
    31   6 C        2.922    -0.026    28.642     8.776
    32   6 C        2.986    -0.004    28.108     8.697
    33   6 C        2.943     0.082    26.181     8.392
    34   7 N        1.849    -0.242    27.166     7.725
    35   6 C        2.944     0.086    26.087     8.377
    36   6 C        2.920    -0.067    29.656     8.930
    37   6 C        2.929     0.061    26.638     8.464
    38   6 C        2.923    -0.049    29.208     8.863
    39   6 C        2.918    -0.028    28.692     8.784
    40   6 C        2.917    -0.032    28.798     8.800
    41   6 C        2.925    -0.032    28.806     8.802
    42   6 C        2.978    -0.002    28.065     8.690
    43   1 H        0.925     0.037     2.493     2.469
    44   1 H        0.925     0.052     2.299     2.371
    45   1 H        0.925     0.052     2.299     2.371
    46   1 H        0.925     0.052     2.298     2.371
    47   1 H        0.925     0.037     2.486     2.466
    48   1 H        0.925     0.052     2.299     2.371
    49   1 H        0.926     0.050     2.314     2.379
    50   1 H        0.926     0.044     2.399     2.422
    51   1 H        0.926     0.041     2.433     2.439
    52   1 H        0.926     0.036     2.500     2.473
    53   1 H        0.926     0.051     2.308     2.376
    54   1 H        0.926     0.056     2.252     2.347
    55   1 H        0.926     0.059     2.212     2.326
    56   1 H        0.926     0.046     2.371     2.408
    57   1 H        0.926     0.044     2.393     2.419
    58   1 H        0.926     0.044     2.393     2.419
    59   1 H        0.926     0.046     2.367     2.406
    60   1 H        0.926     0.059     2.208     2.324
    61   1 H        0.926     0.054     2.268     2.355
    62   1 H        0.926     0.036     2.498     2.471
    63   1 H        0.926     0.041     2.432     2.439
    64   1 H        0.926     0.044     2.399     2.422
    65   1 H        0.926     0.050     2.314     2.379

molecular dipole:
                 x           y           z       tot (Debye)
 q only:       -7.366       0.452      -0.065
   full:       -7.842       0.647      -0.096      20.001

 projected vibrational frequencies (cm⁻¹)
eigval :       -0.00    -0.00     0.00     0.00     0.00     0.00
eigval :       10.45    15.11    19.77    35.09    43.51    44.29
eigval :       74.45    79.66    79.95    83.83    93.91    97.69
eigval :      102.26   129.03   131.61   137.89   149.08   176.31
eigval :      194.13   194.98   197.35   217.83   229.06   244.43
eigval :      254.16   275.33   278.50   304.32   308.82   325.69
eigval :      338.79   345.38   362.38   368.59   377.44   381.22
eigval :      390.32   396.09   405.78   416.90   419.07   443.77
eigval :      449.30   461.59   480.21   491.15   499.19   502.88
eigval :      515.11   528.85   539.80   541.52   549.99   555.27
eigval :      563.72   576.30   584.03   591.93   615.03   625.32
eigval :      628.93   633.19   642.80   646.61   663.81   677.72
eigval :      686.95   693.58   700.58   706.93   723.38   725.66
eigval :      770.09   776.83   786.61   798.31   816.67   821.40
eigval :      822.14   822.68   825.52   848.16   854.27   866.37
eigval :      867.10   875.98   880.90   912.23   912.73   913.42
eigval :      914.04   920.30   922.38   925.33   936.25   942.46
eigval :      951.30   958.22   989.55  1011.98  1038.01  1059.95
eigval :     1073.43  1083.05  1105.45  1111.35  1130.58  1137.33
eigval :     1140.54  1144.31  1146.60  1157.95  1182.12  1182.43
eigval :     1183.77  1186.45  1189.57  1212.64  1232.67  1234.61
eigval :     1237.71  1242.37  1247.39  1257.52  1272.92  1276.93
eigval :     1282.41  1285.71  1291.73  1300.16  1315.08  1319.35
eigval :     1327.50  1333.75  1337.68  1345.34  1360.03  1396.05
eigval :     1396.98  1402.94  1415.52  1416.15  1417.99  1419.64
eigval :     1427.86  1452.52  1453.81  1464.94  1468.03  1479.71
eigval :     1481.39  1481.88  1492.01  1496.31  1497.51  1507.52
eigval :     1519.89  1537.26  1551.42  1563.38  1566.57  1567.76
eigval :     1576.58  1588.11  2341.67  2348.35  3027.28  3029.41
eigval :     3049.42  3051.32  3056.52  3060.33  3085.52  3085.62
eigval :     3090.06  3090.43  3092.52  3092.65  3093.26  3096.80
eigval :     3100.18  3101.77  3101.97  3102.86  3103.64  3104.01
eigval :     3106.83  3106.98  3107.91

   temp. (K)  partition function   enthalpy   heat capacity  entropy
                                   cal/mol     cal/K/mol   cal/K/mol   J/K/mol
 298.15  VIB  0.242E+15            19522.867    124.509    120.240
         ROT  0.634E+08              888.752      2.981     38.681
         INT  0.153E+23            20411.619    127.490    158.921
         TR   0.121E+29             1481.254      4.968     44.711
         TOT                       21892.8732   132.4577   203.6324   851.9981

       T/K    H(0)-H(T)+PV         H(T)/Eh          T*S/Eh         G(T)/Eh
   ------------------------------------------------------------------------
    298.15    0.348885E-01    0.518435E+00    0.967523E-01    0.421682E+00
   ------------------------------------------------------------------------

         :::::::::::::::::::::::::::::::::::::::::::::::::::::
         ::                  THERMODYNAMIC                  ::
         :::::::::::::::::::::::::::::::::::::::::::::::::::::
         :: total free energy        -105.150457914250 Eh   ::
         ::.................................................::
         :: total energy             -105.572140307125 Eh   ::
         :: zero point energy           0.483546217826 Eh   ::
         :: G(RRHO) w/o ZPVE           -0.061863824950 Eh   ::
         :: G(RRHO) contrib.            0.421682392876 Eh   ::
         :::::::::::::::::::::::::::::::::::::::::::::::::::::

           -------------------------------------------------
          | TOTAL ENERGY             -105.572140307125 Eh   |
          | TOTAL ENTHALPY           -105.053705575030 Eh   |
          | TOTAL FREE ENERGY        -105.150457914250 Eh   |
          | GRADIENT NORM               0.000068683524 Eh/α |
          | HOMO-LUMO GAP               0.619170633702 eV   |
           -------------------------------------------------

 * finished run on 2025/07/20 at 00:11:48.946
