   * xtb version 6.7.1 (edcfbbe) compiled by 'albert@albert-system' on 2024-07-22

   ID    Z sym.   atoms
    1    6 C      1-9, 11-15, 19-21, 23-36, 38-57
    2    7 N      10, 22, 37
    3   16 S      16
    4    8 O      17, 18
    5    1 H      58-94

          program call               : xtb data2507/gas/m-CZ-DPS-DMAC/m-CZ-DPS-DMAC_gas_T1_crest.xyz --gfn 2 --spinpol --tblite --uhf 2 --ohess vtight --parallel 40 --molden --ceasefiles --namespace data2507/gas/m-CZ-DPS-DMAC/m-CZ-DPS-DMAC_gas_T1_finalOpt
 * total energy  :  -148.2198477 Eh     change       -0.1926347E-07 Eh
 * total energy  :  -148.2198629 Eh     change       -0.1515269E-04 Eh
 * total energy  :  -148.2198719 Eh     change       -0.8975857E-05 Eh
 * total energy  :  -148.2198753 Eh     change       -0.3424625E-05 Eh
 * total energy  :  -148.2198793 Eh     change       -0.3955897E-05 Eh
 * total energy  :  -148.2198830 Eh     change       -0.3779903E-05 Eh
 * total energy  :  -148.2198874 Eh     change       -0.4362323E-05 Eh
 * total energy  :  -148.2198919 Eh     change       -0.4527221E-05 Eh
 * total energy  :  -148.2198963 Eh     change       -0.4335209E-05 Eh
 * total energy  :  -148.2199000 Eh     change       -0.3766196E-05 Eh
 * total energy  :  -148.2199918 Eh     change       -0.8499115E-06 Eh
 * total energy  :  -148.2199926 Eh     change       -0.7798659E-06 Eh
 * total energy  :  -148.2199933 Eh     change       -0.7240636E-06 Eh
 * total energy  :  -148.2199941 Eh     change       -0.7859318E-06 Eh
 * total energy  :  -148.2199948 Eh     change       -0.7239211E-06 Eh
 * total energy  :  -148.2199956 Eh     change       -0.7732314E-06 Eh
 * total energy  :  -148.2199963 Eh     change       -0.6617915E-06 Eh
 * total energy  :  -148.2199970 Eh     change       -0.7058168E-06 Eh
 * total energy  :  -148.2199971 Eh     change       -0.9193721E-07 Eh
   *** GEOMETRY OPTIMIZATION CONVERGED AFTER 68 ITERATIONS ***

 final structure:
================
94
 xtb: 6.7.1 (edcfbbe)
C            5.57329616355042        0.39216231366246        3.17778601677463
C            5.14039872046813        0.50564199641877        1.70215532385042
C            5.89676277217614        1.66187850304849        1.02217019795235
C            5.49466239573808       -0.78362639394049        0.99213309020387
C            6.82270891538389       -1.17467898009264        0.89156094397244
C            7.19510091002560       -2.33522843266882        0.23814270826940
C            6.22382400024411       -3.13523463860960       -0.34520954907174
C            4.89847712092894       -2.77497551583557       -0.26015378164855
C            4.51567853939165       -1.60697482126410        0.41468609451787
N            3.17991637209898       -1.28464249352691        0.50002708008694
C            2.21519309980044       -2.13250727350918       -0.11836619162018
C            1.75303661452731       -3.26955442708283        0.55824035809312
C            0.77504999675692       -4.06298176506647       -0.04340368259254
C            0.24624087021292       -3.72088130476779       -1.26596273343009
C            0.72612931506252       -2.59004482116795       -1.94035903819800
S           -0.20487311314386       -1.90615061414722       -3.28570847195112
O            0.66577106023101       -1.14532156180833       -4.14787711433698
O           -1.02656996099307       -2.93757681202819       -3.86557592291260
C           -1.18270900968676       -0.79362979534121       -2.32213871842160
C           -2.18070385470148       -1.31954260460993       -1.49179632786230
C           -2.71626585712694       -0.53132854318931       -0.49413616358686
N           -3.71705882640970       -1.04923410790362        0.34193922062462
C           -4.95084082203283       -0.48530401481533        0.57955911281650
C           -5.50672253838441        0.67137802874794        0.05268725595003
C           -6.79060217685268        1.00728136997684        0.44077529370534
C           -7.51127717274645        0.20842752202601        1.32520964449915
C           -6.97247422544027       -0.95967962668039        1.83493332685007
C           -5.68580199412090       -1.31683531238389        1.45965331423480
C           -4.83900515548505       -2.43964820907835        1.75764309224678
C           -4.98827275376219       -3.57018304419545        2.54745274297783
C           -3.93761703008099       -4.46742724384224        2.62274196694822
C           -2.74703346964442       -4.24105685361122        1.93612824973482
C           -2.57378612607422       -3.12256364438767        1.14124456369859
C           -3.63430346925747       -2.23278991998945        1.04216935384785
C           -2.25303996323949        0.77918721878778       -0.28251244214478
C           -1.25317513094713        1.30009395239146       -1.12737959667822
N           -0.77448013435573        2.59562391075938       -0.90336674856543
C            0.55617497475170        2.97047482247149       -0.87580642823588
C            1.69758244344956        2.22949312109625       -1.14239740206064
C            2.92453652309969        2.85648857242184       -1.02426525035209
C            3.02610448862374        4.18839292299753       -0.63365741844602
C            1.89568619076769        4.93135530574264       -0.34902682141613
C            0.65284816508570        4.32483321198998       -0.47160515366650
C           -0.68957783017475        4.78848141286621       -0.26848411007760
C           -1.23015652362801        6.01419598567224        0.09555785512608
C           -2.60633843289842        6.14031449646331        0.15503179981350
C           -3.43774566470339        5.06994184276084       -0.16258327873908
C           -2.91915183963092        3.83880939750945       -0.52606875727301
C           -1.54009619276615        3.69234704809798       -0.55403770171013
C           -0.72960612361397        0.51988416715949       -2.14144703158707
C            1.72220180122948       -1.80160528982517       -1.36200099283260
C            2.73959767685079       -0.13715846197942        1.12414347802420
C            1.36286664636180        0.11471540308823        1.21622186641560
C            0.89619452101207        1.26616775723229        1.80769762291985
C            1.79228607517381        2.19327867002506        2.31693994782727
C            3.14857195872018        1.93496060956346        2.25450253832994
C            3.65071438102843        0.77699317632602        1.67622301052825
H            5.01985387142355       -0.40660143716606        3.66762050635315
H            6.63418000068255        0.17044495451637        3.25255033293375
H            5.37763289970872        1.32046666658183        3.70687764018607
H            5.58355771668899        2.62112211756153        1.42260320934905
H            6.96773816350675        1.56306581700543        1.17410570437059
H            5.70175405967808        1.65627877840611       -0.04752894727755
H            7.59284192588360       -0.55999168908255        1.33128691504177
H            8.23673923166726       -2.61035868722631        0.17890098312800
H            6.50144025869669       -4.03784963206511       -0.86712514492841
H            4.14084260553712       -3.39060084556558       -0.71797451068993
H            2.15162207920663       -3.51358209915724        1.52979858270042
H            0.42560418061267       -4.94674031683772        0.46931073888284
H           -0.52359199321674       -4.30805126325692       -1.73988561696972
H           -2.53644891979606       -2.32069449617282       -1.67230016273417
H           -4.96037798799210        1.27609189205703       -0.65383931962121
H           -7.24596732875128        1.90279043019534        0.04534247058261
H           -8.51130741108050        0.50275923953133        1.60634325251261
H           -7.54153588250867       -1.58525838274722        2.50564148881320
H           -5.90451088656211       -3.74249472532621        3.09136205076166
H           -4.03644045249507       -5.35525068817545        3.22929068659428
H           -1.94045761463054       -4.95249387026150        2.02847562737719
H           -1.64595521726865       -2.94854174111619        0.61730053792395
H           -2.62378101658697        1.35134684691466        0.55171523003928
H            1.63821454145612        1.19316417464067       -1.42738595428886
H            3.82060071448921        2.29821964420127       -1.24715087428588
H            4.00197917473149        4.64377252312174       -0.55339100666494
H            1.97197794318196        5.96310125672026       -0.04116171728997
H           -0.58650282923538        6.85149709588174        0.31827650832354
H           -3.04591246368180        7.08547528195864        0.43650165032256
H           -4.50861710142166        5.20278930861062       -0.13230208030236
H           -3.57306779565883        3.02729249177340       -0.80066036635665
H           -0.00875433175935        0.90547938906607       -2.84272841852486
H            2.08975262895609       -0.94453800845085       -1.90333540520395
H            0.66265416390119       -0.60076296926189        0.81491877113005
H           -0.16657135566883        1.44064065603885        1.87183144623788
H            1.43620559414877        3.10669778066521        2.76711073785856
H            3.82988432266227        2.65705405867932        2.67718420280949

 projected vibrational frequencies (cm⁻¹)
eigval :       -0.00    -0.00    -0.00     0.00     0.00     0.00
eigval :        7.19    12.29    17.44    18.76    28.37    33.27
eigval :       40.84    41.87    45.64    53.16    63.91    71.18
eigval :       80.81    87.58    93.23   101.21   111.40   113.08
eigval :      120.54   126.64   136.25   139.36   148.13   152.38
eigval :      175.56   183.09   187.46   193.73   206.94   212.12
eigval :      217.19   226.57   239.85   242.93   256.46   259.08
eigval :      263.76   268.39   274.83   289.59   298.21   304.56
eigval :      322.15   326.82   329.77   344.75   365.26   367.48
eigval :      370.58   380.32   385.76   389.24   391.93   409.47
eigval :      416.22   419.52   420.69   432.93   433.07   439.18
eigval :      449.33   453.88   483.76   494.25   498.97   504.57
eigval :      512.16   515.15   515.88   521.51   532.52   535.00
eigval :      538.12   540.56   544.78   560.76   569.67   579.37
eigval :      583.99   588.82   590.41   611.02   617.67   629.89
eigval :      634.04   645.80   646.81   654.18   669.93   671.95
eigval :      686.14   688.26   700.99   704.65   707.48   742.50
eigval :      745.25   750.49   751.67   757.66   762.72   763.88
eigval :      765.95   767.46   771.97   774.28   775.77   776.15
eigval :      815.45   824.53   826.88   848.32   858.20   859.57
eigval :      867.54   868.24   868.90   869.89   872.98   892.61
eigval :      895.28   897.03   897.46   901.47   902.25   906.95
eigval :      912.61   913.52   914.36   914.74   915.20   917.38
eigval :      918.18   921.90   922.92   924.18   927.15   937.06
eigval :      957.63   964.96   980.36  1009.16  1010.83  1013.52
eigval :     1018.96  1049.71  1055.68  1062.45  1065.39  1069.00
eigval :     1074.47  1074.77  1083.10  1097.13  1098.78  1102.52
eigval :     1106.18  1111.97  1115.43  1134.74  1137.77  1138.57
eigval :     1141.97  1148.51  1159.79  1167.20  1173.41  1174.44
eigval :     1176.00  1177.83  1182.17  1183.52  1187.49  1196.85
eigval :     1197.04  1205.94  1222.44  1226.32  1229.46  1230.28
eigval :     1233.14  1236.39  1241.75  1243.21  1256.70  1276.58
eigval :     1279.61  1286.15  1290.23  1293.25  1302.64  1316.20
eigval :     1317.13  1326.44  1330.29  1330.93  1336.09  1340.97
eigval :     1342.45  1356.56  1362.76  1366.11  1373.17  1375.88
eigval :     1400.31  1401.80  1406.54  1409.08  1412.82  1417.91
eigval :     1418.41  1419.07  1427.84  1438.98  1445.80  1453.34
eigval :     1455.97  1460.04  1462.72  1475.30  1480.15  1481.69
eigval :     1485.19  1486.18  1495.66  1500.48  1523.22  1545.14
eigval :     1550.53  1551.70  1556.42  1560.83  1571.19  1572.80
eigval :     1575.61  1576.24  1579.39  1586.18  1594.57  3031.19
eigval :     3039.66  3044.77  3048.12  3052.70  3059.95  3079.59
eigval :     3080.12  3081.16  3081.28  3081.68  3084.80  3087.71
eigval :     3088.32  3088.63  3088.67  3090.73  3092.14  3093.85
eigval :     3094.64  3095.68  3096.98  3097.25  3098.86  3101.36
eigval :     3101.67  3102.60  3103.20  3103.51  3108.85  3110.14
eigval :     3111.04  3111.68  3113.16  3113.43  3118.63  3125.40

   temp. (K)  partition function   enthalpy   heat capacity  entropy
                                   cal/mol     cal/K/mol   cal/K/mol   J/K/mol
 298.15  VIB  0.732E+21            27736.755    176.898    170.995
         ROT  0.955E+08              888.752      2.981     39.496
         INT  0.699E+29            28625.508    179.879    210.491
         TR   0.201E+29             1481.254      4.968     45.727
         TOT                       30106.7614   184.8471   256.2179  1072.0158

       T/K    H(0)-H(T)+PV         H(T)/Eh          T*S/Eh         G(T)/Eh
   ------------------------------------------------------------------------
    298.15    0.479782E-01    0.765376E+00    0.121737E+00    0.643639E+00
   ------------------------------------------------------------------------

         :::::::::::::::::::::::::::::::::::::::::::::::::::::
         ::                  THERMODYNAMIC                  ::
         :::::::::::::::::::::::::::::::::::::::::::::::::::::
         :: total free energy        -147.576358071924 Eh   ::
         ::.................................................::
         :: total energy             -148.219997025791 Eh   ::
         :: zero point energy           0.717398174253 Eh   ::
         :: G(RRHO) w/o ZPVE           -0.073759220386 Eh   ::
         :: G(RRHO) contrib.            0.643638953867 Eh   ::
         :::::::::::::::::::::::::::::::::::::::::::::::::::::

           -------------------------------------------------
          | TOTAL ENERGY             -148.219997025791 Eh   |
          | TOTAL ENTHALPY           -147.454620673231 Eh   |
          | TOTAL FREE ENERGY        -147.576358071924 Eh   |
          | GRADIENT NORM               0.000187248181 Eh/α |
           -------------------------------------------------

 * finished run on 2025/08/22 at 12:26:03.202
