   * xtb version 6.7.1 (edcfbbe) compiled by 'albert@albert-system' on 2024-07-22

   ID    Z sym.   atoms
    1    6 C      1-9, 11-15, 19-21, 23-36, 38-57
    2    7 N      10, 22, 37
    3   16 S      16
    4    8 O      17, 18
    5    1 H      58-94

          program call               : xtb data2507/gas/m-CZ-DPS-DMAC/m-CZ-DPS-DMAC_gas_S0_crest.xyz --gfn 2 --ohess vtight --parallel 40 --molden --ceasefiles --namespace data2507/gas/m-CZ-DPS-DMAC/m-CZ-DPS-DMAC_gas_S0_finalOpt
          :  Hamiltonian                  GFN2-xTB          :
 * total energy  :  -148.3153886 Eh     change       -0.2024905E-08 Eh
 * total energy  :  -148.3153892 Eh     change       -0.6039097E-06 Eh
 * total energy  :  -148.3153908 Eh     change       -0.1530639E-05 Eh
 * total energy  :  -148.3153928 Eh     change       -0.2046565E-05 Eh
 * total energy  :  -148.3153944 Eh     change       -0.1555673E-05 Eh
 * total energy  :  -148.3153953 Eh     change       -0.9257679E-06 Eh
 * total energy  :  -148.3153962 Eh     change       -0.9257940E-06 Eh
 * total energy  :  -148.3153976 Eh     change       -0.1417826E-05 Eh
 * total energy  :  -148.3153994 Eh     change       -0.1815457E-05 Eh
 * total energy  :  -148.3154007 Eh     change       -0.1277683E-05 Eh
 * total energy  :  -148.3154028 Eh     change       -0.5168081E-06 Eh
 * total energy  :  -148.3154033 Eh     change       -0.5388288E-06 Eh
 * total energy  :  -148.3154039 Eh     change       -0.5637558E-06 Eh
 * total energy  :  -148.3154045 Eh     change       -0.6258098E-06 Eh
 * total energy  :  -148.3154051 Eh     change       -0.6165185E-06 Eh
 * total energy  :  -148.3154057 Eh     change       -0.5332778E-06 Eh
 * total energy  :  -148.3154062 Eh     change       -0.5327292E-06 Eh
 * total energy  :  -148.3154068 Eh     change       -0.5960229E-06 Eh
 * total energy  :  -148.3154068 Eh     change       -0.5399215E-08 Eh
   *** GEOMETRY OPTIMIZATION CONVERGED AFTER 22 ITERATIONS ***

 final structure:
================
94
 xtb: 6.7.1 (edcfbbe)
C            7.17809572987433        1.15486716417566        0.67607664112713
C            5.96075158560904        0.74418998989714       -0.17229750996774
C            5.95129770695821        1.51743894254238       -1.50280432667410
C            6.05963413193221       -0.73947667151325       -0.47401843815151
C            7.15785692529039       -1.22943155573266       -1.16776293538075
C            7.29802189163377       -2.57253572186149       -1.46499995825210
C            6.31997350423384       -3.46336371731792       -1.06094322983580
C            5.21854604429166       -3.00425993852689       -0.36966318467354
C            5.07535280547604       -1.64686200864364       -0.07355938075839
N            3.96257836048944       -1.22036294971080        0.63531389460768
C            2.92509639758792       -2.13967639552594        0.93467607018517
C            2.83735988216483       -2.73103330236432        2.19140831119464
C            1.76015501835248       -3.54238406389211        2.50903611648188
C            0.73892453066188       -3.73146097978452        1.59069507893621
C            0.84647671190530       -3.15676075748939        0.33979140957161
S           -0.54018286644877       -3.21188310758552       -0.79924034237765
O           -0.03756226368541       -3.15733706606174       -2.14566369167063
O           -1.42421737940795       -4.28662568343078       -0.43975123612659
C           -1.37694538505546       -1.64471679146003       -0.47687036787363
C           -2.75430776656472       -1.62425572390070       -0.46784829548688
C           -3.41515317703430       -0.40521777974373       -0.30165822405219
N           -4.80748199678322       -0.36218578773747       -0.26697153671410
C           -5.61620801468682        0.51864553799315       -0.96616945592708
C           -5.27371804501083        1.49376530678878       -1.89114347405808
C           -6.29621894432530        2.22046984131085       -2.47213110499373
C           -7.63061663541958        1.98258925117426       -2.15349230948353
C           -7.97918360802782        0.99304252483358       -1.25599762511680
C           -6.96900626978529        0.24989091768131       -0.66036557543098
C           -6.97087217985371       -0.84508975913476        0.27036472463237
C           -7.98172904162415       -1.52835324676456        0.93311706760994
C           -7.63355110866619       -2.54530402246750        1.79945834453816
C           -6.29766423060888       -2.87142733699596        2.01926899941654
C           -5.27446721514279       -2.20443521891781        1.37187391955031
C           -5.61995269567691       -1.19961757940240        0.48052213163576
C           -2.67605068956155        0.76990394475742       -0.18505908546459
C           -1.28428914776988        0.73386145544882       -0.20800663788505
N           -0.53119812984004        1.90253400990703       -0.11690889799017
C           -0.73406443279126        2.94665919528685        0.76953290161743
C           -1.65322079258084        3.06913443919918        1.80096537376100
C           -1.61278161058894        4.21727349375620        2.57048233152230
C           -0.67745533482070        5.22062147899230        2.33210550783392
C            0.25866238840847        5.09091319010204        1.32542207036375
C            0.23821939381572        3.94597322595351        0.54107607748467
C            1.06784964035125        3.47556416085861       -0.53303698046741
C            2.16405011218132        4.01585089670828       -1.19091096722429
C            2.74421945147579        3.29229833183158       -2.21235685641056
C            2.22797738317465        2.05676455330939       -2.59294734191818
C            1.13398062159149        1.50180997271827       -1.95618880757343
C            0.56844267242672        2.20882286710993       -0.90531353989370
C           -0.63318325071750       -0.49315159534659       -0.33318410834701
C            1.93961068271616       -2.39103942602619       -0.01294329905234
C            3.75684432151562        0.11593292423886        0.95249753185626
C            2.60455078821643        0.49653385224416        1.64693808532014
C            2.39197812295096        1.81148943507595        2.00341270033778
C            3.32128158453329        2.77507561082024        1.65984034177858
C            4.45132327337178        2.40400493821210        0.95613858171823
C            4.69613931326513        1.08688445432839        0.59294629877476
H            7.17831827421573        0.60335537628233        1.61440725411127
H            8.10568178130637        0.94082737582231        0.15261954414959
H            7.15272868481584        2.21698007137911        0.90291046818093
H            5.90008114748827        2.58821717103145       -1.32711671316727
H            6.84746083603477        1.30765426169344       -2.08017588029280
H            5.08369309699289        1.22582438594540       -2.09084896179055
H            7.93055780042468       -0.54744953790585       -1.48898892487247
H            8.16477471765898       -2.91916299316313       -2.00655365600446
H            6.41204714352010       -4.51607412138709       -1.28165463201956
H            4.45692837070369       -3.70089058589082       -0.05265613795377
H            3.61282799124229       -2.53740530685913        2.91733853540814
H            1.70452846063577       -4.00456752642429        3.48268094193117
H           -0.13412587048964       -4.32184989397367        1.81876658489080
H           -3.29607929744942       -2.54528775128043       -0.60805540964806
H           -4.24594696599874        1.67270797214823       -2.16802314792382
H           -6.05326343265018        2.98673902757755       -3.19317636543589
H           -8.40005115054950        2.57392407930233       -2.62670044430650
H           -9.01402790010936        0.79260773450588       -1.02386705900386
H           -9.01582788451626       -1.26343135135424        0.77349515102208
H           -8.40363135224410       -3.09261631393313        2.32204620516171
H           -6.05404111757210       -3.66255417090982        2.71254919393821
H           -4.24316929661731       -2.45894858918432        1.56261967221968
H           -3.18735862938111        1.71406021965146       -0.08107258926574
H           -2.36839162215507        2.28968041284849        2.01577858236107
H           -2.32068848011207        4.33503210597131        3.37743246347257
H           -0.68084706483845        6.10385759880696        2.95304795893626
H            0.99720971334748        5.85870492571901        1.15164908931579
H            2.54793102908176        4.98403665723942       -0.90807460805438
H            3.59996890185086        3.69088638936983       -2.73609761718995
H            2.68501107600475        1.52123905165321       -3.41213384910686
H            0.72936752646707        0.55786709992373       -2.28857825474452
H            0.44200595344103       -0.52823244316424       -0.30339374196274
H            2.01803165089019       -1.99412623774477       -1.01375728302054
H            1.87192495542642       -0.24728881642089        1.92302441882393
H            1.49956368148813        2.08107923970917        2.54865372363646
H            3.16467894318586        3.80611693220244        1.93538880139235
H            5.16405649307915        3.16842647409919        0.68711791667322

          :  Hamiltonian                  GFN2-xTB          :
         :: gradient norm              0.000050068504 Eh/a0 ::
         :: HOMO-LUMO gap              2.100900590198 eV    ::
         :: SCC energy              -150.933609090990 Eh    ::
         :: -> dispersion             -0.150443738708 Eh    ::
         :: repulsion energy           2.618202284460 Eh    ::

    * Orbital Energies and Occupations

         #    Occupation            Energy/Eh            Energy/eV
      -------------------------------------------------------------
         1        2.0000           -0.7751262             -21.0923
       ...           ...                  ...                  ...
       125        2.0000           -0.4128234             -11.2335
       126        2.0000           -0.4123270             -11.2200
       127        2.0000           -0.4119917             -11.2109
       128        2.0000           -0.4099011             -11.1540
       129        2.0000           -0.4090746             -11.1315
       130        2.0000           -0.4058088             -11.0426
       131        2.0000           -0.4010004             -10.9118
       132        2.0000           -0.3953589             -10.7583
       133        2.0000           -0.3852351             -10.4828
       134        2.0000           -0.3833537             -10.4316
       135        2.0000           -0.3724659             -10.1353
       136        2.0000           -0.3704731             -10.0811
       137        2.0000           -0.3509324              -9.5494 (HOMO)
       138                         -0.2737258              -7.4485 (LUMO)
       139                         -0.2618671              -7.1258
       140                         -0.2602393              -7.0815
       141                         -0.2598218              -7.0701
       142                         -0.2498447              -6.7986
       143                         -0.2471998              -6.7266
       144                         -0.2293045              -6.2397
       145                         -0.2264801              -6.1628
       146                         -0.2264624              -6.1624
       147                         -0.2225734              -6.0565
       148                         -0.2203710              -5.9966
       ...                                ...                  ...
       270                          1.2083046              32.8796
      -------------------------------------------------------------
                  HL-Gap            0.0772067 Eh            2.1009 eV

     #   Z          covCN         q      C6AA      α(0)
     1   6 C        3.761    -0.104    22.535     6.767
     2   6 C        3.909     0.021    20.158     6.382
     3   6 C        3.761    -0.104    22.530     6.766
     4   6 C        2.979    -0.013    28.334     8.731
     5   6 C        2.928    -0.036    28.884     8.814
     6   6 C        2.917    -0.044    29.081     8.843
     7   6 C        2.920    -0.032    28.787     8.799
     8   6 C        2.924    -0.058    29.441     8.898
     9   6 C        2.928     0.058    26.707     8.475
    10   7 N        2.755    -0.074    22.679     7.073
    11   6 C        2.931     0.080    26.211     8.396
    12   6 C        2.921    -0.034    28.844     8.807
    13   6 C        2.921    -0.023    28.576     8.766
    14   6 C        2.953    -0.029    28.730     8.791
    15   6 C        2.971    -0.074    29.831     8.959
    16  16 S        3.820     0.959   107.832    17.477
    17   8 O        0.860    -0.541    24.716     6.666
    18   8 O        0.860    -0.537    24.618     6.652
    19   6 C        2.967    -0.075    29.872     8.965
    20   6 C        2.961    -0.046    29.151     8.856
    21   6 C        2.913     0.074    26.343     8.416
    22   7 N        2.802    -0.040    22.008     6.968
    23   6 C        3.068     0.046    26.899     8.504
    24   6 C        2.910    -0.051    29.256     8.869
    25   6 C        2.924    -0.032    28.800     8.801
    26   6 C        2.920    -0.039    28.971     8.826
    27   6 C        2.913    -0.032    28.793     8.799
    28   6 C        3.067    -0.014    28.295     8.722
    29   6 C        3.067    -0.014    28.295     8.722
    30   6 C        2.913    -0.032    28.795     8.799
    31   6 C        2.920    -0.039    28.965     8.826
    32   6 C        2.924    -0.031    28.777     8.797
    33   6 C        2.910    -0.050    29.236     8.866
    34   6 C        3.069     0.046    26.900     8.504
    35   6 C        2.925    -0.061    29.510     8.909
    36   6 C        2.912     0.074    26.354     8.418
    37   7 N        2.802    -0.040    22.020     6.970
    38   6 C        3.068     0.047    26.883     8.502
    39   6 C        2.910    -0.051    29.274     8.872
    40   6 C        2.924    -0.033    28.816     8.803
    41   6 C        2.920    -0.039    28.978     8.828
    42   6 C        2.913    -0.031    28.771     8.796
    43   6 C        3.068    -0.012    28.248     8.715
    44   6 C        3.067    -0.013    28.262     8.717
    45   6 C        2.913    -0.030    28.759     8.794
    46   6 C        2.920    -0.038    28.946     8.823
    47   6 C        2.925    -0.031    28.780     8.798
    48   6 C        2.910    -0.051    29.277     8.872
    49   6 C        3.070     0.046    26.896     8.504
    50   6 C        2.958    -0.057    29.415     8.896
    51   6 C        2.969    -0.037    28.908     8.819
    52   6 C        2.930     0.057    26.732     8.479
    53   6 C        2.924    -0.062    29.530     8.911
    54   6 C        2.920    -0.032    28.786     8.798
    55   6 C        2.918    -0.042    29.046     8.838
    56   6 C        2.928    -0.035    28.864     8.811
    57   6 C        2.979    -0.012    28.318     8.729
    58   1 H        0.925     0.032     2.563     2.504
    59   1 H        0.925     0.041     2.437     2.441
    60   1 H        0.925     0.040     2.449     2.447
    61   1 H        0.925     0.040     2.455     2.450
    62   1 H        0.925     0.041     2.438     2.442
    63   1 H        0.925     0.034     2.533     2.489
    64   1 H        0.926     0.032     2.561     2.502
    65   1 H        0.926     0.029     2.602     2.522
    66   1 H        0.926     0.031     2.576     2.510
    67   1 H        0.926     0.022     2.703     2.571
    68   1 H        0.926     0.060     2.200     2.320
    69   1 H        0.926     0.057     2.229     2.335
    70   1 H        0.926     0.066     2.125     2.279
    71   1 H        0.926     0.073     2.054     2.241
    72   1 H        0.926     0.028     2.610     2.526
    73   1 H        0.926     0.033     2.548     2.496
    74   1 H        0.926     0.032     2.560     2.502
    75   1 H        0.926     0.035     2.520     2.482
    76   1 H        0.926     0.035     2.522     2.483
    77   1 H        0.926     0.032     2.554     2.499
    78   1 H        0.926     0.034     2.528     2.487
    79   1 H        0.926     0.030     2.587     2.515
    80   1 H        0.926     0.065     2.146     2.291
    81   1 H        0.926     0.027     2.629     2.535
    82   1 H        0.926     0.032     2.556     2.500
    83   1 H        0.926     0.032     2.562     2.503
    84   1 H        0.926     0.034     2.532     2.489
    85   1 H        0.926     0.035     2.522     2.484
    86   1 H        0.926     0.033     2.544     2.494
    87   1 H        0.926     0.033     2.546     2.495
    88   1 H        0.926     0.032     2.563     2.504
    89   1 H        0.926     0.054     2.275     2.359
    90   1 H        0.926     0.067     2.122     2.278
    91   1 H        0.926     0.013     2.843     2.637
    92   1 H        0.926     0.024     2.669     2.555
    93   1 H        0.926     0.029     2.599     2.521
    94   1 H        0.926     0.033     2.545     2.495

molecular dipole:
                 x           y           z       tot (Debye)
 q only:        0.584       1.520       1.504
   full:        0.582       1.332       1.487       5.285

 projected vibrational frequencies (cm⁻¹)
eigval :       -0.00    -0.00    -0.00    -0.00     0.00     0.00
eigval :        9.50    15.76    16.73    19.39    21.85    26.17
eigval :       30.01    39.76    45.78    49.45    67.76    71.36
eigval :       74.55    84.87    96.18   101.07   108.57   114.03
eigval :      122.83   125.38   131.42   140.29   145.60   150.68
eigval :      171.17   182.04   191.03   192.41   207.91   223.20
eigval :      226.71   238.78   243.68   248.84   256.22   261.67
eigval :      269.36   274.93   278.45   286.59   300.98   307.29
eigval :      317.04   329.33   331.84   347.30   362.39   367.78
eigval :      370.61   383.83   395.44   397.89   406.72   412.38
eigval :      418.98   422.77   423.91   438.12   440.13   447.48
eigval :      450.63   483.40   490.35   497.78   512.52   517.02
eigval :      517.42   520.42   527.23   540.35   541.17   541.89
eigval :      544.65   548.20   549.24   562.64   585.41   585.97
eigval :      588.39   605.80   610.24   613.87   619.99   638.31
eigval :      648.92   657.88   670.91   673.84   677.56   678.39
eigval :      682.12   692.85   696.13   708.32   709.20   749.37
eigval :      752.02   760.89   769.32   770.13   772.09   775.65
eigval :      777.89   781.51   782.08   784.13   797.73   825.41
eigval :      836.57   865.35   866.87   868.07   871.03   874.78
eigval :      881.80   890.07   896.13   897.59   899.38   902.03
eigval :      904.65   906.86   907.13   912.07   913.55   913.80
eigval :      915.21   921.19   921.74   923.46   924.36   927.08
eigval :      927.92   928.97   929.15   932.26   938.18   942.20
eigval :      958.54   994.48   996.53  1011.72  1012.71  1015.12
eigval :     1033.14  1071.94  1073.00  1075.20  1076.81  1077.89
eigval :     1083.01  1092.82  1105.65  1108.39  1113.25  1118.94
eigval :     1120.32  1124.09  1128.28  1141.10  1153.38  1154.79
eigval :     1162.02  1165.28  1168.12  1174.23  1179.24  1180.73
eigval :     1181.22  1183.79  1186.50  1188.67  1203.08  1203.90
eigval :     1213.01  1229.85  1235.32  1236.20  1237.47  1245.91
eigval :     1248.52  1249.87  1252.50  1269.52  1294.19  1295.22
eigval :     1296.00  1299.83  1301.77  1303.33  1314.40  1314.59
eigval :     1326.09  1334.40  1335.45  1345.31  1357.21  1357.58
eigval :     1358.92  1361.83  1376.81  1402.99  1412.20  1416.32
eigval :     1418.90  1420.95  1427.14  1428.22  1436.69  1443.83
eigval :     1452.98  1460.95  1462.29  1476.12  1476.59  1481.97
eigval :     1486.90  1487.71  1488.35  1489.81  1496.66  1499.22
eigval :     1504.55  1545.35  1558.72  1575.56  1577.18  1577.71
eigval :     1582.42  1589.51  1589.94  1590.45  1593.47  1594.44
eigval :     1599.47  1600.16  1603.10  1613.75  1615.00  3028.30
eigval :     3035.64  3040.71  3043.44  3049.49  3053.08  3077.27
eigval :     3077.80  3079.21  3079.67  3080.26  3080.58  3083.44
eigval :     3083.66  3084.73  3084.95  3085.70  3086.02  3089.66
eigval :     3090.34  3090.61  3091.53  3091.75  3092.12  3093.52
eigval :     3097.40  3097.54  3098.52  3099.20  3099.79  3100.07
eigval :     3100.19  3102.54  3109.56  3111.33  3118.67  3133.22

   temp. (K)  partition function   enthalpy   heat capacity  entropy
                                   cal/mol     cal/K/mol   cal/K/mol   J/K/mol
 298.15  VIB  0.778E+21            27421.360    173.752    169.089
         ROT  0.105E+09              888.752      2.981     39.693
         INT  0.820E+29            28310.112    176.733    208.782
         TR   0.201E+29             1481.254      4.968     45.727
         TOT                       29791.3662   181.7015   254.5083  1064.8626

       T/K    H(0)-H(T)+PV         H(T)/Eh          T*S/Eh         G(T)/Eh
   ------------------------------------------------------------------------
    298.15    0.474756E-01    0.771338E+00    0.120925E+00    0.650413E+00
   ------------------------------------------------------------------------

         :::::::::::::::::::::::::::::::::::::::::::::::::::::
         ::                  THERMODYNAMIC                  ::
         :::::::::::::::::::::::::::::::::::::::::::::::::::::
         :: total free energy        -147.664993753237 Eh   ::
         ::.................................................::
         :: total energy             -148.315406806529 Eh   ::
         :: zero point energy           0.723862575232 Eh   ::
         :: G(RRHO) w/o ZPVE           -0.073449521940 Eh   ::
         :: G(RRHO) contrib.            0.650413053292 Eh   ::
         :::::::::::::::::::::::::::::::::::::::::::::::::::::

           -------------------------------------------------
          | TOTAL ENERGY             -148.315406806529 Eh   |
          | TOTAL ENTHALPY           -147.544068667387 Eh   |
          | TOTAL FREE ENERGY        -147.664993753237 Eh   |
          | GRADIENT NORM               0.000050062790 Eh/α |
          | HOMO-LUMO GAP               2.100900871425 eV   |
           -------------------------------------------------

 * finished run on 2025/08/22 at 12:14:05.517
