   * xtb version 6.7.1 (edcfbbe) compiled by 'albert@albert-system' on 2024-07-22

   ID    Z sym.   atoms
    1    6 C      1-9, 11-15, 19-21, 23-36, 38-57
    2    7 N      10, 22, 37
    3   16 S      16
    4    8 O      17, 18
    5    1 H      58-94

          program call               : xtb data2507/gas/m-CZ-DPS-DMAC/m-CZ-DPS-DMAC.xyz --gfn 2 --ohess vtight --parallel 40 --molden --ceasefiles --namespace data2507/gas/m-CZ-DPS-DMAC/m-CZ-DPS-DMAC_gas_S0_preOpt
          :  Hamiltonian                  GFN2-xTB          :
 * total energy  :  -148.2825969 Eh     change       -0.2830745E-08 Eh
 * total energy  :  -148.3032482 Eh     change       -0.2065134E-01 Eh
 * total energy  :  -148.3094711 Eh     change       -0.6222914E-02 Eh
 * total energy  :  -148.3105128 Eh     change       -0.1041668E-02 Eh
 * total energy  :  -148.3110450 Eh     change       -0.5321613E-03 Eh
 * total energy  :  -148.3113213 Eh     change       -0.2763731E-03 Eh
 * total energy  :  -148.3115709 Eh     change       -0.2495031E-03 Eh
 * total energy  :  -148.3118226 Eh     change       -0.2517843E-03 Eh
 * total energy  :  -148.3120666 Eh     change       -0.2439818E-03 Eh
 * total energy  :  -148.3122788 Eh     change       -0.2122297E-03 Eh
 * total energy  :  -148.3154014 Eh     change       -0.1095395E-05 Eh
 * total energy  :  -148.3154028 Eh     change       -0.1430586E-05 Eh
 * total energy  :  -148.3154045 Eh     change       -0.1656423E-05 Eh
 * total energy  :  -148.3154060 Eh     change       -0.1482520E-05 Eh
 * total energy  :  -148.3154070 Eh     change       -0.1038168E-05 Eh
 * total energy  :  -148.3154076 Eh     change       -0.6301853E-06 Eh
 * total energy  :  -148.3154081 Eh     change       -0.4822664E-06 Eh
 * total energy  :  -148.3154085 Eh     change       -0.3871171E-06 Eh
 * total energy  :  -148.3154085 Eh     change       -0.5420645E-08 Eh
   *** GEOMETRY OPTIMIZATION CONVERGED AFTER 380 ITERATIONS ***

 final structure:
================
94
 xtb: 6.7.1 (edcfbbe)
C            6.83057184549305        1.04700151369882        0.78319598553614
C            5.62960989669099        0.75612343935005       -0.13532615349690
C            5.59140019660144        1.76156834859376       -1.29965410083476
C            5.78472140051809       -0.64170289525164       -0.70464423936449
C            6.89747583392796       -0.95202260641442       -1.47464634423640
C            7.08953766810631       -2.21156864711292       -2.01184871536488
C            6.15050201125576       -3.20005573257011       -1.77835026820260
C            5.03599400299447       -2.91987181282965       -1.01599008593687
C            4.84040679963673       -1.64625166061565       -0.47715075947980
N            3.71625787902995       -1.40166286284316        0.29682504734452
C            2.72373451255547       -2.40537693238135        0.43310666369904
C            2.67758651682581       -3.21168604164873        1.56649313253872
C            1.64079146715336       -4.11384184933730        1.74152506766018
C            0.61708833584208       -4.18417950391209        0.80927675646726
C            0.68383125975622       -3.39449866952247       -0.32145138405877
S           -0.71335923722206       -3.31136661158247       -1.44586063510166
O           -0.22986422246330       -3.00436745909222       -2.76514360047209
O           -1.54784911161674       -4.46876718995324       -1.27290350213681
C           -1.61095512840494       -1.85996642426124       -0.85573139553398
C           -2.98801371385788       -1.89752024829146       -0.84876797723875
C           -3.69765695782306       -0.75336129856199       -0.47770101610674
N           -5.09059864815243       -0.77184557341229       -0.44600005459829
C           -5.93258107672945        0.18381804796491       -0.99068746562306
C           -5.62748431965381        1.31706909786571       -1.72986706935265
C           -6.67703853670673        2.09243404608348       -2.18632902985184
C           -8.00153722580453        1.75030447352407       -1.92677666552968
C           -8.31204954008734        0.60722394334293       -1.21745946833411
C           -7.27414903523354       -0.18714071994412       -0.74919430805729
C           -7.23401838799636       -1.42560171679286       -0.02130577303830
C           -8.21809793620221       -2.25229336955908        0.50408983553206
C           -7.83125048695942       -3.38863810453539        1.18601790585645
C           -6.48381968082425       -3.69471171037043        1.35928538678724
C           -5.48677156813201       -2.88635781453206        0.84603631448087
C           -5.87036866192503       -1.75734016218507        0.13774879056639
C           -3.00676539565324        0.41270009130217       -0.15557207362219
C           -1.61483533707926        0.43798356492254       -0.17909995201331
N           -0.91004873172211        1.60343372857535        0.11482847000725
C           -1.15088218153865        2.46825784981042        1.16888245772500
C           -2.06738509702235        2.37012181319747        2.20525518538929
C           -2.06891098287236        3.36670024944197        3.16381014220563
C           -1.17746785584339        4.43453629019483        3.10489732582318
C           -0.24434146246055        4.52253007487782        2.09094452992695
C           -0.22286895776266        3.53239712307555        1.11848124401820
C            0.61863333976982        3.29138139068681       -0.02041587657656
C            1.68655204395534        3.98395904229892       -0.57378166991654
C            2.29092364295742        3.47317559976049       -1.70397521763928
C            1.82593228990252        2.30049297264844       -2.29261947503534
C            0.76010602228934        1.59769288646361       -1.76312255700799
C            0.17094408193661        2.08800808152614       -0.60706852789831
C           -0.91445993898339       -0.72104330647444       -0.51261116633322
C            1.73835236575512       -2.53060049218165       -0.53938363297979
C            3.45719307130043       -0.15407548471630        0.84907962984362
C            2.29369337950358        0.04724018194085        1.59783293112723
C            2.02805660971182        1.26706520457513        2.18334549194885
C            2.91449428439468        2.31479683737127        2.02023245942774
C            4.05598332700261        2.12321583217624        1.26513127921990
C            4.35363308634779        0.90395676612671        0.67230176566429
H            6.85103436330460        0.33163987066073        1.60326568742627
H            7.76564438370225        0.96748029141406        0.23582882495624
H            6.76518840315239        2.04707024826485        1.20252809092770
H            5.50206039749514        2.77884183537647       -0.92926961395905
H            6.49413303990866        1.69461138330530       -1.90048717535485
H            4.73447260094982        1.55329889510388       -1.93670522645969
H            7.64060711869833       -0.19234779969202       -1.66441592941264
H            7.96624828587222       -2.41823661515144       -2.60629077603826
H            6.28334703470912       -4.19023399620936       -2.18736301609662
H            4.30507622301641       -3.69305252857549       -0.83215840869803
H            3.45297957770658       -3.11380646340279        2.31147235566364
H            1.61766923608267       -4.74193834436586        2.61881140048492
H           -0.22674119359158       -4.84383135936686        0.93413865601027
H           -3.49210902359070       -2.80178077364501       -1.14824696708659
H           -4.60712162437562        1.58173577109861       -1.96179871683579
H           -6.46336956961966        2.98107086878554       -2.76145386746827
H           -8.79304185535550        2.38376500631610       -2.29808847360666
H           -9.33853216349624        0.32872478033760       -1.03382073579839
H           -9.26166204234590       -2.00502620161729        0.38222757658620
H           -8.57990548736585       -4.04770828173322        1.59930942576250
H           -6.21022118416830       -4.58308784548983        1.90864077229289
H           -4.44648551378886       -3.12897698076717        0.99991070769307
H           -3.55578035713220        1.30295341253478        0.10850956373407
H           -2.74829605331871        1.53586409758583        2.27989572576448
H           -2.77513999972578        3.31170560358823        3.97890949905882
H           -1.21253613453052        5.19437034522047        3.87113524687915
H            0.46041961945217        5.33930658229241        2.05422243970099
H            2.03027224104022        4.90460413015352       -0.12767773714468
H            3.12557308786085        3.99283476697512       -2.14985249456238
H            2.30101348215704        1.93403789143604       -3.19081427514297
H            0.39416435707599        0.70866426528768       -2.25398095480675
H            0.16136205291264       -0.71618775088433       -0.48595130048616
H            1.78698029192729       -1.96120137949840       -1.45520494309149
H            1.59446443711982       -0.76422663838719        1.73504174565807
H            1.12792748723546        1.39689804743646        2.76582062243502
H            2.71614614046717        3.27244438692568        2.47528755378770
H            4.73558458597355        2.95224688828149        1.14044207907630

          :  Hamiltonian                  GFN2-xTB          :
         :: gradient norm              0.000053274235 Eh/a0 ::
         :: HOMO-LUMO gap              2.102560082131 eV    ::
         :: SCC energy              -150.933606539820 Eh    ::
         :: -> dispersion             -0.150471042148 Eh    ::
         :: repulsion energy           2.618198039392 Eh    ::

    * Orbital Energies and Occupations

         #    Occupation            Energy/Eh            Energy/eV
      -------------------------------------------------------------
         1        2.0000           -0.7751340             -21.0925
       ...           ...                  ...                  ...
       125        2.0000           -0.4128387             -11.2339
       126        2.0000           -0.4123565             -11.2208
       127        2.0000           -0.4119871             -11.2107
       128        2.0000           -0.4098711             -11.1532
       129        2.0000           -0.4090699             -11.1314
       130        2.0000           -0.4058365             -11.0434
       131        2.0000           -0.4010161             -10.9122
       132        2.0000           -0.3953789             -10.7588
       133        2.0000           -0.3852149             -10.4822
       134        2.0000           -0.3833143             -10.4305
       135        2.0000           -0.3724414             -10.1346
       136        2.0000           -0.3704411             -10.0802
       137        2.0000           -0.3509478              -9.5498 (HOMO)
       138                         -0.2736802              -7.4472 (LUMO)
       139                         -0.2618772              -7.1260
       140                         -0.2602576              -7.0820
       141                         -0.2598608              -7.0712
       142                         -0.2498371              -6.7984
       143                         -0.2471707              -6.7259
       144                         -0.2292963              -6.2395
       145                         -0.2264869              -6.1630
       146                         -0.2264234              -6.1613
       147                         -0.2225936              -6.0571
       148                         -0.2203885              -5.9971
       ...                                ...                  ...
       270                          1.2081569              32.8756
      -------------------------------------------------------------
                  HL-Gap            0.0772676 Eh            2.1026 eV

     #   Z          covCN         q      C6AA      α(0)
     1   6 C        3.761    -0.104    22.534     6.767
     2   6 C        3.909     0.021    20.158     6.382
     3   6 C        3.761    -0.104    22.532     6.767
     4   6 C        2.979    -0.013    28.335     8.732
     5   6 C        2.928    -0.036    28.884     8.814
     6   6 C        2.917    -0.044    29.081     8.843
     7   6 C        2.920    -0.032    28.788     8.799
     8   6 C        2.924    -0.058    29.441     8.898
     9   6 C        2.928     0.058    26.707     8.475
    10   7 N        2.755    -0.074    22.677     7.073
    11   6 C        2.931     0.080    26.211     8.396
    12   6 C        2.921    -0.034    28.844     8.807
    13   6 C        2.921    -0.023    28.575     8.766
    14   6 C        2.953    -0.029    28.730     8.791
    15   6 C        2.971    -0.074    29.830     8.959
    16  16 S        3.820     0.959   107.832    17.477
    17   8 O        0.860    -0.541    24.718     6.666
    18   8 O        0.860    -0.537    24.619     6.652
    19   6 C        2.967    -0.075    29.870     8.965
    20   6 C        2.961    -0.046    29.149     8.856
    21   6 C        2.913     0.074    26.342     8.416
    22   7 N        2.802    -0.040    22.008     6.968
    23   6 C        3.068     0.046    26.899     8.504
    24   6 C        2.910    -0.051    29.257     8.869
    25   6 C        2.924    -0.032    28.800     8.801
    26   6 C        2.920    -0.039    28.971     8.826
    27   6 C        2.913    -0.032    28.793     8.799
    28   6 C        3.067    -0.014    28.295     8.722
    29   6 C        3.067    -0.014    28.295     8.722
    30   6 C        2.913    -0.032    28.795     8.799
    31   6 C        2.920    -0.039    28.965     8.826
    32   6 C        2.924    -0.031    28.777     8.797
    33   6 C        2.910    -0.050    29.235     8.866
    34   6 C        3.069     0.046    26.899     8.504
    35   6 C        2.925    -0.061    29.509     8.908
    36   6 C        2.912     0.074    26.354     8.418
    37   7 N        2.802    -0.040    22.021     6.970
    38   6 C        3.068     0.047    26.883     8.502
    39   6 C        2.910    -0.051    29.274     8.872
    40   6 C        2.924    -0.033    28.816     8.803
    41   6 C        2.920    -0.039    28.978     8.828
    42   6 C        2.913    -0.031    28.771     8.796
    43   6 C        3.068    -0.012    28.249     8.715
    44   6 C        3.067    -0.013    28.262     8.717
    45   6 C        2.913    -0.030    28.759     8.794
    46   6 C        2.920    -0.038    28.947     8.823
    47   6 C        2.925    -0.031    28.780     8.798
    48   6 C        2.910    -0.051    29.276     8.872
    49   6 C        3.070     0.046    26.896     8.504
    50   6 C        2.957    -0.057    29.416     8.896
    51   6 C        2.968    -0.037    28.908     8.819
    52   6 C        2.930     0.057    26.732     8.479
    53   6 C        2.924    -0.062    29.530     8.911
    54   6 C        2.920    -0.031    28.786     8.798
    55   6 C        2.918    -0.042    29.046     8.838
    56   6 C        2.928    -0.035    28.864     8.811
    57   6 C        2.979    -0.012    28.318     8.729
    58   1 H        0.925     0.032     2.565     2.504
    59   1 H        0.925     0.041     2.437     2.441
    60   1 H        0.925     0.040     2.449     2.447
    61   1 H        0.925     0.040     2.455     2.450
    62   1 H        0.925     0.041     2.438     2.442
    63   1 H        0.925     0.034     2.532     2.488
    64   1 H        0.926     0.032     2.561     2.502
    65   1 H        0.926     0.029     2.602     2.522
    66   1 H        0.926     0.031     2.576     2.510
    67   1 H        0.926     0.022     2.702     2.571
    68   1 H        0.926     0.060     2.201     2.320
    69   1 H        0.926     0.057     2.229     2.335
    70   1 H        0.926     0.067     2.123     2.279
    71   1 H        0.926     0.073     2.055     2.242
    72   1 H        0.926     0.028     2.610     2.526
    73   1 H        0.926     0.033     2.548     2.496
    74   1 H        0.926     0.032     2.560     2.502
    75   1 H        0.926     0.035     2.520     2.482
    76   1 H        0.926     0.035     2.522     2.483
    77   1 H        0.926     0.032     2.554     2.499
    78   1 H        0.926     0.034     2.528     2.486
    79   1 H        0.926     0.030     2.587     2.515
    80   1 H        0.926     0.065     2.146     2.291
    81   1 H        0.926     0.027     2.629     2.536
    82   1 H        0.926     0.032     2.556     2.500
    83   1 H        0.926     0.032     2.563     2.503
    84   1 H        0.926     0.034     2.533     2.489
    85   1 H        0.926     0.035     2.522     2.484
    86   1 H        0.926     0.033     2.543     2.494
    87   1 H        0.926     0.033     2.547     2.496
    88   1 H        0.926     0.032     2.565     2.504
    89   1 H        0.926     0.054     2.275     2.359
    90   1 H        0.926     0.067     2.122     2.278
    91   1 H        0.926     0.013     2.844     2.637
    92   1 H        0.926     0.024     2.669     2.555
    93   1 H        0.926     0.029     2.600     2.521
    94   1 H        0.926     0.033     2.545     2.495

molecular dipole:
                 x           y           z       tot (Debye)
 q only:        0.540       1.258       1.743
   full:        0.547       1.075       1.695       5.289

 projected vibrational frequencies (cm⁻¹)
eigval :       -0.00    -0.00    -0.00     0.00     0.00     0.00
eigval :        9.45    15.81    16.77    19.40    21.94    26.15
eigval :       29.98    39.63    45.56    49.39    67.77    71.16
eigval :       74.53    84.92    96.16   101.03   108.79   113.93
eigval :      122.77   125.27   131.46   140.34   145.52   150.58
eigval :      171.23   181.98   190.97   192.38   207.87   223.16
eigval :      226.63   238.74   243.69   248.60   256.27   261.79
eigval :      269.42   274.89   278.49   286.60   300.82   307.27
eigval :      317.01   329.25   331.88   347.34   362.41   367.67
eigval :      370.67   383.84   395.43   397.84   406.68   412.36
eigval :      418.92   422.76   423.90   438.11   440.07   447.47
eigval :      450.62   483.55   490.25   497.92   512.47   517.02
eigval :      517.44   520.41   527.18   540.34   541.17   541.88
eigval :      544.58   548.17   549.28   562.56   585.41   585.98
eigval :      588.40   605.82   610.24   613.92   620.02   638.35
eigval :      648.94   657.90   670.90   673.83   677.55   678.48
eigval :      682.07   692.83   696.05   708.31   709.19   749.37
eigval :      752.02   760.84   769.32   770.13   772.04   775.63
eigval :      777.88   781.51   782.09   784.07   797.69   825.39
eigval :      836.56   865.35   866.86   868.09   871.17   874.79
eigval :      881.66   889.95   896.14   897.55   899.42   902.02
eigval :      904.65   906.79   907.04   912.09   913.56   913.86
eigval :      915.22   921.23   921.74   923.46   924.32   927.04
eigval :      927.93   928.89   929.17   932.34   938.13   942.22
eigval :      958.52   994.49   996.53  1011.71  1012.70  1015.09
eigval :     1033.15  1071.92  1072.93  1075.20  1076.77  1077.86
eigval :     1082.99  1092.83  1105.72  1108.29  1113.25  1118.93
eigval :     1120.33  1124.15  1128.25  1141.09  1153.35  1154.76
eigval :     1162.01  1165.35  1168.13  1174.22  1179.19  1180.74
eigval :     1181.26  1183.82  1186.50  1188.68  1203.09  1203.91
eigval :     1213.05  1229.78  1235.29  1236.21  1237.42  1245.93
eigval :     1248.43  1249.90  1252.47  1269.55  1294.20  1295.15
eigval :     1296.02  1299.84  1301.71  1303.24  1314.38  1314.63
eigval :     1326.12  1334.42  1335.44  1345.35  1357.25  1357.62
eigval :     1358.92  1361.85  1376.78  1402.95  1412.12  1416.39
eigval :     1418.93  1420.98  1427.15  1428.20  1436.65  1443.83
eigval :     1452.95  1460.97  1462.30  1476.12  1476.66  1481.96
eigval :     1486.87  1487.72  1488.39  1489.88  1496.67  1499.20
eigval :     1504.61  1545.33  1558.68  1575.56  1577.18  1577.71
eigval :     1582.36  1589.50  1589.93  1590.48  1593.46  1594.42
eigval :     1599.49  1600.16  1603.09  1613.77  1615.04  3028.05
eigval :     3035.87  3040.70  3043.37  3049.46  3053.04  3077.28
eigval :     3077.77  3079.16  3079.73  3080.24  3080.60  3083.42
eigval :     3083.60  3084.78  3084.90  3085.69  3086.03  3089.67
eigval :     3090.37  3090.55  3091.52  3091.79  3092.07  3093.55
eigval :     3097.41  3097.51  3098.57  3099.17  3099.79  3100.08
eigval :     3100.20  3102.54  3109.41  3111.34  3118.63  3133.33

   temp. (K)  partition function   enthalpy   heat capacity  entropy
                                   cal/mol     cal/K/mol   cal/K/mol   J/K/mol
 298.15  VIB  0.786E+21            27422.917    173.745    169.098
         ROT  0.106E+09              888.752      2.981     39.694
         INT  0.830E+29            28311.670    176.726    208.792
         TR   0.201E+29             1481.254      4.968     45.727
         TOT                       29792.9234   181.6941   254.5186  1064.9059

       T/K    H(0)-H(T)+PV         H(T)/Eh          T*S/Eh         G(T)/Eh
   ------------------------------------------------------------------------
    298.15    0.474780E-01    0.771335E+00    0.120930E+00    0.650405E+00
   ------------------------------------------------------------------------

         :::::::::::::::::::::::::::::::::::::::::::::::::::::
         ::                  THERMODYNAMIC                  ::
         :::::::::::::::::::::::::::::::::::::::::::::::::::::
         :: total free energy        -147.665003459141 Eh   ::
         ::.................................................::
         :: total energy             -148.315408500428 Eh   ::
         :: zero point energy           0.723857007466 Eh   ::
         :: G(RRHO) w/o ZPVE           -0.073451966178 Eh   ::
         :: G(RRHO) contrib.            0.650405041287 Eh   ::
         :::::::::::::::::::::::::::::::::::::::::::::::::::::

           -------------------------------------------------
          | TOTAL ENERGY             -148.315408500428 Eh   |
          | TOTAL ENTHALPY           -147.544073447358 Eh   |
          | TOTAL FREE ENERGY        -147.665003459141 Eh   |
          | GRADIENT NORM               0.000053271354 Eh/α |
          | HOMO-LUMO GAP               2.102559134100 eV   |
           -------------------------------------------------

 * finished run on 2025/08/22 at 12:06:20.781
