   * xtb version 6.7.1 (edcfbbe) compiled by 'albert@albert-system' on 2024-07-22

   ID    Z sym.   atoms
    1    6 C      1-9, 11-15, 19-21, 23-36, 38-57
    2    7 N      10, 22, 37
    3   16 S      16
    4    8 O      17, 18
    5    1 H      58-94

          program call               : xtb data2507/gas/m-CZ-DPS-DMAC/m-CZ-DPS-DMAC_gas_S0_finalOpt.xtbopt.xyz --gfn 2 --spinpol --tblite --uhf 2 --ohess vtight --parallel 40 --molden --ceasefiles --namespace data2507/gas/m-CZ-DPS-DMAC/m-CZ-DPS-DMAC_gas_T1_preOpt
 * total energy  :  -148.2122477 Eh     change        0.1971566E-07 Eh
 * total energy  :  -148.2139203 Eh     change       -0.1672659E-02 Eh
 * total energy  :  -148.2145107 Eh     change       -0.5904006E-03 Eh
 * total energy  :  -148.2146307 Eh     change       -0.1199635E-03 Eh
 * total energy  :  -148.2147147 Eh     change       -0.8402902E-04 Eh
 * total energy  :  -148.2147567 Eh     change       -0.4199297E-04 Eh
 * total energy  :  -148.2148166 Eh     change       -0.5987416E-04 Eh
 * total energy  :  -148.2148686 Eh     change       -0.5199794E-04 Eh
 * total energy  :  -148.2149177 Eh     change       -0.4913137E-04 Eh
 * total energy  :  -148.2149613 Eh     change       -0.4361071E-04 Eh
 * total energy  :  -148.2156720 Eh     change       -0.2761912E-06 Eh
 * total energy  :  -148.2156723 Eh     change       -0.2842292E-06 Eh
 * total energy  :  -148.2156727 Eh     change       -0.3864357E-06 Eh
 * total energy  :  -148.2156731 Eh     change       -0.4260553E-06 Eh
 * total energy  :  -148.2156735 Eh     change       -0.4612358E-06 Eh
 * total energy  :  -148.2156740 Eh     change       -0.4473391E-06 Eh
 * total energy  :  -148.2156744 Eh     change       -0.3933559E-06 Eh
 * total energy  :  -148.2156744 Eh     change        0.1497457E-07 Eh
 * total energy  :  -148.2156744 Eh     change       -0.2072517E-07 Eh
   *** GEOMETRY OPTIMIZATION CONVERGED AFTER 69 ITERATIONS ***

 final structure:
================
94
 xtb: 6.7.1 (edcfbbe)
C            7.04968049465341        1.22647395395469        0.70352086585564
C            5.81592621526416        0.76079167127486       -0.09296148383386
C            5.75711449118306        1.47925110069931       -1.45472907614002
C            5.92976643130055       -0.72891340141563       -0.33569058475193
C            7.03890272514956       -1.24262534906310       -0.99331258096181
C            7.18480752495709       -2.59701685954860       -1.23136546539007
C            6.20357599349500       -3.47915667912598       -0.80207261822037
C            5.08796502781108       -2.99902865493521       -0.15603825860596
C            4.93098451961134       -1.62503515969390        0.07569688942712
N            3.79810530713719       -1.17800261796941        0.71790800407078
C            2.70882083850472       -2.07827471162036        0.90868452956642
C            2.43568430698300       -2.63014945910192        2.16334149751842
C            1.30877529170813       -3.44698988893752        2.31421461599249
C            0.45854743706196       -3.67496334800274        1.25769824113479
C            0.75475454816261       -3.13421670425227        0.00405378681870
S           -0.43036902998742       -3.09537242075621       -1.30787651888639
O            0.28395746462803       -2.94875859589963       -2.55425335514860
O           -1.36926948545112       -4.18165435197141       -1.18109377862223
C           -1.27822745154676       -1.57388307744597       -0.95675895237163
C           -2.65278705773343       -1.58332909119224       -0.71300258468487
C           -3.29507519126590       -0.39840834067496       -0.39199295438042
N           -4.68018503048093       -0.39905818916914       -0.19115800901434
C           -5.58999752397609        0.44979774894484       -0.78667110468621
C           -5.38113753508618        1.46193180716219       -1.71296123542558
C           -6.48704140526586        2.15531130421374       -2.17259874020914
C           -7.77129082333601        1.84788227114620       -1.73088830610999
C           -7.98905004098573        0.82394078159285       -0.82620809222441
C           -6.89596263103017        0.11291217598900       -0.35274086937488
C           -6.75293088145047       -0.99975160687608        0.54511691031674
C           -7.65265295497479       -1.75325790691254        1.28535675838432
C           -7.16265731504440       -2.77194124293894        2.08316810313023
C           -5.79659441557905       -3.03191326575874        2.15990433654519
C           -4.87992703836614       -2.29347168683032        1.43234659944087
C           -5.36782136992433       -1.28737522040989        0.61011713449953
C           -2.57859813120784        0.80455181367880       -0.30246366409975
C           -1.18584729906151        0.79104129765619       -0.50157600670923
N           -0.43691464649813        1.96020191245925       -0.35686816833386
C           -0.58521729365029        2.90200876993468        0.64476028429112
C           -1.43953774885406        2.91208024038801        1.73699844736991
C           -1.35994608105295        3.98033965827159        2.61722586448891
C           -0.44784417205709        5.01447379154590        2.42108626522254
C            0.43070312294237        4.99558998526759        1.35422290491109
C            0.37780677784776        3.92804884301428        0.46521797884495
C            1.15470886933391        3.56502901822452       -0.68078292412497
C            2.23898479117276        4.15278940033482       -1.32172149494399
C            2.76451754601825        3.53083054151148       -2.43803937998850
C            2.20513551222858        2.35588055289398       -2.93433336742702
C            1.12173157638363        1.75307555907713       -2.31420987374519
C            0.61953978003911        2.34437278449245       -1.16458161233901
C           -0.54461740384356       -0.39567470944983       -0.81606216503651
C            1.89628965162196       -2.34819854231259       -0.17172934265356
C            3.60827935937566        0.15173303148144        1.03211896794114
C            2.44671527088988        0.54428701223045        1.71393807763124
C            2.25448158482462        1.85589026100762        2.08138629390656
C            3.20179096859757        2.81134734713722        1.74690242297510
C            4.33030187619842        2.43596476905189        1.04342046880430
C            4.56546548868848        1.11637647159275        0.68238974180873
H            7.08295562123284        0.71871675615310        1.66545560489607
H            7.96571214440090        1.00260769300245        0.16513097257404
H            7.01577641767636        2.29708401379089        0.88105451014241
H            5.69972649164363        2.55530750269009       -1.31803315658717
H            6.63778842040614        1.25194491874500       -2.04889444801102
H            4.87444445947714        1.15949218648257       -2.00488967998557
H            7.81270365749436       -0.57245464194993       -1.33501855515870
H            8.05945679795905       -2.96283436741865       -1.74652816482306
H            6.30942214343146       -4.53896913137295       -0.97412966270203
H            4.32094432899207       -3.67950919955965        0.17811668557521
H            3.08662288964420       -2.42121357507504        2.99712488213874
H            1.10431014267677       -3.88462367419311        3.27965253721136
H           -0.43006386661297       -4.27718245128856        1.35898601719507
H           -3.19289679408083       -2.50722437366271       -0.83784383730032
H           -4.39228733639283        1.69046832224786       -2.07888466194089
H           -6.35082389605004        2.94760212796852       -2.89318399363764
H           -8.60940248079383        2.41247487712788       -2.11120595984056
H           -8.98721133342128        0.57670867768883       -0.49838918433916
H           -8.71068410956802       -1.54498696333379        1.23902648155697
H           -7.84735180661146       -3.37235352597053        2.66329672484824
H           -5.44452597902798       -3.82527110433619        2.80162658961466
H           -3.82209288001251       -2.49321291960635        1.50460768887734
H           -3.09182308891210        1.72677930939940       -0.09018087540757
H           -2.13216527309546        2.10531744700772        1.91865710818921
H           -2.01722159372938        4.00778536712276        3.47312785378753
H           -0.42168277279062        5.83484478930199        3.12295833104091
H            1.14818020355867        5.78965105598428        1.21233939439302
H            2.65503043406807        5.07821845945230       -0.95361596608619
H            3.60970894081973        3.96865213330919       -2.94854809494511
H            2.61563127456807        1.90814236819634       -3.82686155000072
H            0.68198400804600        0.86088443498008       -2.73184566911702
H            0.52656186201659       -0.42268693948501       -0.91296819042620
H            2.12950743922749       -1.97489273775852       -1.15654976481499
H            1.70121635329672       -0.19436720962276        1.96148616939182
H            1.36539166137136        2.13756985009302        2.62373872685247
H            3.05479999811165        3.84187222208559        2.02793307789670
H            5.04608493324896        3.19622915524778        0.77240721604842

 projected vibrational frequencies (cm⁻¹)
eigval :       -0.00    -0.00    -0.00     0.00     0.00     0.00
eigval :       10.49    15.40    17.33    19.17    20.66    26.63
eigval :       31.49    41.22    43.83    48.30    68.19    73.34
eigval :       78.14    83.93    95.34    99.83   103.16   115.84
eigval :      123.60   126.61   129.54   136.66   143.96   149.75
eigval :      168.10   183.94   190.58   191.80   209.37   212.44
eigval :      219.03   231.51   240.44   246.74   256.62   261.34
eigval :      263.19   268.90   273.08   289.90   301.39   304.22
eigval :      315.21   329.96   332.71   345.61   361.36   366.29
eigval :      371.46   381.53   385.96   388.39   390.76   409.13
eigval :      418.41   419.28   419.88   433.95   436.18   447.21
eigval :      449.54   457.82   480.90   496.06   497.80   505.14
eigval :      509.53   513.63   514.77   524.55   529.24   533.73
eigval :      542.46   543.37   545.45   548.04   577.53   579.18
eigval :      582.86   588.89   590.00   609.47   617.92   619.85
eigval :      643.56   646.18   648.97   655.05   665.69   671.29
eigval :      686.63   688.66   699.56   701.37   706.68   735.92
eigval :      747.99   749.72   758.89   759.06   762.65   764.31
eigval :      766.69   769.53   773.65   774.48   778.45   786.03
eigval :      810.66   825.14   833.20   847.97   863.88   866.29
eigval :      868.70   869.53   870.64   871.08   873.26   892.14
eigval :      895.86   897.45   901.28   901.74   902.30   902.99
eigval :      911.70   913.14   914.81   915.55   915.74   916.75
eigval :      917.93   922.04   922.18   927.92   929.97   937.98
eigval :      959.13   966.03   980.41  1006.35  1009.50  1013.77
eigval :     1016.74  1037.77  1055.54  1066.48  1068.16  1069.36
eigval :     1074.98  1080.24  1083.39  1084.87  1093.48  1097.95
eigval :     1104.40  1113.13  1115.94  1124.40  1138.07  1140.76
eigval :     1141.37  1150.47  1159.76  1167.46  1174.57  1175.47
eigval :     1176.09  1177.37  1182.90  1183.20  1184.61  1189.48
eigval :     1197.15  1208.05  1221.31  1227.27  1227.89  1229.73
eigval :     1232.96  1236.47  1241.94  1243.00  1256.83  1273.68
eigval :     1275.41  1283.96  1291.76  1293.41  1300.46  1311.38
eigval :     1314.35  1323.64  1331.67  1332.25  1336.54  1337.21
eigval :     1340.85  1357.89  1359.69  1363.79  1371.19  1378.27
eigval :     1396.64  1398.82  1401.95  1403.03  1407.54  1411.14
eigval :     1418.69  1419.40  1427.48  1431.50  1437.94  1444.49
eigval :     1456.06  1457.20  1460.47  1473.73  1477.87  1479.58
eigval :     1484.99  1485.62  1496.93  1499.62  1521.08  1529.72
eigval :     1538.94  1548.54  1551.26  1555.80  1564.69  1564.86
eigval :     1572.94  1574.01  1576.38  1581.67  1588.90  3031.52
eigval :     3034.18  3044.76  3049.57  3052.09  3059.49  3076.35
eigval :     3077.96  3081.03  3081.65  3083.77  3084.95  3086.47
eigval :     3087.02  3087.35  3088.60  3091.83  3092.17  3093.03
eigval :     3093.83  3094.06  3095.58  3096.37  3098.44  3100.04
eigval :     3100.27  3100.49  3100.94  3102.12  3102.40  3107.73
eigval :     3107.82  3111.11  3113.00  3117.11  3121.64  3132.19

   temp. (K)  partition function   enthalpy   heat capacity  entropy
                                   cal/mol     cal/K/mol   cal/K/mol   J/K/mol
 298.15  VIB  0.102E+22            27775.308    176.469    170.934
         ROT  0.102E+09              888.752      2.981     39.624
         INT  0.104E+30            28664.060    179.450    210.558
         TR   0.201E+29             1481.254      4.968     45.727
         TOT                       30145.3142   184.4180   256.2851  1072.2968

       T/K    H(0)-H(T)+PV         H(T)/Eh          T*S/Eh         G(T)/Eh
   ------------------------------------------------------------------------
    298.15    0.480396E-01    0.764954E+00    0.121769E+00    0.643184E+00
   ------------------------------------------------------------------------

         :::::::::::::::::::::::::::::::::::::::::::::::::::::
         ::                  THERMODYNAMIC                  ::
         :::::::::::::::::::::::::::::::::::::::::::::::::::::
         :: total free energy        -147.572489936676 Eh   ::
         ::.................................................::
         :: total energy             -148.215674300999 Eh   ::
         :: zero point energy           0.716914067912 Eh   ::
         :: G(RRHO) w/o ZPVE           -0.073729703589 Eh   ::
         :: G(RRHO) contrib.            0.643184364323 Eh   ::
         :::::::::::::::::::::::::::::::::::::::::::::::::::::

           -------------------------------------------------
          | TOTAL ENERGY             -148.215674300999 Eh   |
          | TOTAL ENTHALPY           -147.450720617124 Eh   |
          | TOTAL FREE ENERGY        -147.572489936676 Eh   |
          | GRADIENT NORM               0.000117760470 Eh/α |
           -------------------------------------------------

 * finished run on 2025/08/22 at 12:14:31.154
