   * xtb version 6.7.1 (edcfbbe) compiled by 'albert@albert-system' on 2024-07-22

   ID    Z sym.   atoms
    1    8 O      1
    2    6 C      2-6, 8-20, 22-39, 41-53, 55-68
    3    7 N      7, 40
    4   16 S      21, 54
    5    1 H      69-108

          program call               : xtb data2507/toluene/STAC-BP-STAC/STAC-BP-STAC_toluene_T1_crest.xyz --gfn 2 --uhf 2 --gbsa toluene --ohess vtight --parallel 40 --molden --ceasefiles --namespace data2507/toluene/STAC-BP-STAC/STAC-BP-STAC_toluene_T1_finalOpt
      * Solvation model:               GBSA
        Solvent                        toluene
        Solvent mass                       9.2140E+01 g/mol
          :  Hamiltonian                  GFN2-xTB          :
 * total energy  :  -171.7561415 Eh     change       -0.1401568E-07 Eh
 * total energy  :  -171.7563198 Eh     change       -0.1782564E-03 Eh
 * total energy  :  -171.7563737 Eh     change       -0.5399580E-04 Eh
 * total energy  :  -171.7563926 Eh     change       -0.1880962E-04 Eh
 * total energy  :  -171.7564033 Eh     change       -0.1069843E-04 Eh
 * total energy  :  -171.7564108 Eh     change       -0.7566639E-05 Eh
 * total energy  :  -171.7564135 Eh     change       -0.2641870E-05 Eh
 * total energy  :  -171.7564161 Eh     change       -0.2587330E-05 Eh
 * total energy  :  -171.7564177 Eh     change       -0.1676481E-05 Eh
 * total energy  :  -171.7564191 Eh     change       -0.1419629E-05 Eh
 * total energy  :  -171.7564888 Eh     change       -0.3080467E-06 Eh
 * total energy  :  -171.7564891 Eh     change       -0.2787520E-06 Eh
 * total energy  :  -171.7564893 Eh     change       -0.2454946E-06 Eh
 * total energy  :  -171.7564895 Eh     change       -0.2031501E-06 Eh
 * total energy  :  -171.7564899 Eh     change       -0.3368442E-06 Eh
 * total energy  :  -171.7564902 Eh     change       -0.3115614E-06 Eh
 * total energy  :  -171.7564905 Eh     change       -0.2873819E-06 Eh
 * total energy  :  -171.7564907 Eh     change       -0.2346628E-06 Eh
 * total energy  :  -171.7564908 Eh     change       -0.9097351E-07 Eh
   *** GEOMETRY OPTIMIZATION CONVERGED AFTER 58 ITERATIONS ***

 final structure:
================
108
 xtb: 6.7.1 (edcfbbe)
O           -0.00111408979335       -4.66755364746400       -0.16630595871123
C            0.00524467942989       -3.39300662835808       -0.12356231878217
C           -1.25113547378093       -2.66988345750713       -0.08790232970361
C           -1.40864485674095       -1.36040938537925       -0.58214814824299
C           -2.63622856498685       -0.74246238157899       -0.56707442623833
C           -3.75742379453520       -1.40944582249554       -0.06909227245167
N           -5.02406091675940       -0.75820619895030       -0.04603959178514
C           -5.27176292035705        0.19267976620806        0.92549749072773
C           -4.29219044547115        0.49743633357261        1.88091890054884
C           -4.52326353872443        1.45092595206438        2.84824117511424
C           -5.73679485274627        2.12221019732172        2.89431023350220
C           -6.71633347232432        1.81384485190368        1.96845551417407
C           -6.50428586993683        0.85719945120875        0.98766057199480
C           -7.63401839586263        0.54868488712813        0.02687359968327
C           -8.78095956003620       -0.01243620412070        0.85170947385371
C           -8.49460322621736       -1.11782893935632        1.65061120570908
C           -9.45881828755297       -1.71953986125681        2.43386679119534
C          -10.75292353336894       -1.22079019893716        2.43514960627300
C          -11.05963261810792       -0.13053791612730        1.65007800635610
C          -10.08127818619372        0.47151614716686        0.85968352616440
S          -10.63022606759489        1.84610726087920       -0.09996921348951
C           -9.15912124107586        2.43131683197286       -0.87826682791272
C           -9.31116669643599        3.58332288360628       -1.64915735383562
C           -8.23366369975318        4.13009253119561       -2.31179056370811
C           -6.98985416175588        3.52562929648408       -2.20667588631894
C           -6.84583775883904        2.38628845600579       -1.44094515827397
C           -7.92102342994044        1.81594190571946       -0.76219795678021
C           -7.24637379969498       -0.51475807757280       -0.98159795187038
C           -8.18089799190966       -0.89788488085499       -1.93122652432958
C           -7.88008598671033       -1.84314444827572       -2.89437845923814
C           -6.61335988231608       -2.40891337529494       -2.91863024952012
C           -5.67113449491622       -2.04443400512344       -1.98191725976417
C           -5.97422492252581       -1.10347307409879       -0.98770081405648
C           -3.63053010246949       -2.72518537906807        0.38404524224839
C           -2.40683489620695       -3.34420651925762        0.36124467519993
C            1.26882645486468       -2.68143909738101       -0.11067453525647
C            2.41766248264037       -3.33480832807749       -0.60571235062800
C            3.64808656226899       -2.72881932990988       -0.58551912736114
C            3.78801878878060       -1.44924604881677       -0.04233588520699
N            5.06051133602493       -0.80889945236812       -0.01619067216558
C            5.99372362188807       -1.20607669904716        0.92168216752710
C            5.68067186905437       -2.21143714540427        1.84722594646974
C            6.60796173587724       -2.62507826892956        2.77856284091950
C            7.86785851325835       -2.04495867809835        2.81820493893331
C            8.17784812145578       -1.03757334084002        1.92315093270151
C            7.25946226503051       -0.60626008214429        0.97850549327218
C            7.65849449016152        0.52138002093672        0.04910211677613
C            8.84107369454013        0.03757059248651       -0.77431812839495
C            8.67280778678120       -1.15926487099927       -1.46804187685333
C            9.67082266529792       -1.68677141788709       -2.26247816703992
C           10.87936646412926       -1.01718418201878       -2.38314713344716
C           11.06696973481313        0.16960862395580       -1.70826241779286
C           10.05381224935847        0.69803096735972       -0.90927157577480
S           10.43579836224852        2.23096846614178       -0.12451916850124
C            9.03192194188101        2.54114473821868        0.89776404130046
C            9.12975091893960        3.66528549086617        1.71692351505833
C            8.09184625071825        4.01507271595307        2.55323793272472
C            6.94320666062556        3.23824941438895        2.57575297773679
C            6.85300880178663        2.12621089694529        1.76294749566725
C            7.89038710733392        1.75248640515423        0.91072215449261
C            6.55398650373708        0.86678025299621       -0.93027330298805
C            6.78071944388658        1.87253727157785       -1.85721058479903
C            5.82066593221455        2.22002537894056       -2.78951951565303
C            4.61113866152088        1.54035515223218       -2.80490938370927
C            4.36555260406586        0.53856693092547       -1.89168606187389
C            5.32570286715017        0.19171336297148       -0.93091951013764
C            2.67330839294319       -0.80577999182553        0.49885736279777
C            1.43921794820003       -1.41029130975810        0.47123049036443
H           -0.56415770320274       -0.84903931079978       -1.01853252520865
H           -2.74537403552250        0.26037057512423       -0.95529130383557
H           -3.35074306859683       -0.02823769092029        1.85749370635827
H           -3.75303402141891        1.66968290455567        3.57233678667070
H           -5.91993151582021        2.87106486790851        3.64906733719536
H           -7.67001515710771        2.32033890284591        2.00377402103515
H           -7.48802362169734       -1.50951334837234        1.65202304216664
H           -9.20253701994792       -2.57467927317629        3.04052444842673
H          -11.51734056254893       -1.67962673112785        3.04342402277732
H          -12.06062412492067        0.27445825927974        1.63272087803082
H          -10.28952085685516        4.03557565638884       -1.71667993964740
H           -8.36239564842494        5.02108995119606       -2.90713549631880
H           -6.13614820958199        3.94014271940660       -2.72072076135172
H           -5.87662980683166        1.91621099735691       -1.36291820722464
H           -9.16033926272157       -0.44267368885210       -1.91397523567910
H           -8.62198455424049       -2.13007770205216       -3.62318715311389
H           -6.35733286926068       -3.13697377098627       -3.67346411265141
H           -4.68621591352617       -2.48333213577220       -2.01199826122163
H           -4.50202097445748       -3.24770759079939        0.75198418210221
H           -2.29252777470326       -4.36351548455495        0.70118312086245
H            2.29285717155531       -4.32666564216461       -1.01591289413662
H            4.51393197663426       -3.23389268971862       -0.98932330468823
H            4.70062957450250       -2.66167648134827        1.82777643168682
H            6.34519060840585       -3.40369717309401        3.47861274124059
H            8.59713959604556       -2.36940732126549        3.54398843713342
H            9.15127013599452       -0.56975209633944        1.95424124133968
H            7.73196867578958       -1.68214144767844       -1.37803885132323
H            9.50671373348110       -2.61576713689706       -2.78688049377350
H           11.66945444222959       -1.41758259806983       -2.99980204203572
H           11.99826710143866        0.71055623175222       -1.78826037113286
H           10.03397924369964        4.25466789089210        1.68069357394419
H            8.17707458052537        4.88757155865711        3.18281303638038
H            6.12047829009813        3.49923832910244        3.22378366482951
H            5.95640395401565        1.52439471291989        1.78285477721774
H            7.72905787658305        2.38936005860421       -1.84651361656714
H            6.01585727438331        3.00710853554160       -3.50112252195145
H            3.85589613486460        1.79078093876404       -3.53448559725402
H            3.42719836060920        0.00723352115518       -1.91478397436521
H            2.79278271720526        0.16778620013628        0.95309968949343
H            0.59969644340227       -0.92017488304928        0.94033047659780

          :  Hamiltonian                  GFN2-xTB          :
         :: gradient norm              0.000066815671 Eh/a0 ::
         :: HOMO-LUMO gap              0.627387261954 eV    ::
         :: SCC energy              -174.842279561486 Eh    ::
         :: -> dispersion             -0.178200473997 Eh    ::
         :: -> Gsolv                  -0.080059795883 Eh    ::
         :: repulsion energy           3.085788665597 Eh    ::

    * Orbital Energies and Occupations

         #    Occupation            Energy/Eh            Energy/eV
      -------------------------------------------------------------
         1        2.0000           -0.7281037             -19.8127
       ...           ...                  ...                  ...
       149        2.0000           -0.4071853             -11.0801
       150        2.0000           -0.4070732             -11.0770
       151        2.0000           -0.4066794             -11.0663
       152        2.0000           -0.4063205             -11.0565
       153        2.0000           -0.4052225             -11.0267
       154        2.0000           -0.3976222             -10.8199
       155        2.0000           -0.3965421             -10.7905
       156        1.9609           -0.3663717              -9.9695
       157        1.9606           -0.3663651              -9.9693
       158        1.9452           -0.3660362              -9.9604
       159        1.6982           -0.3641273              -9.9084
       160        1.4351           -0.3630828              -9.8800
       161        1.0000           -0.2769892              -7.5373 (HOMO)
       162        0.0000           -0.2539336              -6.9099 (LUMO)
       163        0.0000           -0.2538693              -6.9081
       164                         -0.2399916              -6.5305
       165                         -0.2399604              -6.5297
       166                         -0.2380764              -6.4784
       167                         -0.2380602              -6.4779
       168                         -0.2366406              -6.4393
       169                         -0.2364682              -6.4346
       170                         -0.2353004              -6.4029
       171                         -0.2352466              -6.4014
       172                         -0.2318339              -6.3085
       ...                                ...                  ...
       322                          0.6736010              18.3296
      -------------------------------------------------------------
                  HL-Gap            0.0230556 Eh            0.6274 eV

     #   Z          covCN         q      C6AA      α(0)
     1   8 O        0.858    -0.533    24.529     6.640
     2   6 C        2.834     0.160    24.532     8.116
     3   6 C        2.967    -0.020    28.502     8.757
     4   6 C        2.919    -0.044    29.098     8.846
     5   6 C        2.916    -0.042    29.050     8.838
     6   6 C        2.927     0.038    27.159     8.546
     7   7 N        2.752    -0.029    21.815     6.937
     8   6 C        2.926     0.062    26.606     8.459
     9   6 C        2.922    -0.048    29.194     8.861
    10   6 C        2.918    -0.027    28.686     8.783
    11   6 C        2.917    -0.033    28.817     8.803
    12   6 C        2.924    -0.031    28.778     8.797
    13   6 C        2.990    -0.004    28.117     8.698
    14   6 C        3.927     0.021    20.166     6.382
    15   6 C        3.007     0.003    27.934     8.670
    16   6 C        2.931    -0.034    28.843     8.808
    17   6 C        2.918    -0.033    28.827     8.804
    18   6 C        2.920    -0.028    28.712     8.787
    19   6 C        2.996    -0.038    28.943     8.825
    20   6 C        2.971     0.046    26.955     8.516
    21  16 S        2.151    -0.130   146.502    20.372
    22   6 C        2.971     0.047    26.952     8.516
    23   6 C        2.995    -0.038    28.942     8.825
    24   6 C        2.920    -0.028    28.713     8.787
    25   6 C        2.918    -0.033    28.827     8.804
    26   6 C        2.931    -0.034    28.843     8.808
    27   6 C        3.007     0.003    27.933     8.670
    28   6 C        2.991    -0.004    28.114     8.698
    29   6 C        2.924    -0.032    28.798     8.800
    30   6 C        2.917    -0.033    28.817     8.803
    31   6 C        2.918    -0.027    28.686     8.783
    32   6 C        2.922    -0.047    29.179     8.858
    33   6 C        2.926     0.063    26.598     8.458
    34   6 C        2.915    -0.042    29.044     8.837
    35   6 C        2.924    -0.032    28.791     8.799
    36   6 C        2.967    -0.020    28.503     8.757
    37   6 C        2.924    -0.032    28.791     8.799
    38   6 C        2.914    -0.042    29.044     8.837
    39   6 C        2.927     0.038    27.157     8.546
    40   7 N        2.752    -0.030    21.819     6.938
    41   6 C        2.926     0.062    26.602     8.458
    42   6 C        2.922    -0.048    29.186     8.859
    43   6 C        2.918    -0.027    28.683     8.782
    44   6 C        2.917    -0.033    28.814     8.802
    45   6 C        2.924    -0.031    28.779     8.797
    46   6 C        2.990    -0.004    28.119     8.698
    47   6 C        3.927     0.021    20.165     6.382
    48   6 C        3.007     0.003    27.934     8.670
    49   6 C        2.931    -0.034    28.840     8.807
    50   6 C        2.918    -0.033    28.826     8.804
    51   6 C        2.920    -0.028    28.712     8.787
    52   6 C        2.995    -0.038    28.944     8.825
    53   6 C        2.971     0.046    26.955     8.516
    54  16 S        2.152    -0.130   146.517    20.373
    55   6 C        2.971     0.047    26.952     8.516
    56   6 C        2.996    -0.038    28.942     8.825
    57   6 C        2.920    -0.029    28.713     8.787
    58   6 C        2.918    -0.033    28.828     8.805
    59   6 C        2.931    -0.034    28.846     8.808
    60   6 C        3.007     0.003    27.934     8.670
    61   6 C        2.991    -0.004    28.114     8.698
    62   6 C        2.924    -0.032    28.799     8.801
    63   6 C        2.917    -0.033    28.823     8.804
    64   6 C        2.918    -0.028    28.689     8.783
    65   6 C        2.923    -0.048    29.188     8.860
    66   6 C        2.926     0.062    26.600     8.458
    67   6 C        2.916    -0.042    29.050     8.838
    68   6 C        2.919    -0.044    29.096     8.846
    69   1 H        0.926     0.034     2.531     2.488
    70   1 H        0.926     0.034     2.526     2.485
    71   1 H        0.926     0.043     2.410     2.428
    72   1 H        0.926     0.044     2.399     2.422
    73   1 H        0.926     0.043     2.404     2.425
    74   1 H        0.926     0.036     2.498     2.471
    75   1 H        0.926     0.034     2.536     2.491
    76   1 H        0.926     0.041     2.429     2.437
    77   1 H        0.926     0.045     2.381     2.413
    78   1 H        0.926     0.047     2.362     2.404
    79   1 H        0.926     0.047     2.362     2.403
    80   1 H        0.926     0.045     2.377     2.411
    81   1 H        0.926     0.042     2.418     2.432
    82   1 H        0.926     0.034     2.526     2.486
    83   1 H        0.926     0.038     2.473     2.459
    84   1 H        0.926     0.043     2.404     2.425
    85   1 H        0.926     0.043     2.410     2.428
    86   1 H        0.926     0.042     2.419     2.432
    87   1 H        0.926     0.032     2.563     2.503
    88   1 H        0.926     0.030     2.580     2.512
    89   1 H        0.926     0.030     2.581     2.512
    90   1 H        0.926     0.032     2.562     2.503
    91   1 H        0.926     0.042     2.424     2.435
    92   1 H        0.926     0.043     2.412     2.429
    93   1 H        0.926     0.043     2.406     2.426
    94   1 H        0.926     0.036     2.496     2.471
    95   1 H        0.926     0.034     2.537     2.491
    96   1 H        0.926     0.042     2.428     2.437
    97   1 H        0.926     0.045     2.381     2.413
    98   1 H        0.926     0.047     2.363     2.404
    99   1 H        0.926     0.047     2.362     2.403
   100   1 H        0.926     0.045     2.377     2.411
   101   1 H        0.926     0.042     2.420     2.433
   102   1 H        0.926     0.034     2.527     2.486
   103   1 H        0.926     0.038     2.472     2.459
   104   1 H        0.926     0.043     2.403     2.424
   105   1 H        0.926     0.044     2.399     2.422
   106   1 H        0.926     0.043     2.410     2.428
   107   1 H        0.926     0.034     2.528     2.487
   108   1 H        0.926     0.034     2.531     2.488

molecular dipole:
                 x           y           z       tot (Debye)
 q only:        0.030       3.737       0.206
   full:        0.052       3.456       0.244       8.808

 projected vibrational frequencies (cm⁻¹)
eigval :       -0.00    -0.00    -0.00     0.00     0.00     0.00
eigval :       -3.08     3.57     6.77     9.63    11.16    14.44
eigval :       15.84    29.11    32.64    40.54    45.50    48.37
eigval :       52.93    56.21    60.50    62.28    71.40    72.45
eigval :       87.73   101.44   105.07   106.87   119.36   120.95
eigval :      123.38   130.34   150.88   152.50   154.21   154.68
eigval :      162.35   181.09   199.13   213.76   225.30   225.91
eigval :      236.96   239.24   251.30   252.51   264.87   269.62
eigval :      278.05   278.66   280.98   289.70   311.27   326.18
eigval :      339.21   348.92   349.23   350.73   373.41   382.05
eigval :      388.86   392.85   393.87   395.25   397.93   400.73
eigval :      418.82   419.74   420.39   420.91   421.24   421.49
eigval :      428.81   432.03   442.34   443.26   458.94   461.39
eigval :      475.62   478.81   480.45   482.13   483.59   485.13
eigval :      492.30   494.61   516.61   518.05   520.46   521.89
eigval :      545.10   567.27   590.12   591.38   595.27   595.66
eigval :      596.08   600.71   602.37   608.48   610.01   615.10
eigval :      625.14   640.84   646.98   661.66   662.86   663.62
eigval :      670.22   671.30   671.85   676.71   684.45   687.29
eigval :      694.23   695.42   695.91   713.88   714.22   714.82
eigval :      727.95   754.48   768.44   769.73   770.23   771.54
eigval :      771.68   773.03   779.36   780.68   794.75   806.85
eigval :      841.87   856.70   866.06   866.54   869.37   869.68
eigval :      873.58   875.88   876.05   877.17   880.19   891.97
eigval :      893.87   894.18   896.44   897.31   902.44   904.62
eigval :      905.43   909.40   910.20   910.48   910.55   911.87
eigval :      912.24   912.34   915.22   916.94   917.73   920.51
eigval :      922.08   922.72   922.91   923.85   923.95   924.15
eigval :      925.82   932.60   940.98   941.06   942.60   999.14
eigval :     1006.59  1037.75  1038.11  1045.43  1045.48  1097.59
eigval :     1097.73  1099.25  1099.47  1099.54  1099.86  1101.09
eigval :     1101.57  1120.82  1120.91  1124.16  1124.37  1126.78
eigval :     1131.49  1146.56  1147.63  1155.98  1157.12  1160.26
eigval :     1169.27  1175.57  1175.73  1176.77  1177.33  1177.85
eigval :     1178.25  1178.52  1179.24  1184.06  1184.98  1187.69
eigval :     1192.60  1200.24  1214.10  1224.31  1225.40  1226.80
eigval :     1227.15  1227.45  1251.36  1253.32  1254.60  1255.05
eigval :     1255.73  1256.25  1256.79  1258.51  1262.59  1265.67
eigval :     1266.09  1304.93  1306.79  1307.65  1307.80  1320.77
eigval :     1320.95  1323.25  1324.90  1325.06  1327.19  1328.66
eigval :     1329.26  1333.98  1334.10  1398.58  1399.51  1405.36
eigval :     1406.14  1409.07  1410.02  1418.01  1418.43  1427.20
eigval :     1428.37  1432.09  1442.61  1452.82  1452.91  1454.31
eigval :     1458.24  1458.52  1461.44  1461.99  1473.59  1474.28
eigval :     1480.56  1484.44  1544.46  1552.77  1552.81  1563.28
eigval :     1563.62  1563.92  1563.99  1575.86  1576.11  1576.24
eigval :     1576.41  1583.37  1583.54  1586.78  1587.55  1590.51
eigval :     1590.86  1591.83  3067.88  3069.26  3070.64  3071.23
eigval :     3079.15  3080.03  3080.10  3080.51  3080.64  3081.38
eigval :     3082.69  3082.90  3082.93  3083.08  3083.19  3083.39
eigval :     3083.46  3083.59  3086.46  3086.78  3086.93  3087.09
eigval :     3088.21  3089.93  3090.10  3090.24  3090.29  3090.63
eigval :     3099.10  3099.41  3099.47  3099.61  3099.65  3099.72
eigval :     3099.88  3100.15  3106.86  3107.16  3108.23  3108.54

   temp. (K)  partition function   enthalpy   heat capacity  entropy
                                   cal/mol     cal/K/mol   cal/K/mol   J/K/mol
 298.15  VIB  0.503E+28            32425.692    203.226    206.020
         ROT  0.307E+09              888.752      2.981     41.817
         INT  0.155E+37            33314.445    206.207    247.836
         TR   0.263E+29             1481.254      4.968     46.263
         TOT                       34795.6987   211.1751   294.0994  1230.5121

       T/K    H(0)-H(T)+PV         H(T)/Eh          T*S/Eh         G(T)/Eh
   ------------------------------------------------------------------------
    298.15    0.554505E-01    0.867713E+00    0.139736E+00    0.727977E+00
   ------------------------------------------------------------------------

         :::::::::::::::::::::::::::::::::::::::::::::::::::::
         ::                  THERMODYNAMIC                  ::
         :::::::::::::::::::::::::::::::::::::::::::::::::::::
         :: total free energy        -171.028513913104 Eh   ::
         ::.................................................::
         :: total energy             -171.756490897020 Eh   ::
         :: zero point energy           0.812262646343 Eh   ::
         :: G(RRHO) w/o ZPVE           -0.084285662427 Eh   ::
         :: G(RRHO) contrib.            0.727976983916 Eh   ::
         :::::::::::::::::::::::::::::::::::::::::::::::::::::

           -------------------------------------------------
          | TOTAL ENERGY             -171.756490897020 Eh   |
          | TOTAL ENTHALPY           -170.888777775192 Eh   |
          | TOTAL FREE ENERGY        -171.028513913104 Eh   |
          | GRADIENT NORM               0.000066832058 Eh/α |
          | HOMO-LUMO GAP               0.627374782149 eV   |
           -------------------------------------------------

 * finished run on 2025/07/18 at 19:24:21.452
