   * xtb version 6.7.1 (edcfbbe) compiled by 'albert@albert-system' on 2024-07-22

   ID    Z sym.   atoms
    1    8 O      1
    2    6 C      2-6, 8-20, 22-39, 41-53, 55-68
    3    7 N      7, 40
    4   16 S      21, 54
    5    1 H      69-108

          program call               : xtb data2507/toluene/STAC-BP-STAC/STAC-BP-STAC_toluene_S0_finalOpt.xtbopt.xyz --gfn 2 --uhf 2 --gbsa toluene --ohess vtight --parallel 40 --molden --ceasefiles --namespace data2507/toluene/STAC-BP-STAC/STAC-BP-STAC_toluene_T1_preOpt
      * Solvation model:               GBSA
        Solvent                        toluene
        Solvent mass                       9.2140E+01 g/mol
          :  Hamiltonian                  GFN2-xTB          :
 * total energy  :  -171.7491723 Eh     change       -0.2431761E-09 Eh
 * total energy  :  -171.7531560 Eh     change       -0.3983709E-02 Eh
 * total energy  :  -171.7540901 Eh     change       -0.9341147E-03 Eh
 * total energy  :  -171.7542091 Eh     change       -0.1190019E-03 Eh
 * total energy  :  -171.7542941 Eh     change       -0.8499644E-04 Eh
 * total energy  :  -171.7543624 Eh     change       -0.6831817E-04 Eh
 * total energy  :  -171.7544437 Eh     change       -0.8129459E-04 Eh
 * total energy  :  -171.7545244 Eh     change       -0.8064186E-04 Eh
 * total energy  :  -171.7545951 Eh     change       -0.7075947E-04 Eh
 * total energy  :  -171.7546107 Eh     change       -0.1559235E-04 Eh
 * total energy  :  -171.7548327 Eh     change       -0.2262469E-05 Eh
 * total energy  :  -171.7548351 Eh     change       -0.2401472E-05 Eh
 * total energy  :  -171.7548372 Eh     change       -0.2106440E-05 Eh
 * total energy  :  -171.7548390 Eh     change       -0.1780644E-05 Eh
 * total energy  :  -171.7548405 Eh     change       -0.1474219E-05 Eh
 * total energy  :  -171.7548417 Eh     change       -0.1260783E-05 Eh
 * total energy  :  -171.7548426 Eh     change       -0.9172640E-06 Eh
 * total energy  :  -171.7548427 Eh     change       -0.1127217E-06 Eh
 * total energy  :  -171.7548428 Eh     change       -0.7226282E-07 Eh
   *** GEOMETRY OPTIMIZATION CONVERGED AFTER 69 ITERATIONS ***

 final structure:
================
108
 xtb: 6.7.1 (edcfbbe)
O           -0.01654553076872       -4.77610042189977        0.30835029809954
C           -0.01423387819605       -3.50706816464780        0.19817561760158
C           -1.26496923504218       -2.78464108483579        0.07473314433912
C           -1.43053408503976       -1.46833172704666        0.54982807859035
C           -2.65586438547402       -0.85047198393851        0.50728365227123
C           -3.76709377387092       -1.51477636142708       -0.02206735050825
N           -5.03093365961898       -0.86621382117334       -0.05154078475677
C           -6.05993044636625       -1.35270676383935        0.73612440921614
C           -5.85695281035788       -2.46178687117074        1.57022118288450
C           -6.88810563531666       -2.97729316608490        2.32489096496526
C           -8.14767777176253       -2.39746488771219        2.28120032632289
C           -8.34567739212667       -1.27492300790524        1.49907454205164
C           -7.32036045128690       -0.73847947957270        0.73554634038587
C           -7.59578571730549        0.53472998978521       -0.03724907641841
C           -8.70608806174340        0.23966786339486       -1.03196601333822
C           -8.47008405314340       -0.78960910210810       -1.94142523421781
C           -9.39839649225746       -1.13964273481748       -2.90099667112013
C          -10.60281366963457       -0.45572160689779       -2.97381887712064
C          -10.85780452305788        0.56495159025230       -2.08370384555823
C           -9.91558570485216        0.91387197345991       -1.11678675364632
S          -10.38346151491231        2.24162649724141       -0.05356996907480
C           -9.02893458300554        2.38292649115706        1.06770852910847
C           -9.18154939351478        3.34462598309816        2.06591063591305
C           -8.18685789096127        3.55255214282313        2.99668980407944
C           -7.02509061924222        2.79777402193159        2.93316813424425
C           -6.88072449629465        1.84661979993628        1.94344956004138
C           -7.87527896063381        1.61570229733247        0.99490624166331
C           -6.39459650574940        0.97572885518673       -0.84766612069937
C           -6.51023379467298        2.11473138976041       -1.62978192725665
C           -5.47018180212470        2.54329994723628       -2.43322349274788
C           -4.29908910508827        1.80064728321586       -2.47797619281121
C           -4.16283573396501        0.66905971288304       -1.70407970224416
C           -5.19489681729552        0.25105427114728       -0.85162451461164
C           -3.62319695515184       -2.82502675753529       -0.48987848659507
C           -2.40518777458603       -3.45221768094182       -0.42048740928553
C            1.24244526760403       -2.78085924985027        0.20327170217901
C            2.36366312894754       -3.33875956399759        0.85131362003254
C            3.58113922604916       -2.70613577851917        0.83760297230634
C            3.74437106388475       -1.51028648684987        0.13080725863141
N            5.00637110770839       -0.85973997676485        0.08542218371887
C            5.13453979811846        0.40057976714174        0.64351482219043
C            4.06019383148019        0.98431701521171        1.33036961938197
C            4.15962679337433        2.25583150333027        1.85119461886425
C            5.33528943896566        2.97934030845426        1.71346657585920
C            6.41643441013365        2.39430751801606        1.08139025660438
C            6.33818657361760        1.11356147711431        0.55570447584699
C            7.58466025175190        0.50997485576862       -0.05897743217983
C            8.60786683536702        0.41526049297414        1.06142055725848
C            8.32074402161460       -0.47079959203398        2.09794626092775
C            9.16015654260944       -0.61706380782366        3.18391860235838
C           10.32436142173174        0.13284079247636        3.25865556585718
C           10.62881950185243        1.01475981299345        2.24434041773526
C            9.77569824684535        1.15908145028756        1.15101040770023
S           10.29076148365872        2.33683474155678       -0.05747182466765
C            9.09710284086667        2.16581608034608       -1.34558255271916
C            9.35030956284360        2.91372332043105       -2.49476458292988
C            8.47999183172446        2.87375916175045       -3.56256532898735
C            7.34298483912586        2.08355142580739       -3.48600384158825
C            7.09909208348938        1.34386858669620       -2.34634301094383
C            7.96823669717536        1.36377901957740       -1.25715928308735
C            7.33698521607196       -0.88937080246333       -0.58155230823246
C            8.39718744121938       -1.56606818324115       -1.16490018838458
C            8.22980521487382       -2.81993080603789       -1.72246647419924
C            6.96725523836667       -3.39503649218512       -1.72614317577817
C            5.90180609113701       -2.74104218196117       -1.14680982765919
C            6.07153404885211       -1.49119910519581       -0.53350021148584
C            2.65423815284060       -0.96737606006068       -0.55720368645469
C            1.42813788590551       -1.58443635202133       -0.51664812439190
H           -0.59136685885582       -0.95578534348585        0.99588165859207
H           -2.77438494248932        0.15031545512108        0.89821931458661
H           -4.87947546877122       -2.91346225037524        1.62737786231094
H           -6.70561965784687       -3.83580947301686        2.95343516200299
H           -8.95940327011107       -2.80459536262844        2.86357574479919
H           -9.31373067149884       -0.79558125404409        1.48031674204984
H           -7.53172751746678       -1.32229842570631       -1.88856155583838
H           -9.18333867323346       -1.94169418865307       -3.59049068760123
H          -11.33798741535442       -0.71688627378417       -3.71960102402794
H          -11.78850602609431        1.11152437039987       -2.12044881847620
H          -10.09433105784045        3.92117998273006        2.09346289362814
H           -8.31621095458229        4.29747913053476        3.76695927533497
H           -6.23503829617827        2.94931995205038        3.65279714450453
H           -5.97572535852968        1.25878823841700        1.89947472794072
H           -7.43676500785288        2.66966058923784       -1.60817611559541
H           -5.57698973945619        3.43595169004678       -3.02957113461522
H           -3.48740514168897        2.10371216232138       -3.12198922725640
H           -3.25416463308291        0.09096796566364       -1.75765649245655
H           -4.47913008723157       -3.33835288947350       -0.90474689507986
H           -2.28457778621367       -4.47059527375474       -0.76097900246252
H            2.22892270103301       -4.27172068675925        1.37941548821830
H            4.42059054538201       -3.12671473050511        1.37297228076583
H            3.14654929136265        0.42601864043569        1.45738190795616
H            3.31543696265012        2.68384909650175        2.37029977651615
H            5.41393855371795        3.97977206544334        2.10947633620367
H            7.34584724713878        2.93776128145965        0.99600523204804
H            7.41260860865465       -1.05331362566739        2.04534615033556
H            8.90594214501697       -1.31077931507709        3.97071712047666
H           10.98958640883346        0.03094220803583        4.10244515571280
H           11.52927425210053        1.60985349827492        2.28073262172921
H           10.24093299667241        3.52349030064915       -2.52965621498725
H            8.68624238824843        3.45460767195339       -4.44855777272761
H            6.64864307984056        2.04393285758084       -4.31135102357317
H            6.21276007299445        0.72889844863511       -2.29206350184897
H            9.36821338524341       -1.09260841978820       -1.18365747580838
H            9.06794948985330       -3.33460797354375       -2.16566410738831
H            6.80963707744243       -4.35914616270415       -2.18555137950451
H            4.92329389412778       -3.19332919497400       -1.17219289912063
H            2.78964699341518       -0.06304913279104       -1.13375301085426
H            0.60501764346579       -1.17128089056889       -1.08030211779348

          :  Hamiltonian                  GFN2-xTB          :
         :: gradient norm              0.000214614308 Eh/a0 ::
         :: HOMO-LUMO gap              0.589988917652 eV    ::
         :: SCC energy              -174.839232895239 Eh    ::
         :: -> dispersion             -0.178439427864 Eh    ::
         :: -> Gsolv                  -0.080027434747 Eh    ::
         :: repulsion energy           3.084389976599 Eh    ::

    * Orbital Energies and Occupations

         #    Occupation            Energy/Eh            Energy/eV
      -------------------------------------------------------------
         1        2.0000           -0.7277620             -19.8034
       ...           ...                  ...                  ...
       149        2.0000           -0.4070939             -11.0776
       150        2.0000           -0.4069612             -11.0740
       151        2.0000           -0.4066482             -11.0655
       152        2.0000           -0.4058722             -11.0443
       153        2.0000           -0.4047466             -11.0137
       154        2.0000           -0.3987040             -10.8493
       155        2.0000           -0.3974229             -10.8144
       156        1.9705           -0.3661431              -9.9633
       157        1.9686           -0.3660832              -9.9616
       158        1.9501           -0.3656235              -9.9491
       159        1.6561           -0.3634384              -9.8897
       160        1.4547           -0.3626518              -9.8683
       161        1.0000           -0.2756202              -7.5000 (HOMO)
       162        0.0000           -0.2539384              -6.9100 (LUMO)
       163        0.0000           -0.2538770              -6.9083
       164                         -0.2400202              -6.5313
       165                         -0.2400033              -6.5308
       166                         -0.2379513              -6.4750
       167                         -0.2379112              -6.4739
       168                         -0.2370889              -6.4515
       169                         -0.2364764              -6.4349
       170                         -0.2353651              -6.4046
       171                         -0.2351748              -6.3994
       172                         -0.2330213              -6.3408
       ...                                ...                  ...
       322                          0.6708823              18.2556
      -------------------------------------------------------------
                  HL-Gap            0.0216818 Eh            0.5900 eV

     #   Z          covCN         q      C6AA      α(0)
     1   8 O        0.857    -0.534    24.552     6.643
     2   6 C        2.833     0.161    24.513     8.113
     3   6 C        2.968    -0.020    28.514     8.759
     4   6 C        2.919    -0.043    29.075     8.842
     5   6 C        2.916    -0.042    29.046     8.838
     6   6 C        2.926     0.037    27.168     8.548
     7   7 N        2.751    -0.027    21.774     6.930
     8   6 C        2.925     0.062    26.616     8.460
     9   6 C        2.922    -0.048    29.191     8.860
    10   6 C        2.919    -0.028    28.689     8.783
    11   6 C        2.917    -0.033    28.811     8.802
    12   6 C        2.925    -0.032    28.787     8.799
    13   6 C        2.991    -0.004    28.112     8.697
    14   6 C        3.928     0.021    20.165     6.382
    15   6 C        3.008     0.003    27.937     8.670
    16   6 C        2.931    -0.034    28.841     8.807
    17   6 C        2.918    -0.033    28.829     8.805
    18   6 C        2.920    -0.029    28.714     8.787
    19   6 C        2.995    -0.039    28.946     8.826
    20   6 C        2.970     0.046    26.953     8.516
    21  16 S        2.151    -0.132   146.592    20.378
    22   6 C        2.971     0.047    26.950     8.515
    23   6 C        2.996    -0.038    28.944     8.825
    24   6 C        2.920    -0.029    28.714     8.787
    25   6 C        2.918    -0.033    28.833     8.805
    26   6 C        2.931    -0.034    28.849     8.809
    27   6 C        3.007     0.003    27.937     8.670
    28   6 C        2.991    -0.004    28.108     8.697
    29   6 C        2.924    -0.032    28.792     8.799
    30   6 C        2.917    -0.033    28.818     8.803
    31   6 C        2.919    -0.028    28.693     8.784
    32   6 C        2.923    -0.048    29.188     8.860
    33   6 C        2.925     0.062    26.621     8.461
    34   6 C        2.914    -0.042    29.045     8.837
    35   6 C        2.922    -0.032    28.803     8.801
    36   6 C        2.968    -0.019    28.487     8.755
    37   6 C        2.922    -0.032    28.795     8.800
    38   6 C        2.915    -0.042    29.042     8.837
    39   6 C        2.926     0.038    27.153     8.545
    40   7 N        2.751    -0.027    21.770     6.930
    41   6 C        2.925     0.061    26.623     8.462
    42   6 C        2.923    -0.048    29.191     8.860
    43   6 C        2.919    -0.028    28.696     8.784
    44   6 C        2.917    -0.033    28.821     8.803
    45   6 C        2.924    -0.032    28.801     8.801
    46   6 C        2.992    -0.004    28.106     8.696
    47   6 C        3.928     0.021    20.165     6.382
    48   6 C        3.008     0.003    27.937     8.670
    49   6 C        2.931    -0.034    28.846     8.808
    50   6 C        2.918    -0.033    28.830     8.805
    51   6 C        2.920    -0.029    28.715     8.787
    52   6 C        2.995    -0.039    28.946     8.825
    53   6 C        2.971     0.047    26.952     8.516
    54  16 S        2.151    -0.133   146.630    20.380
    55   6 C        2.971     0.047    26.950     8.515
    56   6 C        2.995    -0.038    28.945     8.825
    57   6 C        2.920    -0.029    28.714     8.787
    58   6 C        2.918    -0.033    28.832     8.805
    59   6 C        2.931    -0.034    28.850     8.809
    60   6 C        3.007     0.003    27.938     8.670
    61   6 C        2.991    -0.004    28.112     8.697
    62   6 C        2.925    -0.031    28.779     8.798
    63   6 C        2.917    -0.032    28.810     8.802
    64   6 C        2.919    -0.028    28.689     8.783
    65   6 C        2.922    -0.048    29.193     8.860
    66   6 C        2.925     0.062    26.621     8.461
    67   6 C        2.916    -0.042    29.045     8.838
    68   6 C        2.919    -0.043    29.062     8.840
    69   1 H        0.926     0.032     2.560     2.502
    70   1 H        0.926     0.035     2.520     2.483
    71   1 H        0.926     0.044     2.399     2.422
    72   1 H        0.926     0.043     2.412     2.429
    73   1 H        0.926     0.043     2.406     2.426
    74   1 H        0.926     0.037     2.492     2.469
    75   1 H        0.926     0.034     2.535     2.490
    76   1 H        0.926     0.042     2.428     2.437
    77   1 H        0.926     0.045     2.382     2.414
    78   1 H        0.926     0.046     2.366     2.405
    79   1 H        0.926     0.046     2.365     2.405
    80   1 H        0.926     0.045     2.380     2.413
    81   1 H        0.926     0.042     2.424     2.435
    82   1 H        0.926     0.034     2.532     2.488
    83   1 H        0.926     0.037     2.483     2.464
    84   1 H        0.926     0.043     2.403     2.424
    85   1 H        0.926     0.044     2.394     2.420
    86   1 H        0.926     0.044     2.391     2.418
    87   1 H        0.926     0.033     2.540     2.492
    88   1 H        0.926     0.029     2.596     2.520
    89   1 H        0.926     0.030     2.593     2.518
    90   1 H        0.926     0.034     2.534     2.489
    91   1 H        0.926     0.045     2.389     2.417
    92   1 H        0.926     0.044     2.394     2.420
    93   1 H        0.926     0.043     2.403     2.424
    94   1 H        0.926     0.038     2.470     2.458
    95   1 H        0.926     0.034     2.534     2.489
    96   1 H        0.926     0.042     2.429     2.437
    97   1 H        0.926     0.045     2.383     2.414
    98   1 H        0.926     0.046     2.366     2.405
    99   1 H        0.926     0.046     2.366     2.405
   100   1 H        0.926     0.045     2.381     2.413
   101   1 H        0.926     0.042     2.424     2.435
   102   1 H        0.926     0.034     2.529     2.487
   103   1 H        0.926     0.036     2.497     2.471
   104   1 H        0.926     0.043     2.407     2.426
   105   1 H        0.926     0.043     2.412     2.429
   106   1 H        0.926     0.044     2.400     2.423
   107   1 H        0.926     0.036     2.507     2.476
   108   1 H        0.926     0.032     2.554     2.499

molecular dipole:
                 x           y           z       tot (Debye)
 q only:        0.029       3.662      -0.293
   full:        0.042       3.339      -0.285       8.518

 projected vibrational frequencies (cm⁻¹)
eigval :       -0.00    -0.00    -0.00     0.00     0.00     0.00
eigval :        5.19     7.05     8.23    11.16    12.65    14.33
eigval :       19.34    35.31    37.77    39.98    45.65    51.45
eigval :       52.04    59.11    60.94    69.76    73.51    75.33
eigval :       92.76   105.41   108.26   110.10   121.20   125.94
eigval :      127.13   131.02   152.23   153.33   156.05   157.08
eigval :      165.59   184.37   201.19   211.99   225.20   226.04
eigval :      238.29   240.31   250.05   250.94   266.90   274.18
eigval :      274.98   277.75   281.19   292.70   312.69   325.51
eigval :      339.11   348.88   349.80   350.26   376.96   381.34
eigval :      386.18   391.68   392.59   395.76   397.10   402.26
eigval :      416.92   419.05   420.58   421.34   421.74   421.87
eigval :      423.97   429.24   444.66   445.09   460.91   461.99
eigval :      473.89   478.01   480.28   480.40   484.96   486.20
eigval :      493.44   495.18   518.52   518.88   521.76   523.75
eigval :      545.07   564.85   589.85   591.45   594.81   595.74
eigval :      596.15   600.40   602.45   608.48   610.60   615.27
eigval :      625.24   640.64   647.12   660.33   662.78   663.01
eigval :      670.71   671.48   671.99   677.15   683.94   685.76
eigval :      694.02   695.57   695.84   714.05   714.18   715.24
eigval :      727.87   754.02   770.14   770.90   771.82   771.86
eigval :      772.84   773.49   780.29   780.76   797.82   807.98
eigval :      843.63   857.06   868.23   870.16   870.63   870.89
eigval :      875.46   875.92   876.32   877.81   879.20   893.50
eigval :      893.84   894.44   896.33   901.51   904.30   906.27
eigval :      907.69   909.71   910.35   911.70   911.99   912.19
eigval :      912.93   912.94   914.35   917.39   917.46   920.88
eigval :      922.59   923.12   923.32   923.90   924.47   924.65
eigval :      925.58   926.48   939.36   941.06   941.25   998.12
eigval :     1007.00  1037.74  1038.09  1045.31  1045.73  1097.75
eigval :     1098.43  1100.02  1100.35  1100.78  1102.12  1103.55
eigval :     1103.66  1121.18  1121.22  1123.42  1124.14  1128.49
eigval :     1131.74  1146.95  1147.03  1155.61  1156.95  1159.79
eigval :     1168.37  1176.74  1177.12  1177.91  1178.02  1179.21
eigval :     1180.25  1180.37  1181.02  1186.19  1186.57  1188.48
eigval :     1193.14  1201.57  1214.82  1224.48  1225.75  1226.30
eigval :     1228.41  1228.79  1250.30  1254.17  1254.47  1255.77
eigval :     1256.60  1256.82  1257.12  1260.00  1261.58  1266.99
eigval :     1267.44  1299.85  1301.25  1304.10  1304.85  1320.60
eigval :     1321.14  1323.41  1324.77  1325.22  1326.75  1328.98
eigval :     1331.80  1333.81  1334.08  1398.77  1399.09  1408.44
eigval :     1408.75  1409.41  1409.68  1417.74  1418.70  1427.25
eigval :     1427.87  1434.78  1441.89  1451.95  1452.29  1452.52
eigval :     1458.75  1458.85  1461.69  1462.18  1471.33  1473.73
eigval :     1475.90  1480.36  1536.15  1551.79  1552.09  1562.21
eigval :     1562.73  1564.10  1564.22  1575.27  1575.61  1576.03
eigval :     1576.49  1583.56  1583.70  1586.21  1587.11  1589.96
eigval :     1590.70  1591.03  3067.64  3068.28  3069.85  3070.18
eigval :     3079.10  3079.58  3080.17  3080.68  3080.94  3081.14
eigval :     3082.16  3082.49  3082.72  3082.90  3082.92  3083.28
eigval :     3083.44  3084.28  3084.72  3085.80  3086.22  3086.42
eigval :     3087.63  3087.96  3090.03  3090.09  3090.38  3090.66
eigval :     3099.19  3099.31  3099.81  3099.91  3100.07  3100.25
eigval :     3100.50  3100.86  3109.63  3110.01  3110.37  3110.76

   temp. (K)  partition function   enthalpy   heat capacity  entropy
                                   cal/mol     cal/K/mol   cal/K/mol   J/K/mol
 298.15  VIB  0.364E+27            32313.329    203.568    203.235
         ROT  0.307E+09              888.752      2.981     41.817
         INT  0.112E+36            33202.081    206.549    245.052
         TR   0.263E+29             1481.254      4.968     46.263
         TOT                       34683.3350   211.5172   291.3151  1218.8624

       T/K    H(0)-H(T)+PV         H(T)/Eh          T*S/Eh         G(T)/Eh
   ------------------------------------------------------------------------
    298.15    0.552714E-01    0.867808E+00    0.138413E+00    0.729395E+00
   ------------------------------------------------------------------------

         :::::::::::::::::::::::::::::::::::::::::::::::::::::
         ::                  THERMODYNAMIC                  ::
         :::::::::::::::::::::::::::::::::::::::::::::::::::::
         :: total free energy        -171.025448037850 Eh   ::
         ::.................................................::
         :: total energy             -171.754842919114 Eh   ::
         :: zero point energy           0.812536674465 Eh   ::
         :: G(RRHO) w/o ZPVE           -0.083141793202 Eh   ::
         :: G(RRHO) contrib.            0.729394881263 Eh   ::
         :::::::::::::::::::::::::::::::::::::::::::::::::::::

           -------------------------------------------------
          | TOTAL ENERGY             -171.754842919114 Eh   |
          | TOTAL ENTHALPY           -170.887034832211 Eh   |
          | TOTAL FREE ENERGY        -171.025448037850 Eh   |
          | GRADIENT NORM               0.000217621873 Eh/α |
          | HOMO-LUMO GAP               0.589990862274 eV   |
           -------------------------------------------------

 * finished run on 2025/07/18 at 19:03:38.995
