   * xtb version 6.7.1 (edcfbbe) compiled by 'albert@albert-system' on 2024-07-22

   ID    Z sym.   atoms
    1    8 O      1
    2    6 C      2-6, 8-20, 22-39, 41-53, 55-68
    3    7 N      7, 40
    4   16 S      21, 54
    5    1 H      69-108

          program call               : xtb data2507/toluene/STAC-BP-STAC/STAC-BP-STAC_toluene_S0_crest.xyz --gfn 2 --gbsa toluene --ohess vtight --parallel 40 --molden --ceasefiles --namespace data2507/toluene/STAC-BP-STAC/STAC-BP-STAC_toluene_S0_finalOpt
      * Solvation model:               GBSA
        Solvent                        toluene
        Solvent mass                       9.2140E+01 g/mol
          :  Hamiltonian                  GFN2-xTB          :
 * total energy  :  -171.8305846 Eh     change       -0.1692030E-08 Eh
 * total energy  :  -171.8306984 Eh     change       -0.1137823E-03 Eh
 * total energy  :  -171.8307396 Eh     change       -0.4119429E-04 Eh
 * total energy  :  -171.8307590 Eh     change       -0.1946900E-04 Eh
 * total energy  :  -171.8307724 Eh     change       -0.1333562E-04 Eh
 * total energy  :  -171.8307847 Eh     change       -0.1236160E-04 Eh
 * total energy  :  -171.8307890 Eh     change       -0.4238439E-05 Eh
 * total energy  :  -171.8307961 Eh     change       -0.7081490E-05 Eh
 * total energy  :  -171.8308000 Eh     change       -0.3918579E-05 Eh
 * total energy  :  -171.8308035 Eh     change       -0.3534933E-05 Eh
 * total energy  :  -171.8310548 Eh     change       -0.5938038E-06 Eh
 * total energy  :  -171.8310552 Eh     change       -0.4094475E-06 Eh
 * total energy  :  -171.8310555 Eh     change       -0.2719827E-06 Eh
 * total energy  :  -171.8310557 Eh     change       -0.2117090E-06 Eh
 * total energy  :  -171.8310559 Eh     change       -0.2626057E-06 Eh
 * total energy  :  -171.8310563 Eh     change       -0.3764026E-06 Eh
 * total energy  :  -171.8310568 Eh     change       -0.4660651E-06 Eh
 * total energy  :  -171.8310572 Eh     change       -0.4509653E-06 Eh
 * total energy  :  -171.8310572 Eh     change       -0.6931799E-08 Eh
   *** GEOMETRY OPTIMIZATION CONVERGED AFTER 94 ITERATIONS ***

 final structure:
================
108
 xtb: 6.7.1 (edcfbbe)
O           -0.01392558564673       -4.95692986938761        0.34945620853594
C           -0.01141320140382       -3.74030236572940        0.24035786882979
C           -1.27331576922833       -2.96711908503363        0.16442739941367
C           -1.38390893005206       -1.69061780887768        0.71635066760227
C           -2.58867347512202       -1.01782708925479        0.67642105442151
C           -3.69923013928136       -1.60121339712692        0.07093964596707
N           -4.93130549139594       -0.90374824495115        0.02818747877531
C           -6.00793256286235       -1.37967494498344        0.77064937090298
C           -5.86979905912001       -2.50974850633026        1.58228452667035
C           -6.93622059675271       -2.99478058299850        2.31187717937048
C           -8.16539236461620       -2.35957211132211        2.26192700657996
C           -8.29923201638298       -1.22035212297964        1.49139031741183
C           -7.23828989860678       -0.71789194427700        0.75268282077703
C           -7.45711646783597        0.56849886835543       -0.02156454331772
C           -8.55277478905541        0.30440833021169       -1.03837915622753
C           -8.32305625588540       -0.72548293191888       -1.94864185285126
C           -9.24333014812709       -1.05766618227807       -2.92204432479684
C          -10.43513504487810       -0.35412059590318       -3.00857895399703
C          -10.68368087076707        0.66961661522501       -2.11982382543216
C           -9.74890677802355        0.99975689808585       -1.13988947897750
S          -10.20667705473108        2.33648191235220       -0.08117569456574
C           -8.85789907221734        2.45968603204063        1.05126023049755
C           -8.99460957796845        3.43886435874243        2.03393883998054
C           -8.00514707471451        3.63149272055178        2.97386492815180
C           -6.86719681078046        2.84008721999179        2.93694770897795
C           -6.73899021483721        1.87277200153071        1.96092291743238
C           -7.72570254380124        1.65954904808760        1.00021888955193
C           -6.22012231874059        0.97838695743016       -0.79892453656743
C           -6.29204642637735        2.11756678638869       -1.58693529585209
C           -5.21753106559564        2.53630572455980       -2.34828233362277
C           -4.05398230425243        1.78609520913399       -2.33674478040033
C           -3.96484965885913        0.65002480726486       -1.55830339305291
C           -5.03564479261222        0.23899851930514       -0.75880034311007
C           -3.59300414420316       -2.87558580524467       -0.48200222827599
C           -2.39437703231617       -3.55594656169660       -0.42069856522978
C            1.25372049054461       -2.97052495902677        0.18223216340874
C            2.35963170740261       -3.43037103847765        0.89693372511502
C            3.55681384016816       -2.74594397745595        0.85403671204111
C            3.67819337645119       -1.60413472280532        0.06514973086174
N            4.90686567852226       -0.90166671244865        0.01165879125662
C            4.98105307077737        0.37701451576912        0.55594225328523
C            3.87464587629319        0.94021686807831        1.19899146857111
C            3.93178568365064        2.21241436550099        1.73065831192161
C            5.09821514824969        2.95320978780163        1.64657099668289
C            6.20738716753176        2.38943633535786        1.04553959652502
C            6.16834084948308        1.11161999569012        0.50716312870428
C            7.44551725566671        0.54691901285524       -0.08821981525108
C            8.45393878591013        0.46428879258408        1.04425468784085
C            8.17723119121204       -0.44325329783837        2.06480962580296
C            9.00824189253767       -0.58939020272969        3.15711656091859
C           10.15551679766491        0.18300943811590        3.25500678728935
C           10.44951483659302        1.08833616158876        2.25810443212688
C            9.60404660024009        1.23182610938738        1.15935608707529
S           10.10309339897802        2.44385754722258       -0.02368684515541
C            8.92436540419047        2.26816383188339       -1.32662192062998
C            9.16362182235224        3.05084100467811       -2.45481170783505
C            8.30388084934023        3.00942930405815       -3.53134150784499
C            7.19388553072852        2.17986789055744       -3.48498330559560
C            6.96497772401539        1.40581501111693       -2.36530706730917
C            7.82083284513247        1.42924490842418       -1.26585025410470
C            7.24619661095560       -0.85700961780927       -0.62644553865241
C            8.33400833721824       -1.48922529180304       -1.21029706663055
C            8.22295454688188       -2.75102821518078       -1.76266870413956
C            6.99068049689435       -3.38228894612929       -1.75133501619211
C            5.89782561406246       -2.76909912383575       -1.17311813453381
C            6.01113419451011       -1.50844652268674       -0.57898015498944
C            2.58539922154469       -1.15883933350832       -0.67535258270899
C            1.38063315135799       -1.82985901861029       -0.61074164843486
H           -0.53432477329740       -1.23938326126841        1.20568208285057
H           -2.67817966697388       -0.03454836490828        1.11373748103781
H           -4.91649153137867       -3.01023888544461        1.64990276268420
H           -6.80131860016989       -3.87293137098267        2.92592098151821
H           -9.00409094237421       -2.73726418008314        2.82621553442775
H           -9.24585645313376       -0.69938713950655        1.46108941148385
H           -7.39426197584813       -1.27326424458093       -1.88321207785660
H           -9.03294739068348       -1.86137426612484       -3.61136525708195
H          -11.16574410148576       -0.60148836156958       -3.76381722593442
H          -11.60439491631711        1.23250691027666       -2.16765577219893
H           -9.89039532811968        4.04253847075827        2.04178764566152
H           -8.12084852421303        4.39275019070906        3.73049825070039
H           -6.08307890148783        2.97757468967557        3.66606375082980
H           -5.85226315814445        1.25669471108716        1.93519092193986
H           -7.21376633771448        2.68182706142227       -1.60219452614429
H           -5.29242236010808        3.42824645071066       -2.95110380231298
H           -3.20898308014309        2.08266121936295       -2.94046374046259
H           -3.05618581692242        0.06896092516321       -1.57636901968081
H           -4.45515626404228       -3.32754715296680       -0.94933726845644
H           -2.30201300660816       -4.54808181096094       -0.83738456076928
H            2.25571717894026       -4.32116730603793        1.49872915142005
H            4.40567362025003       -3.09359457688084        1.42360205268876
H            2.96202696740600        0.37264494545561        1.29042954920085
H            3.05932431355856        2.62328775377963        2.21686415633887
H            5.14906461079838        3.95073359570864        2.05512543210140
H            7.13065547588434        2.94849772705872        0.99446556105779
H            7.28242267655220       -1.04380210199680        1.99241944117826
H            8.76193817626258       -1.30107296641100        3.93052070378691
H           10.81587622263677        0.08121586749592        4.10287635108838
H           11.33664607826042        1.70220203579939        2.31274670289161
H           10.03433114667419        3.69001702443715       -2.46631057538811
H            8.49812952257191        3.61978019450209       -4.40030706908061
H            6.50923785294330        2.13728323693552       -4.31849983320752
H            6.09999408068476        0.75963370914789       -2.33264945072650
H            9.28355545898513       -0.97295992204280       -1.23166351330447
H            9.08225407780018       -3.22835345534645       -2.20800370064338
H            6.87437111512068       -4.35863387092729       -2.19807391351008
H            4.94324541667926       -3.27150888377658       -1.19004485377896
H            2.68837769985732       -0.28265587628733       -1.29813878621672
H            0.54380155378482       -1.48764992052524       -1.20037182844762

          :  Hamiltonian                  GFN2-xTB          :
         :: gradient norm              0.000072494751 Eh/a0 ::
         :: HOMO-LUMO gap              1.541109845605 eV    ::
         :: SCC energy              -174.931865952313 Eh    ::
         :: -> dispersion             -0.178672240972 Eh    ::
         :: -> Gsolv                  -0.070241381473 Eh    ::
         :: repulsion energy           3.100808705381 Eh    ::

    * Orbital Energies and Occupations

         #    Occupation            Energy/Eh            Energy/eV
      -------------------------------------------------------------
         1        2.0000           -0.7221065             -19.6495
       ...           ...                  ...                  ...
       148        2.0000           -0.4113930             -11.1946
       149        2.0000           -0.4113201             -11.1926
       150        2.0000           -0.4022349             -10.9454
       151        2.0000           -0.4007683             -10.9055
       152        2.0000           -0.4007115             -10.9039
       153        2.0000           -0.3990730             -10.8593
       154        2.0000           -0.3990144             -10.8577
       155        2.0000           -0.3987443             -10.8504
       156        2.0000           -0.3986676             -10.8483
       157        2.0000           -0.3607130              -9.8155
       158        2.0000           -0.3606446              -9.8136
       159        2.0000           -0.3562160              -9.6931
       160        2.0000           -0.3559454              -9.6858 (HOMO)
       161                         -0.2993107              -8.1447 (LUMO)
       162                         -0.2521164              -6.8604
       163                         -0.2477660              -6.7421
       164                         -0.2468051              -6.7159
       165                         -0.2465183              -6.7081
       166                         -0.2445034              -6.6533
       167                         -0.2335706              -6.3558
       168                         -0.2335483              -6.3552
       169                         -0.2330300              -6.3411
       170                         -0.2330057              -6.3404
       171                         -0.2282395              -6.2107
       ...                                ...                  ...
       322                          0.6712407              18.2654
      -------------------------------------------------------------
                  HL-Gap            0.0566347 Eh            1.5411 eV

     #   Z          covCN         q      C6AA      α(0)
     1   8 O        0.858    -0.414    21.962     6.283
     2   6 C        2.829     0.229    23.207     7.894
     3   6 C        2.972    -0.014    28.360     8.735
     4   6 C        2.920    -0.025    28.617     8.772
     5   6 C        2.920    -0.036    28.904     8.816
     6   6 C        2.926     0.075    26.331     8.415
     7   7 N        2.751    -0.066    22.526     7.049
     8   6 C        2.923     0.059    26.686     8.471
     9   6 C        2.924    -0.058    29.433     8.897
    10   6 C        2.920    -0.032    28.796     8.800
    11   6 C        2.917    -0.042    29.045     8.838
    12   6 C        2.927    -0.034    28.845     8.808
    13   6 C        2.992    -0.011    28.282     8.724
    14   6 C        3.928     0.020    20.170     6.383
    15   6 C        3.007     0.002    27.958     8.674
    16   6 C        2.932    -0.035    28.868     8.811
    17   6 C        2.918    -0.036    28.885     8.813
    18   6 C        2.920    -0.031    28.766     8.795
    19   6 C        2.995    -0.040    28.984     8.831
    20   6 C        2.971     0.047    26.944     8.514
    21  16 S        2.150    -0.158   147.725    20.456
    22   6 C        2.971     0.047    26.941     8.514
    23   6 C        2.995    -0.040    28.983     8.831
    24   6 C        2.920    -0.031    28.767     8.795
    25   6 C        2.918    -0.036    28.889     8.814
    26   6 C        2.932    -0.035    28.878     8.813
    27   6 C        3.007     0.002    27.962     8.674
    28   6 C        2.992    -0.011    28.277     8.723
    29   6 C        2.926    -0.034    28.848     8.808
    30   6 C        2.917    -0.042    29.048     8.838
    31   6 C        2.920    -0.032    28.799     8.800
    32   6 C        2.924    -0.058    29.434     8.897
    33   6 C        2.923     0.059    26.687     8.472
    34   6 C        2.919    -0.036    28.891     8.814
    35   6 C        2.923    -0.016    28.406     8.740
    36   6 C        2.972    -0.014    28.357     8.735
    37   6 C        2.923    -0.016    28.411     8.741
    38   6 C        2.919    -0.036    28.892     8.814
    39   6 C        2.926     0.074    26.337     8.416
    40   7 N        2.751    -0.066    22.521     7.048
    41   6 C        2.923     0.059    26.688     8.472
    42   6 C        2.924    -0.058    29.437     8.897
    43   6 C        2.920    -0.032    28.802     8.801
    44   6 C        2.917    -0.042    29.051     8.838
    45   6 C        2.927    -0.034    28.858     8.810
    46   6 C        2.992    -0.011    28.274     8.722
    47   6 C        3.928     0.020    20.170     6.383
    48   6 C        3.007     0.002    27.960     8.674
    49   6 C        2.932    -0.035    28.874     8.812
    50   6 C        2.918    -0.036    28.886     8.814
    51   6 C        2.920    -0.031    28.767     8.795
    52   6 C        2.994    -0.040    28.984     8.831
    53   6 C        2.971     0.047    26.942     8.514
    54  16 S        2.149    -0.159   147.748    20.458
    55   6 C        2.971     0.047    26.942     8.514
    56   6 C        2.995    -0.040    28.983     8.831
    57   6 C        2.920    -0.031    28.766     8.795
    58   6 C        2.918    -0.036    28.887     8.814
    59   6 C        2.932    -0.035    28.876     8.813
    60   6 C        3.007     0.002    27.961     8.674
    61   6 C        2.991    -0.011    28.282     8.724
    62   6 C        2.927    -0.034    28.838     8.807
    63   6 C        2.917    -0.042    29.042     8.837
    64   6 C        2.920    -0.032    28.794     8.800
    65   6 C        2.924    -0.058    29.431     8.897
    66   6 C        2.923     0.058    26.689     8.472
    67   6 C        2.920    -0.037    28.908     8.817
    68   6 C        2.920    -0.025    28.619     8.773
    69   1 H        0.926     0.053     2.280     2.361
    70   1 H        0.926     0.055     2.257     2.349
    71   1 H        0.926     0.032     2.555     2.499
    72   1 H        0.926     0.034     2.533     2.489
    73   1 H        0.926     0.031     2.575     2.509
    74   1 H        0.926     0.025     2.662     2.552
    75   1 H        0.926     0.033     2.542     2.493
    76   1 H        0.926     0.038     2.469     2.457
    77   1 H        0.926     0.041     2.437     2.441
    78   1 H        0.926     0.041     2.434     2.439
    79   1 H        0.926     0.041     2.433     2.439
    80   1 H        0.926     0.041     2.436     2.441
    81   1 H        0.926     0.039     2.466     2.456
    82   1 H        0.926     0.034     2.536     2.490
    83   1 H        0.926     0.025     2.654     2.547
    84   1 H        0.926     0.031     2.572     2.508
    85   1 H        0.926     0.035     2.517     2.481
    86   1 H        0.926     0.033     2.547     2.496
    87   1 H        0.926     0.054     2.276     2.359
    88   1 H        0.926     0.055     2.262     2.352
    89   1 H        0.926     0.054     2.269     2.356
    90   1 H        0.926     0.053     2.282     2.362
    91   1 H        0.926     0.033     2.543     2.494
    92   1 H        0.926     0.035     2.517     2.481
    93   1 H        0.926     0.031     2.573     2.508
    94   1 H        0.926     0.027     2.636     2.539
    95   1 H        0.926     0.033     2.540     2.492
    96   1 H        0.926     0.038     2.469     2.457
    97   1 H        0.926     0.041     2.437     2.441
    98   1 H        0.926     0.041     2.433     2.439
    99   1 H        0.926     0.041     2.433     2.439
   100   1 H        0.926     0.041     2.436     2.441
   101   1 H        0.926     0.039     2.467     2.456
   102   1 H        0.926     0.034     2.535     2.490
   103   1 H        0.926     0.024     2.669     2.555
   104   1 H        0.926     0.031     2.575     2.509
   105   1 H        0.926     0.034     2.533     2.489
   106   1 H        0.926     0.032     2.557     2.501
   107   1 H        0.926     0.055     2.254     2.348
   108   1 H        0.926     0.053     2.283     2.363

molecular dipole:
                 x           y           z       tot (Debye)
 q only:        0.020       0.492      -0.116
   full:        0.034       0.299      -0.118       0.821

 projected vibrational frequencies (cm⁻¹)
eigval :       -0.00    -0.00    -0.00     0.00     0.00     0.00
eigval :        4.72     6.64     9.01    11.54    12.44    14.69
eigval :       21.88    33.85    36.25    39.81    44.86    47.01
eigval :       50.03    58.63    60.10    60.75    71.15    72.79
eigval :       81.59   104.14   106.93   112.16   115.38   124.20
eigval :      126.21   130.59   151.11   152.37   154.40   156.36
eigval :      162.45   184.44   192.58   203.58   226.59   228.01
eigval :      237.82   240.57   251.22   252.75   265.00   271.95
eigval :      282.18   283.52   286.20   288.94   310.90   313.13
eigval :      339.34   350.22   350.58   352.98   374.00   379.44
eigval :      386.20   390.51   394.14   395.68   398.92   399.63
eigval :      418.92   419.36   420.56   420.73   421.52   421.74
eigval :      431.33   442.51   444.57   445.06   466.08   467.19
eigval :      474.04   475.07   485.09   485.32   486.78   489.55
eigval :      504.34   505.08   512.30   513.20   529.27   530.51
eigval :      557.16   587.35   594.90   596.74   596.81   600.04
eigval :      602.26   603.70   608.34   609.90   617.22   629.35
eigval :      641.38   649.15   661.84   662.35   663.00   668.88
eigval :      668.95   672.16   678.33   680.60   693.85   694.06
eigval :      698.88   703.50   711.45   711.52   717.40   731.32
eigval :      737.13   760.33   768.95   770.76   772.38   772.64
eigval :      773.67   773.94   781.09   781.60   823.09   828.03
eigval :      865.53   866.69   867.42   868.55   873.75   874.34
eigval :      874.67   876.22   876.74   877.76   888.05   895.99
eigval :      896.97   897.29   898.58   904.08   904.35   908.62
eigval :      909.01   910.01   911.53   911.97   912.34   917.42
eigval :      918.34   918.35   919.97   920.29   921.32   922.14
eigval :      922.43   922.44   923.12   923.69   924.61   927.01
eigval :      931.66   934.30   944.63   944.65   955.55  1012.69
eigval :     1027.19  1039.71  1039.90  1047.82  1048.11  1098.34
eigval :     1098.89  1099.79  1100.37  1107.46  1108.06  1109.68
eigval :     1110.36  1121.98  1122.24  1125.32  1125.50  1130.33
eigval :     1130.79  1147.45  1147.56  1157.40  1157.76  1172.68
eigval :     1176.48  1176.71  1177.22  1177.28  1178.25  1179.48
eigval :     1180.35  1183.16  1184.47  1186.18  1189.56  1190.16
eigval :     1197.47  1202.31  1224.66  1229.42  1230.18  1230.77
eigval :     1231.22  1232.36  1254.68  1255.10  1257.89  1258.90
eigval :     1259.08  1259.95  1260.90  1265.26  1266.60  1269.42
eigval :     1269.58  1309.68  1312.43  1312.64  1313.61  1321.07
eigval :     1321.52  1324.12  1324.52  1325.44  1325.56  1329.38
eigval :     1329.39  1332.92  1333.04  1399.24  1400.54  1401.04
eigval :     1401.08  1410.86  1411.02  1433.96  1434.10  1434.89
eigval :     1435.09  1460.81  1461.13  1465.40  1465.46  1469.70
eigval :     1471.43  1475.19  1475.42  1490.07  1490.25  1554.32
eigval :     1555.59  1566.02  1566.11  1572.51  1572.51  1576.28
eigval :     1576.73  1577.94  1578.08  1585.76  1585.97  1586.00
eigval :     1586.12  1589.43  1589.48  1593.65  1593.93  1601.07
eigval :     1601.14  1652.98  3070.80  3072.72  3074.53  3076.50
eigval :     3077.98  3078.16  3078.20  3078.24  3078.56  3078.62
eigval :     3079.14  3080.05  3080.36  3080.63  3080.68  3081.00
eigval :     3085.72  3086.07  3086.86  3087.38  3087.68  3087.77
eigval :     3087.98  3088.09  3093.48  3093.62  3093.97  3094.77
eigval :     3095.80  3096.48  3096.83  3096.92  3097.51  3097.53
eigval :     3097.79  3098.96  3102.63  3103.22  3103.53  3105.31

   temp. (K)  partition function   enthalpy   heat capacity  entropy
                                   cal/mol     cal/K/mol   cal/K/mol   J/K/mol
 298.15  VIB  0.560E+27            32242.709    202.026    203.287
         ROT  0.302E+09              888.752      2.981     41.785
         INT  0.169E+36            33131.461    205.007    245.072
         TR   0.263E+29             1481.254      4.968     46.263
         TOT                       34612.7153   209.9753   291.3354  1218.9474

       T/K    H(0)-H(T)+PV         H(T)/Eh          T*S/Eh         G(T)/Eh
   ------------------------------------------------------------------------
    298.15    0.551589E-01    0.870724E+00    0.138423E+00    0.732301E+00
   ------------------------------------------------------------------------

         :::::::::::::::::::::::::::::::::::::::::::::::::::::
         ::                  THERMODYNAMIC                  ::
         :::::::::::::::::::::::::::::::::::::::::::::::::::::
         :: total free energy        -171.098756100411 Eh   ::
         ::.................................................::
         :: total energy             -171.831057246729 Eh   ::
         :: zero point energy           0.815565137615 Eh   ::
         :: G(RRHO) w/o ZPVE           -0.083263991297 Eh   ::
         :: G(RRHO) contrib.            0.732301146319 Eh   ::
         :::::::::::::::::::::::::::::::::::::::::::::::::::::

           -------------------------------------------------
          | TOTAL ENERGY             -171.831057246729 Eh   |
          | TOTAL ENTHALPY           -170.960333236322 Eh   |
          | TOTAL FREE ENERGY        -171.098756100411 Eh   |
          | GRADIENT NORM               0.000072495251 Eh/α |
          | HOMO-LUMO GAP               1.541109247646 eV   |
           -------------------------------------------------

 * finished run on 2025/07/18 at 19:03:16.013
