   * xtb version 6.7.1 (edcfbbe) compiled by 'albert@albert-system' on 2024-07-22

   ID    Z sym.   atoms
    1    8 O      1
    2    6 C      2-6, 8-20, 22-39, 41-53, 55-68
    3    7 N      7, 40
    4   16 S      21, 54
    5    1 H      69-108

          program call               : xtb data2507/toluene/STAC-BP-STAC/STAC-BP-STAC.xyz --gfn 2 --gbsa toluene --ohess vtight --parallel 40 --molden --ceasefiles --namespace data2507/toluene/STAC-BP-STAC/STAC-BP-STAC_toluene_S0_preOpt
      * Solvation model:               GBSA
        Solvent                        toluene
        Solvent mass                       9.2140E+01 g/mol
          :  Hamiltonian                  GFN2-xTB          :
 * total energy  :  -171.7908233 Eh     change       -0.1973262E-08 Eh
 * total energy  :  -171.8164067 Eh     change       -0.2558333E-01 Eh
 * total energy  :  -171.8266282 Eh     change       -0.1022156E-01 Eh
 * total energy  :  -171.8285378 Eh     change       -0.1909575E-02 Eh
 * total energy  :  -171.8292708 Eh     change       -0.7329730E-03 Eh
 * total energy  :  -171.8297520 Eh     change       -0.4812344E-03 Eh
 * total energy  :  -171.8300102 Eh     change       -0.2582003E-03 Eh
 * total energy  :  -171.8301706 Eh     change       -0.1603690E-03 Eh
 * total energy  :  -171.8302645 Eh     change       -0.9392718E-04 Eh
 * total energy  :  -171.8303399 Eh     change       -0.7539418E-04 Eh
 * total energy  :  -171.8306090 Eh     change       -0.6469330E-06 Eh
 * total energy  :  -171.8306093 Eh     change       -0.2459145E-06 Eh
 * total energy  :  -171.8306096 Eh     change       -0.3572132E-06 Eh
 * total energy  :  -171.8306100 Eh     change       -0.4009385E-06 Eh
 * total energy  :  -171.8306103 Eh     change       -0.2795813E-06 Eh
 * total energy  :  -171.8306106 Eh     change       -0.3071218E-06 Eh
 * total energy  :  -171.8306109 Eh     change       -0.3033603E-06 Eh
 * total energy  :  -171.8306111 Eh     change       -0.2196968E-06 Eh
 * total energy  :  -171.8306112 Eh     change       -0.3118373E-07 Eh
   *** GEOMETRY OPTIMIZATION CONVERGED AFTER 53 ITERATIONS ***

 final structure:
================
108
 xtb: 6.7.1 (edcfbbe)
O           -0.00067603780101        4.78306042683777        0.05371179413179
C            0.00031853442700        3.56319632245164        0.03162040332264
C           -1.26659770095631        2.79103826730972        0.01930368563386
C           -1.37871685855826        1.54868245077050        0.64265692434313
C           -2.58966883408428        0.88302994517266        0.64968443445319
C           -3.69960496736374        1.44613857304385        0.02852854380862
N           -4.94444045137799        0.75652858688409        0.03299645747451
C           -5.23495039676696       -0.11457914121287       -1.00679508756292
C           -4.30656706832581       -0.32390776923816       -2.03024104474944
C           -4.58282948401236       -1.18934583681045       -3.06935387161141
C           -5.79089809560896       -1.86431695916739       -3.11375428493557
C           -6.71358220378427       -1.66050798794061       -2.10439013703264
C           -6.45342496502741       -0.79655010825493       -1.05168961721785
C           -7.51465167674991       -0.62698126082026        0.02110780974346
C           -8.74212411655355       -0.03943269822611       -0.65150746408110
C           -8.58378474043068        1.20339998430735       -1.26158085492134
C           -9.62696763568518        1.84071788126474       -1.90206612522926
C          -10.87544076702504        1.23891674603026       -1.94603335922473
C          -11.05575483035188        0.00894874006758       -1.35076137643663
C           -9.99653957627852       -0.62924869553891       -0.70743651122254
S          -10.38155495226734       -2.20000791332087        0.00068991984694
C           -8.86173459712119       -2.71608915079846        0.73636312380563
C           -8.90308444875586       -3.94944673671257        1.38464750982250
C           -7.77755224993137       -4.45768637052179        1.99667034041472
C           -6.59686762387187       -3.73137012750306        1.96308213086985
C           -6.56387398383783       -2.51104883218516        1.31931580246978
C           -7.68862275017256       -1.97682774537442        0.69367674735095
C           -7.08286315484371        0.35506293038316        1.09598760415149
C           -7.95800994605231        0.61454480772787        2.13954990941883
C           -7.63033423232841        1.49796792060237        3.15139880345689
C           -6.40104724956329        2.13430152850397        3.11910866970063
C           -5.51637543340841        1.88860452915640        2.08859878297359
C           -5.84273244272952        0.99743709321572        1.06264161570955
C           -3.59574169515165        2.68845132246874       -0.58894418314470
C           -2.38930042414088        3.35916167935345       -0.58239517832046
C            1.26878904324882        2.79329990999956        0.01846186316553
C            1.39329074296034        1.58938670896461       -0.67399990150881
C            2.60411403827540        0.92367003525959       -0.69544296645345
C            3.70049124825564        1.44664188147321       -0.01751763153692
N            4.94342397660943        0.75413738756781       -0.03092848346685
C            5.24852027690710       -0.09971047420272        1.01919972790016
C            4.33032526200459       -0.30017654012897        2.05359778310325
C            4.62046662090634       -1.14951088595096        3.10215749861658
C            5.83143121483941       -1.81943879387423        3.14383692642431
C            6.74159087495079       -1.62908487825187        2.12060658025690
C            6.46769970045443       -0.78071161152275        1.05872461793864
C            7.51427722507444       -0.62885389886543       -0.03096318205990
C            7.68543553831081       -1.99115252857026       -0.67855396161741
C            6.55441617711750       -2.54358539248270       -1.27648714485629
C            6.58464048745910       -3.77622228487369       -1.89647968217247
C            7.76866727294219       -4.49694395393744       -1.93336395483498
C            8.90034053160994       -3.97083387932743       -1.34840435394474
C            8.86186198816976       -2.72491600457210       -0.72445904835471
S           10.39000430789221       -2.18572350158311       -0.02357025266261
C           10.00485130903092       -0.60732869116237        0.66711293087519
C           11.06781627034567        0.04448292453655        1.29024615993466
C           10.88880953635008        1.28310641927779        1.86770246567622
C            9.63799078129384        1.88013133154869        1.82558317327715
C            8.59079935047485        1.22872362044866        1.20617447052473
C            8.74741430130607       -0.02358244660182        0.61530386319410
C            7.06471885303482        0.32980897966502       -1.11942922770072
C            7.92423541041994        0.56911539966906       -2.18066081692612
C            7.58312636314503        1.43602885441172       -3.20228536124232
C            6.35768601317492        2.07913882863629       -3.15979248581333
C            5.48868390402040        1.85366766981879       -2.11148536140550
C            5.82581111421467        0.97416151870400       -1.07896676812949
C            3.58433786919180        2.65160427620265        0.66804931980266
C            2.37915020376177        3.32464874328314        0.67379656652126
H           -0.52625798739034        1.11587136569923        1.14341853249376
H           -2.68289153982291       -0.07544627838339        1.13783240183629
H           -3.36251679454456        0.19873552960271       -2.00838373667670
H           -3.84933911705502       -1.33472587657860       -3.84869689001360
H           -6.01333342943920       -2.54155458153705       -3.92407509428562
H           -7.66050418165771       -2.18131658474499       -2.12885422104789
H           -7.61211037859472        1.67375784346288       -1.22683126484670
H           -9.46888922745557        2.80348259761430       -2.36410991953459
H          -11.70244023089662        1.72496579584508       -2.44119348231327
H          -12.01857927884306       -0.48039633850301       -1.37238276138907
H           -9.83451565761747       -4.49637305557826        1.39773624947430
H           -7.82086734510483       -5.41382478338539        2.49594647725582
H           -5.70639653904263       -4.11542657860564        2.43737208631174
H           -5.64398573621231       -1.94573016765765        1.29424208283246
H           -8.91470756545490        0.11150692881556        2.15399978409693
H           -8.32606253208941        1.68628678803683        3.95465100566378
H           -6.12611856062693        2.82765867143292        3.90021347762231
H           -4.56172707444971        2.39208691613168        2.07521358636017
H           -4.46252329652468        3.12318672999565       -1.06352699343467
H           -2.29441814833767        4.32905462524299       -1.04789425555619
H            0.55038191349098        1.18741393330306       -1.21513192379157
H            2.70767031793903       -0.00413869913124       -1.23781807599172
H            3.38238598137723        0.21531722728238        2.03206451761165
H            3.89493668404313       -1.28732198035492        3.89028199410743
H            6.06473528252896       -2.48422656015012        3.96134223714823
H            7.68916622823750       -2.14887771054430        2.14081610328803
H            5.63180166431141       -1.98282754507281       -1.24841544149239
H            5.68938086871638       -4.17425465190613       -2.34974175448199
H            7.80980524131308       -5.46256083859733       -2.41428366530019
H            9.83441914579148       -4.51316591425465       -1.36403998123860
H           12.03254309040679       -0.44118831742951        1.31030654439310
H           11.71860995648203        1.77952335987836        2.34766709100081
H            9.48100702975910        2.84991992030918        2.27307204007620
H            7.61728434303350        1.69534095601943        1.17326065601681
H            8.87976464860402        0.06407571348413       -2.20069664291822
H            8.26672485461024        1.60850203863151       -4.01937848488100
H            6.07412644868512        2.76303181601397       -3.94612749501313
H            4.53855246177840        2.36524512666141       -2.08838404996463
H            4.44045398553325        3.05580568809002        1.18685392113261
H            2.27581972326909        4.26676476541752        1.19152006572309

          :  Hamiltonian                  GFN2-xTB          :
         :: gradient norm              0.000161056953 Eh/a0 ::
         :: HOMO-LUMO gap              1.405840554573 eV    ::
         :: SCC energy              -174.932870564913 Eh    ::
         :: -> dispersion             -0.178376342311 Eh    ::
         :: -> Gsolv                  -0.070376061161 Eh    ::
         :: repulsion energy           3.102259406384 Eh    ::

    * Orbital Energies and Occupations

         #    Occupation            Energy/Eh            Energy/eV
      -------------------------------------------------------------
         1        2.0000           -0.7218430             -19.6423
       ...           ...                  ...                  ...
       148        2.0000           -0.4105703             -11.1722
       149        2.0000           -0.4105399             -11.1714
       150        2.0000           -0.4053333             -11.0297
       151        2.0000           -0.4001788             -10.8894
       152        2.0000           -0.4001437             -10.8885
       153        2.0000           -0.3987054             -10.8493
       154        2.0000           -0.3986926             -10.8490
       155        2.0000           -0.3983346             -10.8392
       156        2.0000           -0.3983245             -10.8390
       157        2.0000           -0.3603550              -9.8058
       158        2.0000           -0.3603484              -9.8056
       159        2.0000           -0.3546813              -9.6514
       160        2.0000           -0.3546342              -9.6501 (HOMO)
       161                         -0.3029704              -8.2442 (LUMO)
       162                         -0.2541622              -6.9161
       163                         -0.2503891              -6.8134
       164                         -0.2477215              -6.7408
       165                         -0.2461669              -6.6985
       166                         -0.2460329              -6.6949
       167                         -0.2331350              -6.3439
       168                         -0.2331202              -6.3435
       169                         -0.2327504              -6.3335
       170                         -0.2327416              -6.3332
       171                         -0.2270919              -6.1795
       ...                                ...                  ...
       322                          0.6708970              18.2560
      -------------------------------------------------------------
                  HL-Gap            0.0516638 Eh            1.4058 eV

     #   Z          covCN         q      C6AA      α(0)
     1   8 O        0.858    -0.406    21.801     6.260
     2   6 C        2.829     0.230    23.174     7.888
     3   6 C        2.972    -0.012    28.303     8.726
     4   6 C        2.920    -0.024    28.595     8.769
     5   6 C        2.920    -0.034    28.857     8.809
     6   6 C        2.927     0.077    26.279     8.407
     7   7 N        2.753    -0.071    22.624     7.064
     8   6 C        2.925     0.059    26.671     8.469
     9   6 C        2.924    -0.058    29.453     8.900
    10   6 C        2.920    -0.032    28.803     8.801
    11   6 C        2.917    -0.043    29.074     8.842
    12   6 C        2.926    -0.034    28.849     8.808
    13   6 C        2.991    -0.012    28.305     8.727
    14   6 C        3.927     0.020    20.170     6.383
    15   6 C        3.007     0.002    27.959     8.674
    16   6 C        2.932    -0.035    28.870     8.812
    17   6 C        2.918    -0.036    28.889     8.814
    18   6 C        2.920    -0.031    28.769     8.796
    19   6 C        2.995    -0.040    28.986     8.832
    20   6 C        2.971     0.047    26.944     8.514
    21  16 S        2.150    -0.159   147.759    20.459
    22   6 C        2.971     0.047    26.942     8.514
    23   6 C        2.995    -0.040    28.985     8.831
    24   6 C        2.920    -0.031    28.770     8.796
    25   6 C        2.918    -0.036    28.890     8.814
    26   6 C        2.932    -0.035    28.874     8.812
    27   6 C        3.007     0.002    27.960     8.674
    28   6 C        2.991    -0.012    28.306     8.727
    29   6 C        2.926    -0.034    28.851     8.809
    30   6 C        2.917    -0.043    29.072     8.842
    31   6 C        2.920    -0.032    28.800     8.800
    32   6 C        2.923    -0.058    29.447     8.899
    33   6 C        2.925     0.059    26.670     8.469
    34   6 C        2.919    -0.034    28.835     8.806
    35   6 C        2.924    -0.015    28.377     8.736
    36   6 C        2.972    -0.012    28.301     8.726
    37   6 C        2.920    -0.024    28.596     8.769
    38   6 C        2.920    -0.035    28.859     8.809
    39   6 C        2.927     0.077    26.286     8.408
    40   7 N        2.753    -0.071    22.620     7.064
    41   6 C        2.925     0.059    26.672     8.469
    42   6 C        2.924    -0.058    29.452     8.900
    43   6 C        2.920    -0.032    28.802     8.801
    44   6 C        2.917    -0.043    29.073     8.842
    45   6 C        2.926    -0.034    28.849     8.808
    46   6 C        2.991    -0.012    28.304     8.727
    47   6 C        3.927     0.020    20.170     6.383
    48   6 C        3.007     0.002    27.960     8.674
    49   6 C        2.932    -0.035    28.874     8.812
    50   6 C        2.918    -0.036    28.890     8.814
    51   6 C        2.920    -0.031    28.769     8.796
    52   6 C        2.995    -0.040    28.985     8.831
    53   6 C        2.971     0.047    26.942     8.514
    54  16 S        2.150    -0.159   147.758    20.459
    55   6 C        2.971     0.047    26.943     8.514
    56   6 C        2.995    -0.040    28.986     8.832
    57   6 C        2.920    -0.031    28.769     8.796
    58   6 C        2.918    -0.036    28.889     8.814
    59   6 C        2.932    -0.035    28.871     8.812
    60   6 C        3.007     0.002    27.960     8.674
    61   6 C        2.991    -0.012    28.305     8.727
    62   6 C        2.926    -0.034    28.851     8.809
    63   6 C        2.917    -0.043    29.071     8.842
    64   6 C        2.920    -0.032    28.800     8.800
    65   6 C        2.923    -0.058    29.446     8.899
    66   6 C        2.925     0.059    26.671     8.469
    67   6 C        2.919    -0.034    28.837     8.806
    68   6 C        2.924    -0.015    28.382     8.737
    69   1 H        0.926     0.057     2.238     2.339
    70   1 H        0.926     0.057     2.235     2.338
    71   1 H        0.926     0.030     2.592     2.517
    72   1 H        0.926     0.034     2.535     2.490
    73   1 H        0.926     0.030     2.590     2.517
    74   1 H        0.926     0.024     2.674     2.557
    75   1 H        0.926     0.033     2.546     2.495
    76   1 H        0.926     0.038     2.472     2.459
    77   1 H        0.926     0.041     2.440     2.443
    78   1 H        0.926     0.041     2.437     2.441
    79   1 H        0.926     0.041     2.437     2.441
    80   1 H        0.926     0.041     2.439     2.442
    81   1 H        0.926     0.039     2.466     2.456
    82   1 H        0.926     0.034     2.535     2.490
    83   1 H        0.926     0.024     2.674     2.557
    84   1 H        0.926     0.030     2.591     2.517
    85   1 H        0.926     0.033     2.546     2.495
    86   1 H        0.926     0.029     2.600     2.522
    87   1 H        0.926     0.054     2.265     2.354
    88   1 H        0.926     0.058     2.225     2.332
    89   1 H        0.926     0.056     2.241     2.341
    90   1 H        0.926     0.057     2.236     2.338
    91   1 H        0.926     0.030     2.591     2.517
    92   1 H        0.926     0.034     2.535     2.490
    93   1 H        0.926     0.030     2.589     2.516
    94   1 H        0.926     0.024     2.675     2.558
    95   1 H        0.926     0.034     2.534     2.490
    96   1 H        0.926     0.039     2.466     2.456
    97   1 H        0.926     0.041     2.439     2.442
    98   1 H        0.926     0.041     2.437     2.441
    99   1 H        0.926     0.041     2.437     2.441
   100   1 H        0.926     0.041     2.440     2.443
   101   1 H        0.926     0.038     2.472     2.459
   102   1 H        0.926     0.033     2.546     2.495
   103   1 H        0.926     0.024     2.673     2.557
   104   1 H        0.926     0.030     2.590     2.517
   105   1 H        0.926     0.033     2.545     2.495
   106   1 H        0.926     0.029     2.597     2.520
   107   1 H        0.926     0.054     2.267     2.355
   108   1 H        0.926     0.057     2.232     2.336

molecular dipole:
                 x           y           z       tot (Debye)
 q only:       -0.001      -0.375      -0.017
   full:       -0.001      -0.223      -0.015       0.568

 projected vibrational frequencies (cm⁻¹)
eigval :       -0.00    -0.00    -0.00     0.00     0.00     0.00
eigval :      -11.05     3.48     6.44    10.29    11.52    13.17
eigval :       13.23    14.11    29.07    35.18    44.03    45.14
eigval :       46.10    47.23    59.85    61.45    66.84    68.60
eigval :       69.00   102.46   102.58   108.92   114.76   122.40
eigval :      122.42   129.81   149.66   150.96   153.66   154.08
eigval :      156.88   179.30   186.21   200.61   226.37   227.25
eigval :      236.80   239.92   251.47   252.71   261.62   268.58
eigval :      280.55   282.26   284.63   285.46   309.69   311.97
eigval :      338.73   350.54   350.67   352.41   365.27   374.31
eigval :      384.95   387.82   394.74   395.17   398.84   399.32
eigval :      418.61   419.10   419.48   419.79   420.01   420.86
eigval :      432.40   440.18   440.70   443.34   464.84   466.02
eigval :      471.62   472.26   485.14   485.45   485.89   488.05
eigval :      502.36   503.49   509.94   510.13   529.72   529.82
eigval :      556.90   587.26   593.75   596.88   596.93   599.64
eigval :      600.56   602.46   608.62   609.79   617.34   629.84
eigval :      641.61   648.73   660.35   661.63   662.03   667.90
eigval :      668.04   672.32   677.41   678.62   692.87   693.30
eigval :      699.12   704.47   710.94   711.04   717.45   731.63
eigval :      739.72   760.93   770.10   771.47   771.57   772.25
eigval :      772.87   773.42   780.72   781.91   818.61   825.57
eigval :      862.28   862.82   863.26   863.71   869.09   872.94
eigval :      873.60   873.73   875.79   876.60   887.97   896.05
eigval :      897.22   897.46   898.29   902.96   903.81   907.48
eigval :      908.39   909.17   910.13   911.82   912.17   916.06
eigval :      918.12   919.03   919.40   920.25   920.63   921.78
eigval :      922.11   922.41   922.94   923.15   923.80   924.09
eigval :      927.04   931.58   945.29   945.31   956.17  1012.35
eigval :     1026.36  1040.01  1040.15  1048.40  1048.40  1098.84
eigval :     1099.09  1100.72  1100.85  1105.01  1105.22  1106.44
eigval :     1106.70  1122.62  1123.01  1125.05  1125.27  1127.10
eigval :     1127.42  1147.49  1148.66  1157.72  1158.75  1170.76
eigval :     1176.03  1177.12  1178.67  1179.46  1180.12  1180.49
eigval :     1181.70  1182.48  1183.07  1183.76  1186.89  1187.65
eigval :     1197.55  1201.75  1223.16  1227.56  1227.92  1230.88
eigval :     1231.35  1231.45  1255.06  1255.26  1255.58  1257.62
eigval :     1259.90  1260.00  1260.48  1264.44  1265.59  1268.02
eigval :     1268.13  1307.65  1310.68  1317.00  1317.82  1321.75
eigval :     1321.80  1325.04  1325.06  1325.81  1325.81  1334.15
eigval :     1334.19  1334.65  1334.86  1395.94  1397.45  1401.06
eigval :     1401.69  1411.14  1411.69  1435.98  1436.14  1436.29
eigval :     1436.36  1461.52  1461.61  1465.60  1465.71  1469.33
eigval :     1470.67  1477.31  1477.42  1492.43  1492.48  1557.42
eigval :     1558.89  1566.06  1566.32  1572.59  1572.63  1577.63
eigval :     1577.86  1581.72  1582.11  1586.36  1586.36  1586.57
eigval :     1586.58  1589.30  1589.35  1594.28  1594.32  1601.61
eigval :     1601.68  1660.34  3071.95  3072.22  3072.22  3072.42
eigval :     3077.01  3077.14  3077.82  3077.91  3078.11  3078.14
eigval :     3078.79  3079.16  3080.37  3080.41  3080.97  3081.94
eigval :     3086.96  3087.37  3087.96  3088.03  3088.16  3088.43
eigval :     3088.92  3089.96  3090.65  3091.08  3091.23  3091.72
eigval :     3097.08  3097.20  3097.58  3097.67  3097.85  3097.88
eigval :     3097.93  3098.43  3098.71  3099.00  3099.76  3100.87

   temp. (K)  partition function   enthalpy   heat capacity  entropy
                                   cal/mol     cal/K/mol   cal/K/mol   J/K/mol
 298.15  VIB  0.100E+29            32453.216    201.399    206.141
         ROT  0.302E+09              888.752      2.981     41.784
         INT  0.302E+37            33341.968    204.380    247.925
         TR   0.263E+29             1481.254      4.968     46.263
         TOT                       34823.2220   209.3479   294.1880  1230.8827

       T/K    H(0)-H(T)+PV         H(T)/Eh          T*S/Eh         G(T)/Eh
   ------------------------------------------------------------------------
    298.15    0.554943E-01    0.870483E+00    0.139778E+00    0.730705E+00
   ------------------------------------------------------------------------

         :::::::::::::::::::::::::::::::::::::::::::::::::::::
         ::                  THERMODYNAMIC                  ::
         :::::::::::::::::::::::::::::::::::::::::::::::::::::
         :: total free energy        -171.099906030104 Eh   ::
         ::.................................................::
         :: total energy             -171.830611158695 Eh   ::
         :: zero point energy           0.814989018604 Eh   ::
         :: G(RRHO) w/o ZPVE           -0.084283890012 Eh   ::
         :: G(RRHO) contrib.            0.730705128592 Eh   ::
         :::::::::::::::::::::::::::::::::::::::::::::::::::::

           -------------------------------------------------
          | TOTAL ENERGY             -171.830611158695 Eh   |
          | TOTAL ENTHALPY           -170.960127803523 Eh   |
          | TOTAL FREE ENERGY        -171.099906030104 Eh   |
          | GRADIENT NORM               0.000161091239 Eh/α |
          | HOMO-LUMO GAP               1.405843075313 eV   |
           -------------------------------------------------

 * finished run on 2025/07/18 at 18:49:34.093
