   * xtb version 6.7.1 (edcfbbe) compiled by 'albert@albert-system' on 2024-07-22

   ID    Z sym.   atoms
    1    8 O      1
    2    6 C      2-8, 10-25, 27-34
    3   16 S      9
    4    7 N      26
    5    1 H      35-53

          program call               : xtb data2507/gas/TX-CzPh/TX-CzPh_gas_S0_crest.xyz --gfn 2 --ohess vtight --parallel 40 --molden --ceasefiles --namespace data2507/gas/TX-CzPh/TX-CzPh_gas_S0_finalOpt
          :  Hamiltonian                  GFN2-xTB          :
 * total energy  :   -86.3382319 Eh     change       -0.8881642E-09 Eh
 * total energy  :   -86.3382324 Eh     change       -0.5388430E-06 Eh
 * total energy  :   -86.3382331 Eh     change       -0.6477373E-06 Eh
 * total energy  :   -86.3382344 Eh     change       -0.1357787E-05 Eh
 * total energy  :   -86.3382359 Eh     change       -0.1420530E-05 Eh
 * total energy  :   -86.3382369 Eh     change       -0.1016938E-05 Eh
 * total energy  :   -86.3382377 Eh     change       -0.8578219E-06 Eh
 * total energy  :   -86.3382387 Eh     change       -0.9557338E-06 Eh
 * total energy  :   -86.3382397 Eh     change       -0.1048443E-05 Eh
 * total energy  :   -86.3382407 Eh     change       -0.1005358E-05 Eh
 * total energy  :   -86.3382437 Eh     change       -0.4912733E-06 Eh
 * total energy  :   -86.3382440 Eh     change       -0.3387561E-06 Eh
 * total energy  :   -86.3382443 Eh     change       -0.2481086E-06 Eh
 * total energy  :   -86.3382445 Eh     change       -0.2226121E-06 Eh
 * total energy  :   -86.3382447 Eh     change       -0.2204560E-06 Eh
 * total energy  :   -86.3382450 Eh     change       -0.2511304E-06 Eh
 * total energy  :   -86.3382452 Eh     change       -0.2847616E-06 Eh
 * total energy  :   -86.3382455 Eh     change       -0.2710620E-06 Eh
 * total energy  :   -86.3382455 Eh     change       -0.3232785E-08 Eh
   *** GEOMETRY OPTIMIZATION CONVERGED AFTER 22 ITERATIONS ***

 final structure:
================
53
 xtb: 6.7.1 (edcfbbe)
O            3.83054656764987       -2.20179898297020        0.87601676252330
C            4.31086827220372       -1.16544525953906        0.44133274295639
C            5.77167717347074       -0.96308122053707        0.42843374083511
C            6.55919277041585       -1.98708415686786        0.97072848229533
C            7.93076922894919       -1.90000737054131        1.00761763662815
C            8.56184570651927       -0.77103406360245        0.49431967822505
C            7.81240887032396        0.25001936645799       -0.04508747680483
C            6.41970265184320        0.16352291904850       -0.08095867115213
S            5.58654869401330        1.52685080082039       -0.79225002411049
C            3.89654052501722        1.10650690820421       -0.62789605497492
C            2.97938224707177        2.05103315933066       -1.09066167036065
C            1.62767758307302        1.81745649676241       -1.00315034683846
C            1.14254143774850        0.62524385142718       -0.45162910170484
C           -0.30045909767137        0.37276156363286       -0.34844799658440
C           -0.80658384891852       -0.90940738858763       -0.60643831023716
C           -2.15194608861520       -1.19681168922675       -0.51370789613117
C           -3.01302249853342       -0.17597156687207       -0.13436698030114
C           -2.52474657736288        1.12902666702208        0.10834598100372
C           -1.16982711598358        1.39883190713233       -0.00032342967469
C           -3.66683099727573        1.93752473859256        0.43200282093618
C           -3.82495710128773        3.27302438956567        0.77772809449089
C           -5.09447019548820        3.73781314561842        1.05646315482785
C           -6.19576107589782        2.88583421509780        1.00800651973324
C           -6.06372834466585        1.55362288816035        0.66613420253886
C           -4.79335788384854        1.08609714602126        0.36170020434368
N           -4.38275491602008       -0.18740746624082        0.01867741889842
C           -5.21633879103479       -1.30457690410972       -0.13815264414984
C           -4.91889233169965       -2.49576773553145        0.51725274471250
C           -5.74076929236830       -3.59567301839901        0.35563376882694
C           -6.86611535653966       -3.51520285742353       -0.44769077873223
C           -7.16581494875159       -2.32885578924161       -1.09650500304400
C           -6.34411019425903       -1.22666904724831       -0.94986240499084
C            2.06262418205099       -0.30595403455219       -0.00234982027614
C            3.44231046999066       -0.09271434356961       -0.07664649367248
H            6.04006248942626       -2.85050025113565        1.35978323908016
H            8.51547924995601       -2.70193438921186        1.43156028438118
H            9.63828695682736       -0.69191002190609        0.51758549263483
H            8.28763369902715        1.13233697556557       -0.44718666204388
H            3.35240515806288        2.96852804580614       -1.52122347798308
H            0.93401673113039        2.55328676064578       -1.38135481944636
H           -0.12250049372891       -1.68746589530355       -0.90990276837114
H           -2.52158733133017       -2.18517374645186       -0.74123698225140
H           -0.79591967889403        2.38997806464260        0.20792115498610
H           -2.96901154395976        3.92879677179638        0.83168170466510
H           -5.24007872436271        4.77328376139516        1.32594595901664
H           -7.17468389346426        3.27451701057599        1.24700199167916
H           -6.92091805115210        0.89757016638629        0.64918061417125
H           -4.05303561457586       -2.54767339608892        1.16025455617335
H           -5.50540656206773       -4.51761413402604        0.86634506569975
H           -7.50786839889783       -4.37483876887625       -0.56795733296500
H           -8.03991772074301       -2.26309370291036       -1.72733951431557
H           -6.56186046401526       -0.30673262286688       -1.47172070800334
H            1.73735121124196       -1.23341995967056        0.44553892935770

          :  Hamiltonian                  GFN2-xTB          :
         :: gradient norm              0.000040100251 Eh/a0 ::
         :: HOMO-LUMO gap              2.004930211541 eV    ::
         :: SCC energy               -87.886761089252 Eh    ::
         :: -> dispersion             -0.072343789453 Eh    ::
         :: repulsion energy           1.548515577211 Eh    ::

    * Orbital Energies and Occupations

         #    Occupation            Energy/Eh            Energy/eV
      -------------------------------------------------------------
         1        2.0000           -0.7358868             -20.0245
       ...           ...                  ...                  ...
        68        2.0000           -0.4273488             -11.6288
        69        2.0000           -0.4219761             -11.4826
        70        2.0000           -0.4197866             -11.4230
        71        2.0000           -0.4193138             -11.4101
        72        2.0000           -0.4179181             -11.3721
        73        2.0000           -0.4173726             -11.3573
        74        2.0000           -0.4147986             -11.2872
        75        2.0000           -0.4124785             -11.2241
        76        2.0000           -0.4035902             -10.9822
        77        2.0000           -0.3859080             -10.5011
        78        2.0000           -0.3811996             -10.3730
        79        2.0000           -0.3761287             -10.2350
        80        2.0000           -0.3612064              -9.8289 (HOMO)
        81                         -0.2875266              -7.8240 (LUMO)
        82                         -0.2557839              -6.9602
        83                         -0.2474563              -6.7336
        84                         -0.2393091              -6.5119
        85                         -0.2373313              -6.4581
        86                         -0.2345651              -6.3828
        87                         -0.2341751              -6.3722
        88                         -0.2174583              -5.9173
        89                         -0.2053303              -5.5873
        90                         -0.1937299              -5.2717
        91                         -0.1880520              -5.1172
       ...                                ...                  ...
       160                          0.7462204              20.3057
      -------------------------------------------------------------
                  HL-Gap            0.0736798 Eh            2.0049 eV

     #   Z          covCN         q      C6AA      α(0)
     1   8 O        0.858    -0.401    21.702     6.246
     2   6 C        2.833     0.220    23.363     7.921
     3   6 C        2.996    -0.022    28.555     8.766
     4   6 C        2.930    -0.019    28.476     8.751
     5   6 C        2.916    -0.032    28.790     8.799
     6   6 C        2.920    -0.022    28.544     8.761
     7   6 C        2.994    -0.038    28.937     8.824
     8   6 C        2.968     0.049    26.892     8.506
     9  16 S        2.159    -0.079   144.362    20.222
    10   6 C        2.968     0.045    26.984     8.521
    11   6 C        2.990    -0.039    28.971     8.829
    12   6 C        2.925    -0.028    28.700     8.785
    13   6 C        2.973     0.011    27.755     8.642
    14   6 C        2.977    -0.002    28.060     8.689
    15   6 C        2.929    -0.037    28.919     8.819
    16   6 C        2.908    -0.050    29.242     8.867
    17   6 C        3.077     0.047    26.869     8.499
    18   6 C        3.066    -0.017    28.366     8.733
    19   6 C        2.918    -0.037    28.926     8.820
    20   6 C        3.068    -0.017    28.360     8.732
    21   6 C        2.912    -0.033    28.810     8.802
    22   6 C        2.920    -0.040    29.005     8.832
    23   6 C        2.924    -0.033    28.821     8.804
    24   6 C        2.910    -0.050    29.249     8.868
    25   6 C        3.078     0.047    26.865     8.498
    26   7 N        2.803    -0.042    22.049     6.974
    27   6 C        2.913     0.065    26.555     8.450
    28   6 C        2.922    -0.042    29.043     8.838
    29   6 C        2.920    -0.027    28.687     8.783
    30   6 C        2.919    -0.033    28.814     8.803
    31   6 C        2.920    -0.028    28.695     8.784
    32   6 C        2.922    -0.042    29.047     8.838
    33   6 C        2.937    -0.027    28.668     8.781
    34   6 C        2.994    -0.024    28.590     8.771
    35   1 H        0.926     0.070     2.083     2.257
    36   1 H        0.926     0.043     2.410     2.427
    37   1 H        0.926     0.044     2.400     2.423
    38   1 H        0.926     0.046     2.364     2.405
    39   1 H        0.926     0.045     2.382     2.414
    40   1 H        0.926     0.045     2.386     2.416
    41   1 H        0.926     0.038     2.478     2.462
    42   1 H        0.926     0.032     2.563     2.504
    43   1 H        0.926     0.033     2.540     2.492
    44   1 H        0.926     0.031     2.575     2.509
    45   1 H        0.926     0.029     2.604     2.524
    46   1 H        0.926     0.030     2.588     2.516
    47   1 H        0.926     0.028     2.610     2.526
    48   1 H        0.926     0.042     2.423     2.434
    49   1 H        0.926     0.038     2.481     2.463
    50   1 H        0.926     0.036     2.503     2.474
    51   1 H        0.926     0.037     2.495     2.470
    52   1 H        0.926     0.041     2.440     2.443
    53   1 H        0.926     0.070     2.084     2.258

molecular dipole:
                 x           y           z       tot (Debye)
 q only:       -0.399       0.380      -0.376
   full:       -0.414       0.304      -0.365       1.601

 projected vibrational frequencies (cm⁻¹)
eigval :       -0.00    -0.00     0.00     0.00     0.00     0.00
eigval :       13.61    19.83    26.26    33.45    55.69    64.74
eigval :       67.25    97.16   102.95   122.12   129.42   146.97
eigval :      162.47   184.05   202.90   215.71   236.71   250.51
eigval :      274.19   300.00   316.67   335.41   356.90   371.62
eigval :      380.58   390.53   399.01   404.11   415.42   417.54
eigval :      432.31   443.03   454.03   461.42   476.52   494.68
eigval :      525.92   536.54   549.03   579.05   590.18   592.00
eigval :      600.21   608.17   614.72   642.95   645.44   664.13
eigval :      667.32   672.57   685.41   707.70   716.66   725.90
eigval :      731.21   763.61   765.52   775.84   786.55   817.68
eigval :      834.14   841.21   869.81   875.85   883.04   883.13
eigval :      893.88   897.71   902.78   907.61   915.52   921.82
eigval :      922.49   923.33   925.25   928.66   933.70   934.46
eigval :      957.14   998.38  1024.14  1043.87  1066.71  1071.89
eigval :     1080.62  1085.06  1090.45  1118.24  1124.07  1144.67
eigval :     1153.99  1161.56  1174.29  1176.71  1178.80  1181.17
eigval :     1184.67  1201.63  1220.40  1228.10  1237.73  1246.11
eigval :     1251.00  1264.96  1275.08  1293.93  1314.82  1318.13
eigval :     1339.64  1344.80  1350.95  1361.89  1370.27  1381.39
eigval :     1404.88  1420.70  1431.04  1436.12  1440.27  1452.02
eigval :     1480.90  1484.45  1488.98  1542.84  1559.97  1565.51
eigval :     1579.82  1583.48  1584.64  1585.80  1596.19  1598.39
eigval :     1615.02  1652.81  3077.06  3079.58  3081.63  3082.21
eigval :     3082.82  3083.55  3084.32  3087.46  3089.41  3089.73
eigval :     3091.27  3093.51  3094.64  3095.06  3095.30  3096.47
eigval :     3097.02  3099.88  3101.50

   temp. (K)  partition function   enthalpy   heat capacity  entropy
                                   cal/mol     cal/K/mol   cal/K/mol   J/K/mol
 298.15  VIB  0.529E+11            14702.379     96.344     89.483
         ROT  0.397E+08              888.752      2.981     37.752
         INT  0.210E+19            15591.131     99.324    127.235
         TR   0.935E+28             1481.254      4.968     44.205
         TOT                       17072.3853   104.2926   171.4393   717.3022

       T/K    H(0)-H(T)+PV         H(T)/Eh          T*S/Eh         G(T)/Eh
   ------------------------------------------------------------------------
    298.15    0.272066E-01    0.422783E+00    0.814564E-01    0.341327E+00
   ------------------------------------------------------------------------

         :::::::::::::::::::::::::::::::::::::::::::::::::::::
         ::                  THERMODYNAMIC                  ::
         :::::::::::::::::::::::::::::::::::::::::::::::::::::
         :: total free energy         -85.996918910187 Eh   ::
         ::.................................................::
         :: total energy              -86.338245512041 Eh   ::
         :: zero point energy           0.395576390980 Eh   ::
         :: G(RRHO) w/o ZPVE           -0.054249789127 Eh   ::
         :: G(RRHO) contrib.            0.341326601853 Eh   ::
         :::::::::::::::::::::::::::::::::::::::::::::::::::::

           -------------------------------------------------
          | TOTAL ENERGY              -86.338245512041 Eh   |
          | TOTAL ENTHALPY            -85.915462543388 Eh   |
          | TOTAL FREE ENERGY         -85.996918910187 Eh   |
          | GRADIENT NORM               0.000040091175 Eh/α |
          | HOMO-LUMO GAP               2.004930211875 eV   |
           -------------------------------------------------

 * finished run on 2025/09/08 at 07:37:08.467
