   * xtb version 6.7.1 (edcfbbe) compiled by 'albert@albert-system' on 2024-07-22

   ID    Z sym.   atoms
    1    8 O      1
    2    6 C      2-8, 10-25, 27-34
    3   16 S      9
    4    7 N      26
    5    1 H      35-53

          program call               : xtb data2507/gas/TX-CzPh/TX-CzPh.xyz --gfn 2 --ohess vtight --parallel 40 --molden --ceasefiles --namespace data2507/gas/TX-CzPh/TX-CzPh_gas_S0_preOpt
          :  Hamiltonian                  GFN2-xTB          :
 * total energy  :   -86.3246899 Eh     change       -0.1286040E-08 Eh
 * total energy  :   -86.3341123 Eh     change       -0.9422356E-02 Eh
 * total energy  :   -86.3365732 Eh     change       -0.2460922E-02 Eh
 * total energy  :   -86.3371904 Eh     change       -0.6172133E-03 Eh
 * total energy  :   -86.3374787 Eh     change       -0.2882946E-03 Eh
 * total energy  :   -86.3375673 Eh     change       -0.8862680E-04 Eh
 * total energy  :   -86.3376572 Eh     change       -0.8985178E-04 Eh
 * total energy  :   -86.3377438 Eh     change       -0.8665208E-04 Eh
 * total energy  :   -86.3378292 Eh     change       -0.8535933E-04 Eh
 * total energy  :   -86.3378898 Eh     change       -0.6060567E-04 Eh
 * total energy  :   -86.3382272 Eh     change       -0.1530693E-05 Eh
 * total energy  :   -86.3382291 Eh     change       -0.1876346E-05 Eh
 * total energy  :   -86.3382311 Eh     change       -0.2045473E-05 Eh
 * total energy  :   -86.3382331 Eh     change       -0.1970956E-05 Eh
 * total energy  :   -86.3382347 Eh     change       -0.1620467E-05 Eh
 * total energy  :   -86.3382360 Eh     change       -0.1265090E-05 Eh
 * total energy  :   -86.3382369 Eh     change       -0.9763577E-06 Eh
 * total energy  :   -86.3382377 Eh     change       -0.7724634E-06 Eh
 * total energy  :   -86.3382377 Eh     change       -0.8316363E-08 Eh
   *** GEOMETRY OPTIMIZATION CONVERGED AFTER 44 ITERATIONS ***

 final structure:
================
53
 xtb: 6.7.1 (edcfbbe)
O            4.36633455488931       -2.07518049901508        0.78619817665037
C            4.83411007431609       -1.04406887663894        0.32616857588840
C            6.29279768035473       -0.82851384309685        0.29884968471162
C            7.09283961397522       -1.82677379560414        0.86999323866177
C            8.46372967941799       -1.72597589413300        0.89580969222951
C            9.08130419946612       -0.60929694347853        0.34088055251296
C            8.31932965115816        0.38648850110070       -0.22745293729784
C            6.92725947045105        0.28671462012573       -0.25103874386429
S            6.07707453723891        1.61846522492551       -1.00109675697645
C            4.39178380586793        1.19627195666271       -0.79715797068951
C            3.46275442587828        2.12397835540220       -1.27014448171368
C            2.11373306276548        1.88723324289346       -1.15385008572341
C            1.64335843188678        0.70813012107910       -0.56284279654809
C            0.20362496042020        0.45244790759615       -0.42710617213632
C           -0.30112977984482       -0.83818062693441       -0.64201756975625
C           -1.64293047660942       -1.12909771339290       -0.51491163529216
C           -2.50118882178268       -0.10271309477984       -0.14424464342357
C           -2.01474828371158        1.21037615112011        0.05458340161424
C           -0.66369603780178        1.48342256152605       -0.08859701206633
C           -3.15390510801228        2.02145945062046        0.38198264177416
C           -3.31141516693782        3.36434037656116        0.69809822948255
C           -4.57692119654260        3.82985990519523        0.99332765578181
C           -5.67453517253809        2.97178303403263        0.98986616025369
C           -5.54305977842351        1.63218944575788        0.67792446207345
C           -4.27716284302126        1.16321002205041        0.35754764292135
N           -3.86728246450351       -0.11662732827936        0.03797977021878
C           -4.69818524188115       -1.24173077350563       -0.06848970475265
C           -4.38055074328919       -2.41213573759316        0.61431164211899
C           -5.20123107984469       -3.51924163147275        0.50390975724689
C           -6.34499130008819       -3.46646371272875       -0.27534971885997
C           -6.66428254586722       -2.30095098124046       -0.95198217023852
C           -5.84420757565378       -1.19194792092369       -0.85646996018205
C            2.57502247002376       -0.20697401724023       -0.10447791576498
C            3.95223329032049        0.01025546254437       -0.20682081937747
H            6.58400897239791       -2.68157118485660        1.29042998084271
H            9.05825173350336       -2.50782956024262        1.34297736647687
H           10.15709345196207       -0.51976107179170        0.35470924090649
H            8.78408871297508        1.25912575032871       -0.66163264605382
H            3.82435929507100        3.03124068241072       -1.73105818567382
H            1.41049720314473        2.61001415576229       -1.53947790913843
H            0.38072967598051       -1.62072046698276       -0.93890692541246
H           -2.01224288410230       -2.12464795968597       -0.70925163211131
H           -0.29056341449719        2.48127281169961        0.08637148388141
H           -2.45788055290468        4.02518660998489        0.71701895472844
H           -4.72201944974283        4.87090318968101        1.24070923286841
H           -6.64999648507290        3.36158140762875        1.24088021465627
H           -6.39697856586999        0.97191576675838        0.69591050974306
H           -3.49998325916759       -2.44205363009744        1.23846691545014
H           -4.95048285764402       -4.42483723284794        1.03608608571193
H           -6.98588279712366       -4.33142870978640       -0.35520129466212
H           -7.55266952896056       -2.25703121495737       -1.56449090268345
H           -6.07759071663434       -0.28849027975599       -1.39991735403761
H            2.26139517461384       -1.12362301238465        0.37299767503165

          :  Hamiltonian                  GFN2-xTB          :
         :: gradient norm              0.000059802618 Eh/a0 ::
         :: HOMO-LUMO gap              2.004934494678 eV    ::
         :: SCC energy               -87.886782726456 Eh    ::
         :: -> dispersion             -0.072343254441 Eh    ::
         :: repulsion energy           1.548545000403 Eh    ::

    * Orbital Energies and Occupations

         #    Occupation            Energy/Eh            Energy/eV
      -------------------------------------------------------------
         1        2.0000           -0.7358686             -20.0240
       ...           ...                  ...                  ...
        68        2.0000           -0.4273330             -11.6283
        69        2.0000           -0.4219692             -11.4824
        70        2.0000           -0.4197897             -11.4231
        71        2.0000           -0.4193221             -11.4103
        72        2.0000           -0.4179158             -11.3721
        73        2.0000           -0.4173616             -11.3570
        74        2.0000           -0.4148087             -11.2875
        75        2.0000           -0.4124771             -11.2241
        76        2.0000           -0.4035936             -10.9823
        77        2.0000           -0.3859140             -10.5013
        78        2.0000           -0.3811910             -10.3727
        79        2.0000           -0.3761311             -10.2350
        80        2.0000           -0.3612033              -9.8288 (HOMO)
        81                         -0.2875233              -7.8239 (LUMO)
        82                         -0.2557638              -6.9597
        83                         -0.2474434              -6.7333
        84                         -0.2393116              -6.5120
        85                         -0.2373311              -6.4581
        86                         -0.2345657              -6.3829
        87                         -0.2341816              -6.3724
        88                         -0.2174820              -5.9180
        89                         -0.2053226              -5.5871
        90                         -0.1937489              -5.2722
        91                         -0.1880497              -5.1171
       ...                                ...                  ...
       160                          0.7462462              20.3064
      -------------------------------------------------------------
                  HL-Gap            0.0736800 Eh            2.0049 eV

     #   Z          covCN         q      C6AA      α(0)
     1   8 O        0.858    -0.401    21.701     6.246
     2   6 C        2.833     0.220    23.362     7.921
     3   6 C        2.996    -0.022    28.555     8.766
     4   6 C        2.930    -0.019    28.476     8.751
     5   6 C        2.916    -0.032    28.790     8.799
     6   6 C        2.920    -0.022    28.544     8.761
     7   6 C        2.994    -0.038    28.937     8.824
     8   6 C        2.968     0.049    26.892     8.506
     9  16 S        2.159    -0.080   144.365    20.222
    10   6 C        2.968     0.045    26.984     8.521
    11   6 C        2.990    -0.039    28.971     8.829
    12   6 C        2.925    -0.028    28.700     8.785
    13   6 C        2.973     0.011    27.755     8.642
    14   6 C        2.977    -0.002    28.060     8.689
    15   6 C        2.929    -0.037    28.919     8.819
    16   6 C        2.908    -0.050    29.241     8.867
    17   6 C        3.077     0.047    26.869     8.499
    18   6 C        3.066    -0.017    28.366     8.733
    19   6 C        2.918    -0.037    28.926     8.820
    20   6 C        3.068    -0.017    28.360     8.732
    21   6 C        2.912    -0.033    28.811     8.802
    22   6 C        2.920    -0.040    29.005     8.832
    23   6 C        2.924    -0.033    28.821     8.804
    24   6 C        2.910    -0.050    29.249     8.868
    25   6 C        3.078     0.047    26.864     8.498
    26   7 N        2.803    -0.042    22.049     6.974
    27   6 C        2.913     0.065    26.555     8.450
    28   6 C        2.922    -0.042    29.043     8.838
    29   6 C        2.920    -0.027    28.687     8.783
    30   6 C        2.919    -0.033    28.814     8.802
    31   6 C        2.920    -0.028    28.695     8.784
    32   6 C        2.922    -0.042    29.046     8.838
    33   6 C        2.937    -0.027    28.668     8.781
    34   6 C        2.994    -0.024    28.590     8.771
    35   1 H        0.926     0.070     2.084     2.257
    36   1 H        0.926     0.043     2.410     2.427
    37   1 H        0.926     0.044     2.400     2.423
    38   1 H        0.926     0.046     2.364     2.405
    39   1 H        0.926     0.045     2.382     2.413
    40   1 H        0.926     0.045     2.386     2.416
    41   1 H        0.926     0.038     2.478     2.461
    42   1 H        0.926     0.032     2.563     2.504
    43   1 H        0.926     0.033     2.540     2.492
    44   1 H        0.926     0.031     2.575     2.509
    45   1 H        0.926     0.029     2.604     2.524
    46   1 H        0.926     0.030     2.588     2.516
    47   1 H        0.926     0.028     2.610     2.526
    48   1 H        0.926     0.042     2.423     2.434
    49   1 H        0.926     0.038     2.481     2.463
    50   1 H        0.926     0.036     2.503     2.474
    51   1 H        0.926     0.037     2.494     2.470
    52   1 H        0.926     0.041     2.440     2.443
    53   1 H        0.926     0.070     2.085     2.258

molecular dipole:
                 x           y           z       tot (Debye)
 q only:       -0.409       0.374      -0.360
   full:       -0.423       0.300      -0.343       1.580

 projected vibrational frequencies (cm⁻¹)
eigval :       -0.00    -0.00    -0.00     0.00     0.00     0.00
eigval :       13.68    19.79    26.29    33.55    55.70    64.72
eigval :       67.07    97.15   102.89   122.13   129.47   147.23
eigval :      162.32   183.89   202.93   215.77   236.61   250.39
eigval :      274.10   299.92   316.81   335.26   356.96   371.66
eigval :      380.52   390.59   398.96   404.04   415.48   417.50
eigval :      432.26   442.95   454.05   461.45   476.47   494.54
eigval :      525.95   536.53   548.98   579.20   590.15   592.17
eigval :      600.08   608.09   614.75   642.88   645.52   664.13
eigval :      667.32   672.57   685.41   707.69   716.65   725.91
eigval :      731.19   763.60   765.53   775.81   786.55   817.69
eigval :      834.13   841.23   869.79   875.83   883.04   883.09
eigval :      893.82   897.71   902.78   907.60   915.53   921.80
eigval :      922.47   923.32   925.25   928.65   933.68   934.41
eigval :      957.15   998.40  1024.14  1043.84  1066.70  1071.89
eigval :     1080.61  1085.07  1090.46  1118.22  1124.06  1144.68
eigval :     1153.94  1161.52  1174.30  1176.72  1178.80  1181.16
eigval :     1184.66  1201.59  1220.40  1228.12  1237.74  1246.08
eigval :     1251.03  1265.00  1275.08  1293.95  1314.82  1318.12
eigval :     1339.61  1344.75  1350.94  1361.90  1370.31  1381.44
eigval :     1404.90  1420.70  1431.05  1436.11  1440.27  1452.04
eigval :     1480.89  1484.47  1489.02  1542.85  1559.97  1565.52
eigval :     1579.83  1583.48  1584.67  1585.80  1596.19  1598.40
eigval :     1615.05  1652.95  3077.07  3079.60  3081.63  3082.21
eigval :     3082.81  3083.54  3084.27  3087.45  3089.38  3089.73
eigval :     3091.25  3093.54  3094.63  3095.03  3095.28  3096.47
eigval :     3096.99  3099.89  3101.46

   temp. (K)  partition function   enthalpy   heat capacity  entropy
                                   cal/mol     cal/K/mol   cal/K/mol   J/K/mol
 298.15  VIB  0.528E+11            14702.845     96.345     89.485
         ROT  0.397E+08              888.752      2.981     37.752
         INT  0.209E+19            15591.597     99.326    127.236
         TR   0.935E+28             1481.254      4.968     44.205
         TOT                       17072.8508   104.2941   171.4409   717.3088

       T/K    H(0)-H(T)+PV         H(T)/Eh          T*S/Eh         G(T)/Eh
   ------------------------------------------------------------------------
    298.15    0.272073E-01    0.422782E+00    0.814571E-01    0.341325E+00
   ------------------------------------------------------------------------

         :::::::::::::::::::::::::::::::::::::::::::::::::::::
         ::                  THERMODYNAMIC                  ::
         :::::::::::::::::::::::::::::::::::::::::::::::::::::
         :: total free energy         -85.996912969790 Eh   ::
         ::.................................................::
         :: total energy              -86.338237726056 Eh   ::
         :: zero point energy           0.395574552738 Eh   ::
         :: G(RRHO) w/o ZPVE           -0.054249796473 Eh   ::
         :: G(RRHO) contrib.            0.341324756266 Eh   ::
         :::::::::::::::::::::::::::::::::::::::::::::::::::::

           -------------------------------------------------
          | TOTAL ENERGY              -86.338237726056 Eh   |
          | TOTAL ENTHALPY            -85.915455853763 Eh   |
          | TOTAL FREE ENERGY         -85.996912969790 Eh   |
          | GRADIENT NORM               0.000059804145 Eh/α |
          | HOMO-LUMO GAP               2.004934665779 eV   |
           -------------------------------------------------

 * finished run on 2025/09/08 at 07:35:15.791
