   * xtb version 6.7.1 (edcfbbe) compiled by 'albert@albert-system' on 2024-07-22

   ID    Z sym.   atoms
    1    8 O      1
    2    6 C      2-8, 10-25, 27-34
    3   16 S      9
    4    7 N      26
    5    1 H      35-53

          program call               : xtb data2507/gas/TX-CzPh/TX-CzPh_gas_T1_crest.xyz --gfn 2 --spinpol --tblite --uhf 2 --ohess vtight --parallel 40 --molden --ceasefiles --namespace data2507/gas/TX-CzPh/TX-CzPh_gas_T1_finalOpt
 * total energy  :   -86.2560562 Eh     change       -0.5890016E-08 Eh
 * total energy  :   -86.2561050 Eh     change       -0.4871594E-04 Eh
 * total energy  :   -86.2561235 Eh     change       -0.1856126E-04 Eh
 * total energy  :   -86.2561261 Eh     change       -0.2571851E-05 Eh
 * total energy  :   -86.2561287 Eh     change       -0.2648847E-05 Eh
 * total energy  :   -86.2561311 Eh     change       -0.2409161E-05 Eh
 * total energy  :   -86.2561335 Eh     change       -0.2376348E-05 Eh
 * total energy  :   -86.2561354 Eh     change       -0.1863367E-05 Eh
 * total energy  :   -86.2561372 Eh     change       -0.1778585E-05 Eh
 * total energy  :   -86.2561397 Eh     change       -0.2521420E-05 Eh
 * total energy  :   -86.2561503 Eh     change       -0.2700880E-05 Eh
 * total energy  :   -86.2561517 Eh     change       -0.1398559E-05 Eh
 * total energy  :   -86.2561525 Eh     change       -0.8391342E-06 Eh
 * total energy  :   -86.2561531 Eh     change       -0.5793157E-06 Eh
 * total energy  :   -86.2561535 Eh     change       -0.4213269E-06 Eh
 * total energy  :   -86.2561539 Eh     change       -0.3456398E-06 Eh
 * total energy  :   -86.2561541 Eh     change       -0.2618746E-06 Eh
 * total energy  :   -86.2561543 Eh     change       -0.1504925E-06 Eh
 * total energy  :   -86.2561543 Eh     change       -0.4334778E-07 Eh
   *** GEOMETRY OPTIMIZATION CONVERGED AFTER 21 ITERATIONS ***

 final structure:
================
53
 xtb: 6.7.1 (edcfbbe)
O            3.80637780490406        2.21647857534755       -0.84823044836418
C            4.31218083211118        1.13772628301092       -0.40382037393737
C            5.74795425917788        0.97795610912688       -0.37414627859555
C            6.54364223075107        2.03002936403804       -0.86842015867293
C            7.91817097887218        1.95465811799734       -0.87373500871316
C            8.56355249704327        0.82128774599714       -0.39397803282511
C            7.80581967774020       -0.23233624687916        0.09416906091380
C            6.42228251019993       -0.15863242050998        0.10536381356008
S            5.58313109111165       -1.56972451151773        0.75100206999716
C            3.88975750787982       -1.15440618067426        0.58314709164540
C            2.97680228157109       -2.11392848763082        0.99925850422511
C            1.61637037669715       -1.88507741555702        0.92199242752471
C            1.14247378250054       -0.65991855760215        0.42523880424966
C           -0.29068624031839       -0.39339362113055        0.32741512059171
C           -0.78527515250336        0.90096421622136        0.56758449750158
C           -2.12632949730804        1.20027146857294        0.48453665476233
C           -3.00343323309220        0.18089087447822        0.12897663397819
C           -2.52980136843973       -1.13479898776619       -0.09767965780465
C           -1.18051673416861       -1.41781557666695        0.00379894650569
C           -3.68662384748521       -1.93589728811237       -0.39853706983880
C           -3.86466426977025       -3.27333454131736       -0.72002680777478
C           -5.14523851403406       -3.72616042132585       -0.97738398351441
C           -6.23457358651998       -2.86073084512744       -0.93087011317205
C           -6.08134654231327       -1.52352526953944       -0.61268109788272
C           -4.80166103413794       -1.06976286055510       -0.33054159863427
N           -4.36993265166981        0.20497523354848       -0.01113101488719
C           -5.18946949039485        1.33476199150579        0.13361145678675
C           -4.88552691866115        2.50890675648151       -0.54903336845747
C           -5.69361339503232        3.62069231984549       -0.39947142040502
C           -6.80894066341871        3.56856640723874        0.42023349007085
C           -7.11367879702538        2.39908482791079        1.09705945244725
C           -6.30743982048101        1.28421344259529        0.96092551526011
C            2.06112051347511        0.29628275902808        0.01494982470226
C            3.44935765284697        0.08371109031876        0.06542747263313
H            6.02805758343141        2.90261803979570       -1.23912328778635
H            8.49650891927279        2.78469068340561       -1.25206410578449
H            9.64005178462675        0.75520633552420       -0.39684885291282
H            8.28367646339383       -1.12528540575992        0.46959427037906
H            3.35090016795799       -3.04542949716103        1.39806769998725
H            0.92664503874271       -2.63331864698179        1.27799991970682
H           -0.09183779041373        1.67576302921802        0.85548713158239
H           -2.48536379819440        2.19457739419245        0.70255685473779
H           -0.81890751311283       -2.41511504161751       -0.19342234924063
H           -3.01865559581998       -3.94141407622974       -0.77274762605964
H           -5.30597361729992       -4.76382179085903       -1.22812040698378
H           -7.22099817084673       -3.24013354704690       -1.15185686250185
H           -6.92947763762380       -0.85609947109490       -0.59662645511561
H           -4.02795297917174        2.53753437434555       -1.20438147213414
H           -5.45485926586024        4.52928136275205       -0.93153248873086
H           -7.43919197457728        4.43761347361493        0.53172198420534
H           -7.97931245893101        2.35629758371826        1.74102283698948
H           -6.52749526580311        0.37771063426645        1.50474542991261
H            1.73310463622132        1.23595485156479       -0.40237485492733

 projected vibrational frequencies (cm⁻¹)
eigval :       -0.00    -0.00    -0.00     0.00     0.00     0.00
eigval :       15.77    19.90    28.25    35.74    54.58    64.97
eigval :       67.15    92.18   100.08   121.27   128.46   151.25
eigval :      164.43   180.48   201.01   216.44   234.58   247.68
eigval :      269.89   288.16   307.99   323.69   344.86   349.91
eigval :      379.84   385.70   392.31   394.82   403.99   413.10
eigval :      428.05   438.66   442.70   448.73   473.72   492.42
eigval :      512.26   538.69   543.23   566.58   577.72   584.90
eigval :      589.35   594.87   604.81   614.20   640.03   645.73
eigval :      655.67   658.29   670.84   686.20   706.47   710.99
eigval :      724.42   756.07   762.63   764.18   775.81   791.62
eigval :      825.02   834.91   849.45   854.62   869.54   872.13
eigval :      882.85   884.40   887.70   896.04   903.39   908.50
eigval :      908.63   917.18   922.70   922.94   933.92   934.49
eigval :      950.75   997.86  1019.52  1026.16  1036.41  1070.94
eigval :     1073.09  1080.07  1082.33  1118.22  1121.86  1134.44
eigval :     1151.00  1156.80  1168.96  1174.85  1177.88  1180.79
eigval :     1183.98  1200.28  1204.41  1221.72  1230.66  1235.60
eigval :     1244.01  1258.53  1273.60  1288.26  1306.20  1317.57
eigval :     1328.37  1336.34  1354.16  1356.94  1358.99  1366.33
eigval :     1393.38  1400.64  1404.18  1419.73  1430.10  1435.84
eigval :     1445.58  1466.61  1477.06  1479.45  1481.81  1506.52
eigval :     1521.64  1553.43  1563.32  1579.85  1581.67  1589.56
eigval :     1592.78  1607.41  3079.92  3081.94  3081.97  3082.87
eigval :     3083.10  3085.04  3086.98  3088.04  3092.77  3093.65
eigval :     3096.13  3096.71  3099.01  3099.63  3100.50  3102.41
eigval :     3103.02  3103.57  3104.30

   temp. (K)  partition function   enthalpy   heat capacity  entropy
                                   cal/mol     cal/K/mol   cal/K/mol   J/K/mol
 298.15  VIB  0.549E+11            14928.619     97.824     90.654
         ROT  0.397E+08              888.752      2.981     37.751
         INT  0.218E+19            15817.371    100.805    128.406
         TR   0.935E+28             1481.254      4.968     44.205
         TOT                       17298.6249   105.7732   172.6104   722.2018

       T/K    H(0)-H(T)+PV         H(T)/Eh          T*S/Eh         G(T)/Eh
   ------------------------------------------------------------------------
    298.15    0.275671E-01    0.420020E+00    0.820128E-01    0.338007E+00
   ------------------------------------------------------------------------

         :::::::::::::::::::::::::::::::::::::::::::::::::::::
         ::                  THERMODYNAMIC                  ::
         :::::::::::::::::::::::::::::::::::::::::::::::::::::
         :: total free energy         -85.918147456961 Eh   ::
         ::.................................................::
         :: total energy              -86.256154321312 Eh   ::
         :: zero point energy           0.392452507674 Eh   ::
         :: G(RRHO) w/o ZPVE           -0.054445643323 Eh   ::
         :: G(RRHO) contrib.            0.338006864351 Eh   ::
         :::::::::::::::::::::::::::::::::::::::::::::::::::::

           -------------------------------------------------
          | TOTAL ENERGY              -86.256154321312 Eh   |
          | TOTAL ENTHALPY            -85.836134700168 Eh   |
          | TOTAL FREE ENERGY         -85.918147456961 Eh   |
          | GRADIENT NORM               0.000073731599 Eh/α |
           -------------------------------------------------

 * finished run on 2025/09/08 at 07:40:10.848
