   * xtb version 6.7.1 (edcfbbe) compiled by 'albert@albert-system' on 2024-07-22

   ID    Z sym.   atoms
    1    8 O      1
    2    6 C      2-8, 10-25, 27-34
    3   16 S      9
    4    7 N      26
    5    1 H      35-53

          program call               : xtb data2507/gas/TX-CzPh/TX-CzPh_gas_S0_finalOpt.xtbopt.xyz --gfn 2 --spinpol --tblite --uhf 2 --ohess vtight --parallel 40 --molden --ceasefiles --namespace data2507/gas/TX-CzPh/TX-CzPh_gas_T1_preOpt
 * total energy  :   -86.2520666 Eh     change       -0.8443862E-08 Eh
 * total energy  :   -86.2552172 Eh     change       -0.3150617E-02 Eh
 * total energy  :   -86.2560537 Eh     change       -0.8364883E-03 Eh
 * total energy  :   -86.2561002 Eh     change       -0.4649362E-04 Eh
 * total energy  :   -86.2561106 Eh     change       -0.1036626E-04 Eh
 * total energy  :   -86.2561170 Eh     change       -0.6438223E-05 Eh
 * total energy  :   -86.2561215 Eh     change       -0.4502721E-05 Eh
 * total energy  :   -86.2561260 Eh     change       -0.4460400E-05 Eh
 * total energy  :   -86.2561282 Eh     change       -0.2214133E-05 Eh
 * total energy  :   -86.2561307 Eh     change       -0.2540044E-05 Eh
 * total energy  :   -86.2561518 Eh     change       -0.3269250E-06 Eh
 * total energy  :   -86.2561523 Eh     change       -0.5246323E-06 Eh
 * total energy  :   -86.2561525 Eh     change       -0.2251554E-06 Eh
 * total energy  :   -86.2561527 Eh     change       -0.2175547E-06 Eh
 * total energy  :   -86.2561530 Eh     change       -0.3053471E-06 Eh
 * total energy  :   -86.2561535 Eh     change       -0.4315735E-06 Eh
 * total energy  :   -86.2561537 Eh     change       -0.2365483E-06 Eh
 * total energy  :   -86.2561538 Eh     change       -0.1137839E-06 Eh
 * total energy  :   -86.2561538 Eh     change       -0.1437621E-07 Eh
   *** GEOMETRY OPTIMIZATION CONVERGED AFTER 30 ITERATIONS ***

 final structure:
================
53
 xtb: 6.7.1 (edcfbbe)
O            3.79513728692385       -2.22625883187896        0.84729510417225
C            4.30534138058232       -1.14494842098453        0.41422482719385
C            5.74126552794285       -0.98437562163708        0.40119055083203
C            6.53177380977090       -2.03670790991583        0.90316257748097
C            7.90603804218182       -1.95995654698193        0.92586424506538
C            8.55620239029087       -0.82489690061259        0.45665635776924
C            7.80359971899473        0.22884151647694       -0.03912128024250
C            6.42038064783279        0.15374111168245       -0.06789869156428
S            5.58787278425908        1.56454903340563       -0.72265081821424
C            3.89269023866192        1.15210916238634       -0.56555019532203
C            2.98390452049310        2.11520943722177       -0.98246793471504
C            1.62259647071575        1.88896909067917       -0.91272924785944
C            1.14365384315980        0.66285553681478       -0.42322039493613
C           -0.29052398220730        0.40048455356201       -0.32898036509548
C           -0.78967928978342       -0.89112445152382       -0.57440613001115
C           -2.13165806581559       -1.18641830762451       -0.49107388985987
C           -3.00501748796986       -0.16588371048913       -0.12956897332917
C           -2.52672545748753        1.14734160302861        0.10160650600019
C           -1.17673940740844        1.42651439405209       -0.00059120167781
C           -3.68011450440066        1.95072535269508        0.40924730279647
C           -3.85276928009207        3.28711529359930        0.73791979280317
C           -5.13099556318076        3.74265326510062        1.00200118635977
C           -6.22316944410792        2.88082636865953        0.95495992322025
C           -6.07528375233654        1.54477164476903        0.62948205827814
C           -4.79801523677758        1.08840332558829        0.34062855637074
N           -4.37123673880067       -0.18621807347431        0.01403709775908
C           -5.19539116090480       -1.31245713072224       -0.13238765109703
C           -4.89416319695655       -2.49022510933036        0.54518067855950
C           -5.70773856831881       -3.59790742666348        0.39485012906361
C           -6.82576250547933       -3.53813581442835       -0.42064891023321
C           -7.12761139529557       -2.36513916571187       -1.09266943014380
C           -6.31596740527151       -1.25430338449802       -0.95568373401638
C            2.05820710755344       -0.29755328180729       -0.01362950700677
C            3.44710161791505       -0.08751713724366       -0.05585935484186
H            6.01243465522545       -2.91052172012105        1.26563923667327
H            8.48047300671772       -2.79017256025149        1.30969259060200
H            9.63251043763855       -0.75771908997032        0.47333147966161
H            8.28526464315431        1.12292831216199       -0.40688885301018
H            3.36191341487115        3.04760236550018       -1.37546477816127
H            0.93621465626669        2.64032229378103       -1.26865800051148
H           -0.09908597209441       -1.66699963439096       -0.86626504940207
H           -2.49410802765713       -2.17865999932622       -0.71285629008704
H           -0.81175706304343        2.42178880772690        0.20056915246268
H           -3.00444351695935        3.95224251300901        0.79073095541878
H           -5.28761679256281        4.77953945134534        1.25847952842212
H           -7.20756168692470        3.26210864618273        1.18169320208658
H           -6.92555534354227        0.88007285219848        0.61333421254911
H           -4.03441306960420       -2.52484374632650        1.19738083331230
H           -5.47128378428789       -4.50923186098374        0.92324697858779
H           -7.46043377631899       -4.40391551149535       -0.53250761686570
H           -7.99531328838829       -2.31638671102722       -1.73342308059772
H           -6.53397960382158       -0.34501916305940       -1.49567527270189
H            1.72611785314594       -1.23842411402678        0.39772062264468

 projected vibrational frequencies (cm⁻¹)
eigval :       -0.00     0.00     0.00     0.00     0.00     0.00
eigval :       15.74    19.80    28.25    35.71    54.57    64.91
eigval :       66.99    92.18    99.96   121.30   128.37   151.61
eigval :      164.38   180.35   201.11   216.37   234.54   247.59
eigval :      270.07   288.30   308.07   323.64   344.87   349.86
eigval :      379.81   385.72   392.28   394.83   403.91   413.14
eigval :      427.92   438.37   442.86   448.58   473.79   492.42
eigval :      512.19   538.68   543.05   566.66   577.69   584.99
eigval :      589.33   594.85   604.95   614.20   639.98   645.76
eigval :      655.72   658.31   670.83   686.17   706.49   710.77
eigval :      724.37   756.03   762.62   764.19   775.71   791.57
eigval :      825.01   834.90   849.39   854.54   869.45   872.00
eigval :      882.73   884.39   887.68   896.02   903.30   908.44
eigval :      908.59   917.14   922.66   922.83   933.86   934.39
eigval :      950.51   997.73  1019.44  1026.08  1036.35  1070.78
eigval :     1073.08  1079.81  1082.14  1118.03  1121.62  1134.16
eigval :     1150.69  1156.93  1169.12  1174.87  1177.85  1180.66
eigval :     1184.10  1200.10  1205.39  1221.30  1230.68  1235.85
eigval :     1243.84  1258.49  1273.52  1288.15  1306.18  1317.54
eigval :     1328.01  1336.11  1353.97  1356.82  1358.96  1366.34
eigval :     1393.34  1399.80  1404.54  1419.58  1429.81  1435.57
eigval :     1445.48  1466.47  1477.01  1479.50  1481.61  1506.60
eigval :     1521.69  1553.28  1563.37  1579.97  1581.59  1589.51
eigval :     1592.67  1607.40  3079.91  3081.80  3081.82  3082.86
eigval :     3082.98  3084.99  3086.84  3087.82  3092.67  3093.50
eigval :     3096.14  3096.55  3099.13  3099.55  3100.35  3102.33
eigval :     3102.58  3103.61  3104.11

   temp. (K)  partition function   enthalpy   heat capacity  entropy
                                   cal/mol     cal/K/mol   cal/K/mol   J/K/mol
 298.15  VIB  0.555E+11            14929.608     97.826     90.666
         ROT  0.397E+08              888.752      2.981     37.751
         INT  0.220E+19            15818.361    100.807    128.417
         TR   0.935E+28             1481.254      4.968     44.205
         TOT                       17299.6147   105.7747   172.6214   722.2480

       T/K    H(0)-H(T)+PV         H(T)/Eh          T*S/Eh         G(T)/Eh
   ------------------------------------------------------------------------
    298.15    0.275687E-01    0.420002E+00    0.820180E-01    0.337984E+00
   ------------------------------------------------------------------------

         :::::::::::::::::::::::::::::::::::::::::::::::::::::
         ::                  THERMODYNAMIC                  ::
         :::::::::::::::::::::::::::::::::::::::::::::::::::::
         :: total free energy         -85.918170161024 Eh   ::
         ::.................................................::
         :: total energy              -86.256153858442 Eh   ::
         :: zero point energy           0.392433010855 Eh   ::
         :: G(RRHO) w/o ZPVE           -0.054449313437 Eh   ::
         :: G(RRHO) contrib.            0.337983697418 Eh   ::
         :::::::::::::::::::::::::::::::::::::::::::::::::::::

           -------------------------------------------------
          | TOTAL ENERGY              -86.256153858442 Eh   |
          | TOTAL ENTHALPY            -85.836152156711 Eh   |
          | TOTAL FREE ENERGY         -85.918170161024 Eh   |
          | GRADIENT NORM               0.000067678509 Eh/α |
           -------------------------------------------------

 * finished run on 2025/09/08 at 07:37:12.733
