   * xtb version 6.7.1 (edcfbbe) compiled by 'albert@albert-system' on 2024-07-22

   ID    Z sym.   atoms
    1    7 N      1, 21
    2    6 C      2-20, 22-45
    3    1 H      46-75

          program call               : xtb data2507/gas/TPB-AC/TPB-AC_gas_S0_finalOpt.xtbopt.xyz --gfn 2 --spinpol --tblite --uhf 2 --ohess vtight --parallel 40 --molden --ceasefiles --namespace data2507/gas/TPB-AC/TPB-AC_gas_T1_preOpt
 * total energy  :  -113.0754122 Eh     change        0.4865298E-07 Eh
 * total energy  :  -113.0811828 Eh     change       -0.5770672E-02 Eh
 * total energy  :  -113.0835468 Eh     change       -0.2363962E-02 Eh
 * total energy  :  -113.0842514 Eh     change       -0.7046129E-03 Eh
 * total energy  :  -113.0846926 Eh     change       -0.4411947E-03 Eh
 * total energy  :  -113.0855931 Eh     change       -0.9005182E-03 Eh
 * total energy  :  -113.0860531 Eh     change       -0.4599377E-03 Eh
 * total energy  :  -113.0864809 Eh     change       -0.4278977E-03 Eh
 * total energy  :  -113.0867242 Eh     change       -0.2432221E-03 Eh
 * total energy  :  -113.0868869 Eh     change       -0.1627203E-03 Eh
 * total energy  :  -113.0888919 Eh     change       -0.3688264E-06 Eh
 * total energy  :  -113.0888923 Eh     change       -0.3347328E-06 Eh
 * total energy  :  -113.0888926 Eh     change       -0.3537782E-06 Eh
 * total energy  :  -113.0888931 Eh     change       -0.4464616E-06 Eh
 * total energy  :  -113.0888934 Eh     change       -0.3427699E-06 Eh
 * total energy  :  -113.0888937 Eh     change       -0.2473220E-06 Eh
 * total energy  :  -113.0888940 Eh     change       -0.3002409E-06 Eh
 * total energy  :  -113.0888942 Eh     change       -0.2035126E-06 Eh
 * total energy  :  -113.0888942 Eh     change       -0.5698233E-07 Eh
   *** GEOMETRY OPTIMIZATION CONVERGED AFTER 91 ITERATIONS ***

 final structure:
================
75
 xtb: 6.7.1 (edcfbbe)
N          -10.11832436631249        1.24282395053822        1.35136966968492
C           -8.99864218769278        1.09131396869782        1.13149663252353
C           -7.63513218720884        0.90907450070538        0.86205125450032
C           -6.95580438507237       -0.22244715278313        1.34394750398694
C           -5.62854486614306       -0.40514846101242        1.06342351244648
C           -4.89875542344944        0.53569903447957        0.29936143109325
C           -3.50375383064652        0.34880410023194        0.02517142232077
C           -2.63544027549797        1.45222950888255       -0.05445599228412
C           -1.27175761757180        1.33296699911163       -0.14763709504853
C           -0.46000811183548        2.52418684826853       -0.38131288914093
C           -0.70782045093297        3.71557086429991        0.30615424865159
C            0.06273683804940        4.83738915179526        0.07569884689507
C            1.09014743515231        4.80228249462717       -0.85512326778150
C            1.33332151814200        3.63467303074783       -1.56084105673143
C            0.57133052580436        2.50776535599642       -1.32863175751554
C           -0.67157286977981        0.01152905007468       -0.12727097278869
C            0.72750455449034       -0.17605593796004        0.02139637752865
C            1.53476553207574        0.76427394840967        0.72485228956460
C            2.88905065034387        0.63084471619864        0.80450509632744
C            3.54642557086245       -0.45117851829158        0.18832168886515
N            4.92928462676964       -0.54332321958221        0.20752886825997
C            5.70294627331987        0.62058309637746        0.15822290464393
C            5.28727322601950        1.71218647121101       -0.60782408002308
C            6.04926657259401        2.86231436231464       -0.64541486241223
C            7.23404768980164        2.94379661868432        0.06995363711805
C            7.65237367253842        1.86171384712187        0.82882377684341
C            6.89593782260470        0.70790970958834        0.87854684536143
C            5.55325867585674       -1.79309971011274        0.26582157669109
C            5.00382408842772       -2.81899876876455        1.03749269159062
C            5.61848952497858       -4.05415721405802        1.08656414567662
C            6.78552188263719       -4.28625125459173        0.37534546884709
C            7.33590631864306       -3.26983121412622       -0.39027707517171
C            6.72799843461973       -2.03191202483840       -0.45018452708366
C            2.75925529521937       -1.43211070248869       -0.44948598079013
C            1.40203559507152       -1.30663326199584       -0.51545454399752
C           -1.55690815173491       -1.08650903268107       -0.22789222797109
C           -2.91743374268741       -0.96131868852606       -0.15828617854913
C           -3.75354196950671       -2.14713799535154       -0.36803080145742
C           -4.84505953576084       -2.10082899753201       -1.23859589912482
C           -5.61220094092706       -3.22617221043279       -1.46457641854822
C           -5.31146862563092       -4.41792652515497       -0.82447740681729
C           -4.22697771475853       -4.47867475275226        0.03567784173883
C           -3.45163729640718       -3.35703983233245        0.25784315519157
C           -5.59234602015811        1.68227768516673       -0.14993919104230
C           -6.92441885856788        1.86102512890696        0.11043629569809
H           -7.49242610682763       -0.94303894210245        1.94424624528409
H           -5.11504894498160       -1.26007752558806        1.47536420263581
H           -3.06234146198063        2.44460259053493       -0.03916282090365
H           -1.48946717324305        3.74465407117252        1.05171562315153
H           -0.13307013487167        5.74505963753296        0.62813926979638
H            1.69267688571712        5.68078550088793       -1.03179567970302
H            2.12090516876215        3.60575790600953       -2.30040590097960
H            0.74829028492284        1.61006148486340       -1.90287374048254
H            1.05426911542406        1.56771948413928        1.25968791012157
H            3.47214726201138        1.34557519186314        1.36706946755001
H            4.37126761007340        1.64434607551303       -1.17565382676069
H            5.71997524251934        3.69891461031796       -1.24314507424421
H            7.82736386674964        3.84447143688242        0.03662996429305
H            8.57077735099083        1.92023367974845        1.39354302145839
H            7.21460257773656       -0.12867959306960        1.48285181802948
H            4.10381477655217       -2.63141114346199        1.60420243722983
H            5.18842454486379       -4.83890600558161        1.69066521579827
H            7.26353192145040       -5.25269939878174        0.41772111195567
H            8.24142479177014       -3.44561683052410       -0.95143680347777
H            7.14888854444234       -1.24469564670295       -1.05822130645340
H            3.25025966476817       -2.26777945583162       -0.92710223317437
H            0.83727537716603       -2.04619400081554       -1.06154220763224
H           -1.14113103542755       -2.07737056604114       -0.33814207302396
H           -5.07568027965981       -1.17919362193205       -1.75262324342474
H           -6.45101245727094       -3.17454408720405       -2.14330075653754
H           -5.91861267153812       -5.29447355654253       -0.99511732909357
H           -3.98815594007290       -5.40447117570656        0.53933455471909
H           -2.61962359937606       -3.40474306093841        0.94644268746498
H           -5.07482156089436        2.40883653418478       -0.75889172204927
H           -7.44558043559550        2.73013795956007       -0.26518022118032

 projected vibrational frequencies (cm⁻¹)
eigval :       -0.00    -0.00    -0.00     0.00     0.00     0.00
eigval :        8.70    13.91    15.52    28.90    33.71    40.28
eigval :       47.80    48.97    58.07    61.37    62.68    68.83
eigval :       73.36    80.09    93.97   100.70   112.79   118.13
eigval :      133.11   146.66   156.40   194.31   202.95   207.06
eigval :      222.38   231.76   234.88   256.34   265.11   284.59
eigval :      295.46   300.06   320.82   347.54   361.30   370.67
eigval :      375.27   376.18   377.58   382.39   385.21   400.08
eigval :      413.75   420.15   447.25   455.46   463.92   474.73
eigval :      479.43   501.46   510.43   525.41   534.73   550.67
eigval :      572.18   580.74   582.75   586.16   587.72   590.54
eigval :      593.20   606.57   612.23   616.85   627.17   651.07
eigval :      658.54   660.10   669.23   671.28   674.71   678.37
eigval :      684.35   707.14   735.04   754.51   755.82   759.03
eigval :      759.19   778.60   805.80   806.27   833.08   844.18
eigval :      851.27   861.45   864.29   870.44   872.76   874.81
eigval :      876.20   893.33   893.75   896.51   899.54   905.37
eigval :      907.06   909.24   909.60   916.56   917.27   926.84
eigval :      927.42   927.79   928.51   928.77   928.86   928.99
eigval :      930.05   949.09   963.86   977.64   988.12   996.86
eigval :     1001.33  1010.46  1036.25  1059.15  1080.23  1081.55
eigval :     1083.85  1084.96  1121.51  1122.49  1122.91  1123.95
eigval :     1138.87  1142.39  1159.47  1179.02  1179.12  1179.51
eigval :     1181.25  1181.42  1190.91  1192.76  1198.27  1200.66
eigval :     1217.43  1221.67  1228.40  1245.41  1251.94  1260.84
eigval :     1268.30  1272.90  1275.58  1279.48  1282.40  1283.92
eigval :     1298.84  1314.05  1316.43  1318.55  1319.52  1321.51
eigval :     1326.10  1327.68  1343.05  1349.19  1360.35  1385.24
eigval :     1415.82  1423.61  1426.87  1428.41  1431.93  1437.65
eigval :     1444.10  1455.21  1458.34  1460.91  1461.86  1467.00
eigval :     1471.50  1473.44  1483.01  1517.61  1538.15  1558.49
eigval :     1563.58  1568.57  1568.94  1575.47  1578.52  1585.12
eigval :     1587.34  1597.61  2320.75  3066.74  3067.87  3070.95
eigval :     3072.94  3073.60  3075.66  3077.67  3078.08  3078.32
eigval :     3079.46  3079.76  3080.90  3080.96  3082.04  3082.60
eigval :     3083.22  3084.00  3085.31  3087.34  3089.99  3090.86
eigval :     3091.50  3092.97  3093.75  3094.45  3097.24  3099.31
eigval :     3102.33  3102.77  3106.83

   temp. (K)  partition function   enthalpy   heat capacity  entropy
                                   cal/mol     cal/K/mol   cal/K/mol   J/K/mol
 298.15  VIB  0.202E+18            21753.067    135.960    137.130
         ROT  0.779E+08              888.752      2.981     39.092
         INT  0.157E+26            22641.819    138.941    176.221
         TR   0.133E+29             1481.254      4.968     44.910
         TOT                       24123.0729   143.9088   221.1316   925.2146

       T/K    H(0)-H(T)+PV         H(T)/Eh          T*S/Eh         G(T)/Eh
   ------------------------------------------------------------------------
    298.15    0.384426E-01    0.615977E+00    0.105067E+00    0.510910E+00
   ------------------------------------------------------------------------

         :::::::::::::::::::::::::::::::::::::::::::::::::::::
         ::                  THERMODYNAMIC                  ::
         :::::::::::::::::::::::::::::::::::::::::::::::::::::
         :: total free energy        -112.577984164990 Eh   ::
         ::.................................................::
         :: total energy             -113.088894330599 Eh   ::
         :: zero point energy           0.577534355302 Eh   ::
         :: G(RRHO) w/o ZPVE           -0.066624189693 Eh   ::
         :: G(RRHO) contrib.            0.510910165609 Eh   ::
         :::::::::::::::::::::::::::::::::::::::::::::::::::::

           -------------------------------------------------
          | TOTAL ENERGY             -113.088894330599 Eh   |
          | TOTAL ENTHALPY           -112.472917411698 Eh   |
          | TOTAL FREE ENERGY        -112.577984164990 Eh   |
          | GRADIENT NORM               0.000039657408 Eh/α |
           -------------------------------------------------

 * finished run on 2025/09/09 at 05:11:05.522
