   * xtb version 6.7.1 (edcfbbe) compiled by 'albert@albert-system' on 2024-07-22

   ID    Z sym.   atoms
    1    7 N      1, 21
    2    6 C      2-20, 22-45
    3    1 H      46-75

          program call               : xtb data2507/gas/TPB-AC/TPB-AC.xyz --gfn 2 --ohess vtight --parallel 40 --molden --ceasefiles --namespace data2507/gas/TPB-AC/TPB-AC_gas_S0_preOpt
          :  Hamiltonian                  GFN2-xTB          :
 * total energy  :  -113.1503470 Eh     change       -0.3531568E-08 Eh
 * total energy  :  -113.1622231 Eh     change       -0.1187609E-01 Eh
 * total energy  :  -113.1662828 Eh     change       -0.4059649E-02 Eh
 * total energy  :  -113.1678794 Eh     change       -0.1596629E-02 Eh
 * total energy  :  -113.1689171 Eh     change       -0.1037717E-02 Eh
 * total energy  :  -113.1694516 Eh     change       -0.5344562E-03 Eh
 * total energy  :  -113.1697796 Eh     change       -0.3279817E-03 Eh
 * total energy  :  -113.1703622 Eh     change       -0.5826845E-03 Eh
 * total energy  :  -113.1710153 Eh     change       -0.6530361E-03 Eh
 * total energy  :  -113.1714888 Eh     change       -0.4735127E-03 Eh
 * total energy  :  -113.1738584 Eh     change       -0.1955289E-05 Eh
 * total energy  :  -113.1738599 Eh     change       -0.1515012E-05 Eh
 * total energy  :  -113.1738612 Eh     change       -0.1285720E-05 Eh
 * total energy  :  -113.1738623 Eh     change       -0.1055623E-05 Eh
 * total energy  :  -113.1738632 Eh     change       -0.9025762E-06 Eh
 * total energy  :  -113.1738640 Eh     change       -0.8615018E-06 Eh
 * total energy  :  -113.1738649 Eh     change       -0.8969586E-06 Eh
 * total energy  :  -113.1738658 Eh     change       -0.8403117E-06 Eh
 * total energy  :  -113.1738658 Eh     change       -0.6023882E-08 Eh
   *** GEOMETRY OPTIMIZATION CONVERGED AFTER 68 ITERATIONS ***

 final structure:
================
75
 xtb: 6.7.1 (edcfbbe)
N          -10.54227698958883        1.27896987886718       -0.18533012734748
C           -9.40548767522996        1.12859795346760       -0.16442314282720
C           -8.00535152211928        0.94383594536125       -0.14234337598753
C           -7.38466029445673        0.42820313048107        0.99691818956755
C           -6.01926440932793        0.24086880072157        1.00853131847890
C           -5.24672344518553        0.56123835622507       -0.10788888218992
C           -3.78822337997478        0.37084977462166       -0.09408285059943
C           -2.96497552772072        1.42190722889229       -0.47969060881344
C           -1.58055595077859        1.32597326559773       -0.43892952770154
C           -0.76589336932717        2.49723360469706       -0.80535819594777
C            0.24113459247836        2.95610402244000        0.03974997741939
C            0.99560477833962        4.06086946632354       -0.30599920284732
C            0.75671489139966        4.72323079498940       -1.49884405959468
C           -0.24911565145092        4.28047124140818       -2.34068000142837
C           -1.00870796302576        3.17796641824311       -1.99456072689387
C           -0.99576798109483        0.12662617085262       -0.00973549047261
C            0.46425014763313       -0.05422142245707        0.00714091207349
C            1.10349021154039       -0.54097309734179        1.14431526803870
C            2.47326674337840       -0.69815927766931        1.17447252878042
C            3.24430793505444       -0.38118800846460        0.05615578609228
N            4.63456505473791       -0.52582532762119        0.08971019671908
C            5.33832107711108       -0.19083926449753        1.25194947122575
C            4.93868533126086        0.89664257152714        2.02878413596193
C            5.63154050910815        1.22310530185496        3.17805224374967
C            6.73454622551018        0.48102315814729        3.56754752409748
C            7.13801451468223       -0.59749032710701        2.79743274486129
C            6.44659611818467       -0.93740225238240        1.65098797997899
C            5.31734741868308       -0.99086351013862       -1.03934673130519
C            4.74902997252635       -1.97121877998571       -1.85268624216654
C            5.42422792923108       -2.42811861223140       -2.96751890782722
C            6.67504309158705       -1.92526688950612       -3.28606387689212
C            7.24517152501880       -0.95352337422634       -2.48005720880855
C            6.57434903564974       -0.48374942415267       -1.36782793823462
C            2.60442637202719        0.08396630770818       -1.09321702331049
C            1.23598173242014        0.24568918313935       -1.11327474042571
C           -1.81939121605884       -0.92344397892403        0.37554816811330
C           -3.20436026943550       -0.82803478706357        0.33691727348161
C           -4.01836844078445       -2.00036222970732        0.70084585088520
C           -5.02455809327224       -2.45942825227212       -0.14522887094910
C           -5.77961377980080       -3.56444016375950        0.19925889372929
C           -5.54193247473521       -4.22642005733405        1.39249095253471
C           -4.53657581424677       -3.78379398774998        2.23533024250835
C           -3.77622068444560       -2.68163159432522        1.89022108304816
C           -5.87395673051179        1.09208259649094       -1.23440824051130
C           -7.24003774651562        1.27933026182585       -1.25992387867865
H           -7.98047364231131        0.17986542821804        1.86285221624741
H           -5.53934579958607       -0.14926222512866        1.89341344755265
H           -3.41511239377750        2.35894299081592       -0.77674642079794
H            0.42215815242783        2.44854330792805        0.97588750746587
H            1.77328789696256        4.40870202673012        0.35829404443828
H            1.35074602065375        5.58344714997837       -1.76983073079991
H           -0.44173899940252        4.79510191136723       -3.27090819402564
H           -1.78502012177713        2.82594312435665       -2.65936301700216
H            0.51919569099730       -0.78227040087902        2.02084747569175
H            2.95823604061330       -1.06818310767466        2.06604653851212
H            4.08546780518834        1.48322354677991        1.72025900711989
H            5.31314828945249        2.06934634971524        3.76913870330231
H            7.27583598569097        0.74147296274857        4.46434186599444
H            7.99370395298829       -1.18505371941397        3.09617453730340
H            6.75745486480277       -1.78487479456632        1.05766119195382
H            3.77823528676066       -2.37264274185321       -1.60089301641722
H            4.97355124329165       -3.18959661139551       -3.58705377114840
H            7.20142548916887       -2.28777479403730       -4.15586627716089
H            8.21742633494319       -0.55099986363762       -2.72379078004600
H            7.01726967856318        0.28150121078475       -0.74728170767563
H            3.19145991461413        0.32578805888054       -1.96690738424776
H            0.75551581462855        0.60824962813046       -2.00984639391323
H           -1.36811005207537       -1.85857171481510        0.67615196895961
H           -5.20433408540808       -1.95341618399543       -1.08282586588501
H           -6.55659923784388       -3.91136648119670       -0.46608955261645
H           -6.13641188473133       -5.08641975432930        1.66277791698866
H           -4.34502135085779       -4.29851869020233        3.16567775348589
H           -2.99968764472171       -2.32982997440667        2.55474144722001
H           -5.28215288201193        1.33937702486495       -2.10387321416186
H           -7.72470616571053        1.68088652129851       -2.13793018590900

          :  Hamiltonian                  GFN2-xTB          :
         :: gradient norm              0.000083650712 Eh/a0 ::
         :: HOMO-LUMO gap              2.024216165198 eV    ::
         :: SCC energy              -115.401731307621 Eh    ::
         :: -> dispersion             -0.104529816863 Eh    ::
         :: repulsion energy           2.227865542294 Eh    ::

    * Orbital Energies and Occupations

         #    Occupation            Energy/Eh            Energy/eV
      -------------------------------------------------------------
         1        2.0000           -0.6670661             -18.1518
       ...           ...                  ...                  ...
        94        2.0000           -0.4138065             -11.2602
        95        2.0000           -0.4129850             -11.2379
        96        2.0000           -0.4123197             -11.2198
        97        2.0000           -0.4109962             -11.1838
        98        2.0000           -0.4090174             -11.1299
        99        2.0000           -0.4088799             -11.1262
       100        2.0000           -0.4075847             -11.0909
       101        2.0000           -0.4063966             -11.0586
       102        2.0000           -0.4056803             -11.0391
       103        2.0000           -0.4020784             -10.9411
       104        2.0000           -0.3984512             -10.8424
       105        2.0000           -0.3820490             -10.3961
       106        2.0000           -0.3506896              -9.5428 (HOMO)
       107                         -0.2763011              -7.5185 (LUMO)
       108                         -0.2551150              -6.9420
       109                         -0.2435426              -6.6271
       110                         -0.2412079              -6.5636
       111                         -0.2318016              -6.3076
       112                         -0.2305122              -6.2726
       113                         -0.2278296              -6.1996
       114                         -0.2269058              -6.1744
       115                         -0.2264760              -6.1627
       116                         -0.2231278              -6.0716
       117                         -0.2229440              -6.0666
       ...                                ...                  ...
       210                          1.1741904              31.9513
      -------------------------------------------------------------
                  HL-Gap            0.0743885 Eh            2.0242 eV

     #   Z          covCN         q      C6AA      α(0)
     1   7 N        0.911    -0.238    26.220     7.406
     2   6 C        1.912     0.111    28.352     8.599
     3   6 C        2.974     0.016    27.643     8.624
     4   6 C        2.925    -0.021    28.519     8.758
     5   6 C        2.923    -0.028    28.709     8.787
     6   6 C        2.977     0.022    27.503     8.602
     7   6 C        2.979     0.000    28.012     8.682
     8   6 C        2.930    -0.040    28.991     8.830
     9   6 C        2.978     0.004    27.934     8.670
    10   6 C        2.978     0.013    27.722     8.637
    11   6 C        2.925    -0.031    28.772     8.796
    12   6 C        2.919    -0.029    28.721     8.788
    13   6 C        2.920    -0.031    28.764     8.795
    14   6 C        2.919    -0.030    28.738     8.791
    15   6 C        2.925    -0.034    28.849     8.808
    16   6 C        2.978     0.006    27.872     8.660
    17   6 C        2.977     0.004    27.930     8.669
    18   6 C        2.924    -0.034    28.857     8.809
    19   6 C        2.921    -0.048    29.202     8.862
    20   6 C        2.925     0.064    26.558     8.451
    21   7 N        2.752    -0.076    22.709     7.078
    22   6 C        2.924     0.065    26.542     8.449
    23   6 C        2.922    -0.048    29.183     8.859
    24   6 C        2.919    -0.029    28.731     8.790
    25   6 C        2.919    -0.038    28.956     8.824
    26   6 C        2.920    -0.029    28.729     8.790
    27   6 C        2.922    -0.048    29.181     8.859
    28   6 C        2.924     0.065    26.545     8.449
    29   6 C        2.923    -0.048    29.190     8.860
    30   6 C        2.920    -0.029    28.730     8.790
    31   6 C        2.919    -0.038    28.957     8.824
    32   6 C        2.920    -0.029    28.730     8.790
    33   6 C        2.922    -0.048    29.187     8.860
    34   6 C        2.921    -0.048    29.181     8.859
    35   6 C        2.924    -0.031    28.778     8.797
    36   6 C        2.930    -0.041    29.006     8.833
    37   6 C        2.978     0.004    27.925     8.668
    38   6 C        2.978     0.012    27.749     8.641
    39   6 C        2.925    -0.032    28.795     8.800
    40   6 C        2.919    -0.029    28.724     8.789
    41   6 C        2.920    -0.030    28.756     8.794
    42   6 C        2.919    -0.029    28.733     8.790
    43   6 C        2.925    -0.034    28.853     8.809
    44   6 C        2.924    -0.032    28.790     8.799
    45   6 C        2.925    -0.021    28.533     8.760
    46   1 H        0.926     0.040     2.442     2.444
    47   1 H        0.926     0.038     2.480     2.463
    48   1 H        0.926     0.034     2.531     2.488
    49   1 H        0.926     0.028     2.610     2.526
    50   1 H        0.926     0.029     2.594     2.519
    51   1 H        0.926     0.031     2.578     2.511
    52   1 H        0.926     0.030     2.580     2.512
    53   1 H        0.926     0.029     2.607     2.525
    54   1 H        0.926     0.031     2.565     2.505
    55   1 H        0.926     0.033     2.545     2.495
    56   1 H        0.926     0.030     2.583     2.513
    57   1 H        0.926     0.031     2.570     2.507
    58   1 H        0.926     0.030     2.581     2.513
    59   1 H        0.926     0.032     2.563     2.503
    60   1 H        0.926     0.032     2.560     2.502
    61   1 H        0.926     0.031     2.578     2.511
    62   1 H        0.926     0.031     2.568     2.506
    63   1 H        0.926     0.030     2.582     2.513
    64   1 H        0.926     0.032     2.564     2.504
    65   1 H        0.926     0.032     2.564     2.504
    66   1 H        0.926     0.033     2.545     2.495
    67   1 H        0.926     0.031     2.568     2.506
    68   1 H        0.926     0.036     2.507     2.476
    69   1 H        0.926     0.026     2.641     2.541
    70   1 H        0.926     0.031     2.574     2.509
    71   1 H        0.926     0.032     2.563     2.504
    72   1 H        0.926     0.031     2.569     2.506
    73   1 H        0.926     0.030     2.588     2.516
    74   1 H        0.926     0.038     2.476     2.461
    75   1 H        0.926     0.041     2.439     2.442

molecular dipole:
                 x           y           z       tot (Debye)
 q only:        1.655      -0.237       0.049
   full:        2.095      -0.296       0.049       5.379

 projected vibrational frequencies (cm⁻¹)
eigval :       -0.00    -0.00     0.00     0.00     0.00     0.00
eigval :       11.01    11.94    16.38    27.76    29.76    39.48
eigval :       45.95    46.75    55.34    56.93    58.79    63.18
eigval :       64.31    76.14    88.36    99.93   108.44   122.05
eigval :      133.35   140.46   148.10   185.37   199.17   206.41
eigval :      214.40   225.48   234.05   257.03   265.76   302.99
eigval :      308.34   316.37   330.41   348.93   363.75   368.18
eigval :      373.98   374.76   377.83   378.96   387.10   389.39
eigval :      413.54   437.76   469.05   471.33   481.00   490.66
eigval :      496.79   513.26   526.14   536.66   548.37   553.72
eigval :      577.72   583.61   587.05   587.87   588.68   593.45
eigval :      599.19   610.20   619.26   629.44   646.20   659.48
eigval :      664.46   669.78   675.00   685.31   692.75   695.43
eigval :      709.57   718.77   742.58   756.77   759.47   761.73
eigval :      766.74   795.04   816.60   819.54   868.65   870.03
eigval :      873.08   874.18   876.21   876.68   878.25   882.54
eigval :      891.45   892.92   893.38   903.66   904.78   910.20
eigval :      917.29   917.88   920.54   926.84   927.24   927.35
eigval :      928.60   929.16   929.94   930.12   930.65   932.25
eigval :      932.90   960.48   977.48   985.68  1002.28  1005.11
eigval :     1017.57  1040.07  1075.87  1083.39  1084.32  1084.41
eigval :     1089.01  1102.23  1121.54  1121.76  1121.97  1124.38
eigval :     1135.73  1141.33  1180.75  1180.85  1182.20  1182.50
eigval :     1186.50  1187.91  1195.39  1195.82  1199.41  1200.11
eigval :     1214.67  1226.43  1241.15  1245.12  1253.55  1266.43
eigval :     1266.85  1270.90  1278.87  1281.91  1282.60  1283.08
eigval :     1308.02  1313.62  1314.12  1318.45  1318.76  1322.36
eigval :     1323.90  1326.27  1327.84  1354.27  1387.59  1399.97
eigval :     1412.73  1430.17  1433.59  1436.59  1443.52  1456.06
eigval :     1472.53  1477.17  1479.37  1486.47  1491.46  1508.82
eigval :     1534.18  1551.06  1558.57  1577.13  1577.92  1581.36
eigval :     1582.33  1583.61  1591.77  1595.35  1596.98  1600.61
eigval :     1601.30  1603.26  2372.69  3069.07  3070.51  3073.24
eigval :     3073.40  3074.11  3074.20  3075.17  3075.77  3076.53
eigval :     3077.21  3077.71  3079.24  3080.15  3080.42  3082.00
eigval :     3085.31  3085.50  3086.12  3086.31  3086.54  3087.94
eigval :     3088.72  3089.55  3091.13  3093.25  3093.94  3094.30
eigval :     3097.33  3097.81  3097.85

   temp. (K)  partition function   enthalpy   heat capacity  entropy
                                   cal/mol     cal/K/mol   cal/K/mol   J/K/mol
 298.15  VIB  0.325E+18            21615.860    133.842    136.785
         ROT  0.780E+08              888.752      2.981     39.093
         INT  0.254E+26            22504.612    136.823    175.878
         TR   0.133E+29             1481.254      4.968     44.910
         TOT                       23985.8658   141.7911   220.7885   923.7790

       T/K    H(0)-H(T)+PV         H(T)/Eh          T*S/Eh         G(T)/Eh
   ------------------------------------------------------------------------
    298.15    0.382239E-01    0.619338E+00    0.104904E+00    0.514434E+00
   ------------------------------------------------------------------------

         :::::::::::::::::::::::::::::::::::::::::::::::::::::
         ::                  THERMODYNAMIC                  ::
         :::::::::::::::::::::::::::::::::::::::::::::::::::::
         :: total free energy        -112.659431815113 Eh   ::
         ::.................................................::
         :: total energy             -113.173865765328 Eh   ::
         :: zero point energy           0.581113766704 Eh   ::
         :: G(RRHO) w/o ZPVE           -0.066679816489 Eh   ::
         :: G(RRHO) contrib.            0.514433950215 Eh   ::
         :::::::::::::::::::::::::::::::::::::::::::::::::::::

           -------------------------------------------------
          | TOTAL ENERGY             -113.173865765328 Eh   |
          | TOTAL ENTHALPY           -112.554528088435 Eh   |
          | TOTAL FREE ENERGY        -112.659431815113 Eh   |
          | GRADIENT NORM               0.000083703332 Eh/α |
          | HOMO-LUMO GAP               2.024215443697 eV   |
           -------------------------------------------------

 * finished run on 2025/09/09 at 05:05:57.934
