   * xtb version 6.7.1 (edcfbbe) compiled by 'albert@albert-system' on 2024-07-22

   ID    Z sym.   atoms
    1    7 N      1, 21
    2    6 C      2-20, 22-45
    3    1 H      46-75

          program call               : xtb data2507/gas/TPB-AC/TPB-AC_gas_S0_crest.xyz --gfn 2 --ohess vtight --parallel 40 --molden --ceasefiles --namespace data2507/gas/TPB-AC/TPB-AC_gas_S0_finalOpt
          :  Hamiltonian                  GFN2-xTB          :
 * total energy  :  -113.1748266 Eh     change       -0.2584926E-08 Eh
 * total energy  :  -113.1748264 Eh     change        0.1581396E-06 Eh
 * total energy  :  -113.1748280 Eh     change       -0.1551652E-05 Eh
 * total energy  :  -113.1748292 Eh     change       -0.1202324E-05 Eh
 * total energy  :  -113.1748311 Eh     change       -0.1947975E-05 Eh
 * total energy  :  -113.1748341 Eh     change       -0.2980069E-05 Eh
 * total energy  :  -113.1748360 Eh     change       -0.1956052E-05 Eh
 * total energy  :  -113.1748369 Eh     change       -0.8542664E-06 Eh
 * total energy  :  -113.1748377 Eh     change       -0.7677812E-06 Eh
 * total energy  :  -113.1748390 Eh     change       -0.1381321E-05 Eh
 * total energy  :  -113.1748429 Eh     change       -0.6501860E-06 Eh
 * total energy  :  -113.1748435 Eh     change       -0.6079197E-06 Eh
 * total energy  :  -113.1748440 Eh     change       -0.4274486E-06 Eh
 * total energy  :  -113.1748444 Eh     change       -0.4191481E-06 Eh
 * total energy  :  -113.1748449 Eh     change       -0.4837362E-06 Eh
 * total energy  :  -113.1748455 Eh     change       -0.6544628E-06 Eh
 * total energy  :  -113.1748461 Eh     change       -0.6203778E-06 Eh
 * total energy  :  -113.1748466 Eh     change       -0.4948958E-06 Eh
 * total energy  :  -113.1748466 Eh     change       -0.2922491E-08 Eh
   *** GEOMETRY OPTIMIZATION CONVERGED AFTER 22 ITERATIONS ***

 final structure:
================
75
 xtb: 6.7.1 (edcfbbe)
N          -10.22261582193655        1.35270475545883        0.10705632556937
C           -9.08930936855892        1.17763781931822        0.08843206880616
C           -7.69332402538302        0.96418614832092        0.06262403007806
C           -7.09278992283408        0.13920387928580        1.01544722439281
C           -5.73117881127345       -0.07137528435740        0.97951208441344
C           -4.94259919965978        0.53161665533238       -0.00056681159253
C           -3.48787517748174        0.31566366463835       -0.03348691255731
C           -2.64195901898625        1.41558434538971       -0.11301290967889
C           -1.26055119042830        1.28336632488557       -0.10101013580150
C           -0.41551058853811        2.48353770993948       -0.23275211165826
C           -0.62925564845103        3.58819956710706        0.58594606060134
C            0.17055639969235        4.71092237122966        0.47328902332619
C            1.18771419177468        4.74887369792084       -0.46489698866326
C            1.39475226946561        3.66160888790503       -1.29778404037548
C            0.59986288246982        2.53711390030422       -1.18451432948486
C           -0.70232376269358        0.00153556578886        0.00770424064253
C            0.75444220063001       -0.18592060325357        0.07478474796514
C            1.52697298709047        0.55976914385926        0.96336838777232
C            2.89730377154866        0.42734598008650        0.99014869407325
C            3.54146797238333       -0.44746059687687        0.11356329613337
N            4.93618905948043       -0.52829484106856        0.09641047731434
C            5.69746778357354        0.63311344046745        0.27344103897223
C            5.25630621489560        1.85332478908371       -0.23945340798816
C            6.00805959990495        2.99729557748952       -0.05698094326062
C            7.21158608005270        2.94566789949751        0.62706763095904
C            7.65609138611362        1.73595172466326        1.13480747494107
C            6.90683664311628        0.58778778716671        0.96643982625434
C            5.56686179625455       -1.75713055492475       -0.12791870605454
C            5.03521791976952       -2.93000129458711        0.40793468953105
C            5.65680139271613       -4.14260951496114        0.18240700580977
C            6.81806001270059       -4.20715493058850       -0.57007406292013
C            7.35206743546523       -3.04479678201817       -1.10184751483736
C            6.73305898362025       -1.82846772721151       -0.88948549686544
C            2.76869382425173       -1.22398354601360       -0.74971092254567
C            1.39485257702127       -1.09897567329034       -0.75852696993892
C           -1.54790868591759       -1.09821803623705        0.06759828904986
C           -2.93044553271964       -0.96775866694373        0.04364167893677
C           -3.77020305607413       -2.17771377800693        0.06465289000972
C           -4.77705427792406       -2.36295819566745       -0.87925521422073
C           -5.55835967798136       -3.50267249318052       -0.85557252920096
C           -5.34659756924524       -4.47283880751041        0.11008451125128
C           -4.34062543895688       -4.30253577950427        1.04607489970580
C           -3.55399768654257       -3.16555714465314        1.02122891229055
C           -5.54954256477082        1.36687885714781       -0.93780171159405
C           -6.91172960185922        1.58128033446018       -0.91493117886661
H           -7.70093372083079       -0.32842821870985        1.77570877519169
H           -5.26663938113872       -0.70212345777242        1.72247143104607
H           -3.07215837676852        2.40503747761201       -0.18219196954993
H           -1.41345792105709        3.55496099604398        1.32929992644306
H            0.00113095700867        5.55800610595300        1.12211841388322
H            1.81457690603778        5.62422158786422       -0.54937967991651
H            2.17914589500881        3.69140305253161       -2.04029804814725
H            0.75803036913677        1.69457088386336       -1.84184687853383
H            1.04404896087332        1.24122587103545        1.64774162817126
H            3.48402751583005        1.00933301345824        1.68536998546625
H            4.32187174534837        1.89723503371277       -0.77974611419945
H            5.65419925821329        3.93509522830916       -0.45951089969693
H            7.79829399039063        3.84124804193039        0.76415390375578
H            8.59018996923646        1.68656962072531        1.67491852526766
H            7.25094723906967       -0.35181186826508        1.37342926723171
H            4.13561123865953       -2.88055211602834        1.00398749386110
H            5.23565395850101       -5.04300202133508        0.60514999734726
H            7.30320456719969       -5.15609055611202       -0.74093555561202
H            8.25398167581122       -3.08596906104989       -1.69475771493901
H            7.14604495057783       -0.92524364300854       -1.31431692745580
H            3.25474535563480       -1.91190942090951       -1.42598082333379
H            0.81048072841969       -1.68683818295085       -1.45198333553377
H           -1.11658851352110       -2.08708028130801        0.13491702342333
H           -4.93714237754231       -1.61402736368715       -1.64149996984021
H           -6.33585980820237       -3.63501937697053       -1.59363417594358
H           -5.96192864628280       -5.35997892667834        0.13100266038473
H           -4.16930079507826       -5.05756499790957        1.79958305866612
H           -2.77733268905264       -3.02777948295154        1.76031176967419
H           -4.94542603566651        1.83389344875812       -1.70226817330613
H           -7.38079230849626        2.22073306345465       -1.64850744659598

          :  Hamiltonian                  GFN2-xTB          :
         :: gradient norm              0.000111226646 Eh/a0 ::
         :: HOMO-LUMO gap              2.021937305642 eV    ::
         :: SCC energy              -115.402531754262 Eh    ::
         :: -> dispersion             -0.105599750097 Eh    ::
         :: repulsion energy           2.227685112337 Eh    ::

    * Orbital Energies and Occupations

         #    Occupation            Energy/Eh            Energy/eV
      -------------------------------------------------------------
         1        2.0000           -0.6669821             -18.1495
       ...           ...                  ...                  ...
        94        2.0000           -0.4172126             -11.3529
        95        2.0000           -0.4163740             -11.3301
        96        2.0000           -0.4116976             -11.2029
        97        2.0000           -0.4095648             -11.1448
        98        2.0000           -0.4092545             -11.1364
        99        2.0000           -0.4083392             -11.1115
       100        2.0000           -0.4070510             -11.0764
       101        2.0000           -0.4063714             -11.0579
       102        2.0000           -0.4058098             -11.0426
       103        2.0000           -0.3985539             -10.8452
       104        2.0000           -0.3977548             -10.8235
       105        2.0000           -0.3831561             -10.4262
       106        2.0000           -0.3505703              -9.5395 (HOMO)
       107                         -0.2762654              -7.5176 (LUMO)
       108                         -0.2545304              -6.9261
       109                         -0.2431187              -6.6156
       110                         -0.2409932              -6.5578
       111                         -0.2320052              -6.3132
       112                         -0.2306467              -6.2762
       113                         -0.2275338              -6.1915
       114                         -0.2269635              -6.1760
       115                         -0.2265362              -6.1644
       116                         -0.2233820              -6.0785
       117                         -0.2223837              -6.0514
       ...                                ...                  ...
       210                          1.1742216              31.9522
      -------------------------------------------------------------
                  HL-Gap            0.0743048 Eh            2.0219 eV

     #   Z          covCN         q      C6AA      α(0)
     1   7 N        0.911    -0.238    26.223     7.406
     2   6 C        1.912     0.111    28.353     8.599
     3   6 C        2.974     0.016    27.644     8.624
     4   6 C        2.925    -0.021    28.521     8.758
     5   6 C        2.923    -0.028    28.712     8.787
     6   6 C        2.977     0.022    27.503     8.603
     7   6 C        2.979     0.000    28.017     8.682
     8   6 C        2.930    -0.040    28.993     8.830
     9   6 C        2.979     0.003    27.941     8.671
    10   6 C        2.978     0.013    27.719     8.636
    11   6 C        2.925    -0.034    28.851     8.808
    12   6 C        2.919    -0.029    28.737     8.791
    13   6 C        2.920    -0.031    28.762     8.795
    14   6 C        2.919    -0.029    28.720     8.788
    15   6 C        2.925    -0.031    28.776     8.797
    16   6 C        2.978     0.006    27.875     8.660
    17   6 C        2.977     0.003    27.943     8.671
    18   6 C        2.924    -0.031    28.780     8.798
    19   6 C        2.921    -0.048    29.189     8.860
    20   6 C        2.925     0.064    26.561     8.452
    21   7 N        2.752    -0.075    22.692     7.075
    22   6 C        2.925     0.065    26.546     8.449
    23   6 C        2.922    -0.048    29.180     8.858
    24   6 C        2.920    -0.029    28.725     8.789
    25   6 C        2.919    -0.038    28.955     8.824
    26   6 C        2.920    -0.029    28.731     8.790
    27   6 C        2.922    -0.048    29.183     8.859
    28   6 C        2.923     0.065    26.544     8.449
    29   6 C        2.923    -0.048    29.185     8.859
    30   6 C        2.920    -0.029    28.731     8.790
    31   6 C        2.919    -0.038    28.954     8.824
    32   6 C        2.920    -0.029    28.728     8.789
    33   6 C        2.922    -0.048    29.182     8.859
    34   6 C        2.921    -0.049    29.217     8.864
    35   6 C        2.924    -0.035    28.861     8.810
    36   6 C        2.930    -0.041    29.012     8.833
    37   6 C        2.978     0.004    27.929     8.669
    38   6 C        2.978     0.012    27.750     8.641
    39   6 C        2.925    -0.032    28.798     8.800
    40   6 C        2.919    -0.029    28.726     8.789
    41   6 C        2.920    -0.030    28.758     8.794
    42   6 C        2.919    -0.029    28.733     8.790
    43   6 C        2.925    -0.034    28.858     8.810
    44   6 C        2.924    -0.032    28.794     8.800
    45   6 C        2.925    -0.021    28.532     8.760
    46   1 H        0.926     0.040     2.443     2.444
    47   1 H        0.926     0.038     2.480     2.463
    48   1 H        0.926     0.034     2.531     2.488
    49   1 H        0.926     0.029     2.597     2.520
    50   1 H        0.926     0.030     2.580     2.512
    51   1 H        0.926     0.030     2.584     2.514
    52   1 H        0.926     0.029     2.605     2.524
    53   1 H        0.926     0.028     2.613     2.528
    54   1 H        0.926     0.031     2.570     2.507
    55   1 H        0.926     0.033     2.548     2.496
    56   1 H        0.926     0.031     2.573     2.508
    57   1 H        0.926     0.031     2.571     2.507
    58   1 H        0.926     0.030     2.581     2.512
    59   1 H        0.926     0.032     2.562     2.503
    60   1 H        0.926     0.032     2.560     2.502
    61   1 H        0.926     0.031     2.572     2.508
    62   1 H        0.926     0.031     2.566     2.505
    63   1 H        0.926     0.030     2.580     2.512
    64   1 H        0.926     0.032     2.562     2.503
    65   1 H        0.926     0.032     2.561     2.502
    66   1 H        0.926     0.033     2.545     2.495
    67   1 H        0.926     0.032     2.554     2.499
    68   1 H        0.926     0.036     2.504     2.474
    69   1 H        0.926     0.026     2.641     2.541
    70   1 H        0.926     0.031     2.576     2.510
    71   1 H        0.926     0.032     2.564     2.504
    72   1 H        0.926     0.031     2.570     2.507
    73   1 H        0.926     0.030     2.580     2.512
    74   1 H        0.926     0.039     2.467     2.456
    75   1 H        0.926     0.041     2.439     2.442

molecular dipole:
                 x           y           z       tot (Debye)
 q only:        1.680      -0.275      -0.007
   full:        2.114      -0.341      -0.020       5.443

 projected vibrational frequencies (cm⁻¹)
eigval :       -0.00    -0.00    -0.00    -0.00    -0.00     0.00
eigval :       11.36    13.50    14.19    29.48    31.03    39.91
eigval :       43.57    47.14    55.40    56.37    59.03    63.92
eigval :       67.91    77.15    90.65    99.91   107.84   121.59
eigval :      134.72   141.58   146.65   190.83   198.67   206.43
eigval :      216.53   232.34   234.20   258.98   265.70   292.38
eigval :      306.74   314.91   335.07   347.46   366.32   369.54
eigval :      374.70   374.86   378.03   380.99   388.82   391.61
eigval :      419.45   435.44   464.60   479.55   481.41   489.43
eigval :      496.89   508.76   526.78   535.64   550.66   553.74
eigval :      576.71   584.92   586.80   587.35   589.64   592.78
eigval :      599.27   611.17   615.34   629.84   647.66   659.79
eigval :      664.75   668.53   677.32   682.91   690.38   701.59
eigval :      708.86   718.28   743.02   756.86   761.01   762.31
eigval :      765.51   795.08   817.96   818.82   868.28   869.55
eigval :      872.49   874.29   876.44   877.63   879.01   882.86
eigval :      891.86   892.54   893.54   904.76   905.18   910.40
eigval :      918.20   918.54   920.46   927.09   927.50   928.03
eigval :      928.74   929.86   930.34   930.99   931.08   932.87
eigval :      933.04   960.43   977.35   985.68  1002.15  1005.02
eigval :     1017.52  1040.04  1075.90  1083.47  1084.37  1084.63
eigval :     1089.00  1101.30  1121.58  1121.96  1122.27  1124.93
eigval :     1135.89  1142.36  1180.56  1180.78  1182.21  1182.54
eigval :     1187.24  1188.07  1195.79  1196.56  1199.68  1200.57
eigval :     1215.04  1226.79  1240.66  1244.75  1253.41  1265.95
eigval :     1267.01  1271.44  1279.01  1282.05  1282.88  1283.41
eigval :     1308.07  1313.43  1313.84  1318.06  1318.45  1320.97
eigval :     1324.72  1326.86  1328.06  1354.88  1387.89  1400.07
eigval :     1413.91  1429.59  1433.84  1436.59  1443.43  1455.75
eigval :     1472.40  1476.94  1479.33  1486.37  1491.73  1508.41
eigval :     1533.37  1551.00  1558.07  1577.17  1578.17  1581.29
eigval :     1582.35  1583.38  1591.62  1595.29  1596.53  1600.46
eigval :     1601.00  1603.05  2372.57  3069.15  3070.47  3071.63
eigval :     3073.65  3073.79  3074.02  3075.73  3076.00  3076.69
eigval :     3077.31  3077.67  3079.19  3079.73  3080.23  3082.38
eigval :     3085.30  3085.60  3085.89  3086.01  3086.52  3088.34
eigval :     3089.16  3089.75  3091.03  3092.42  3094.11  3094.40
eigval :     3097.40  3097.47  3097.89

   temp. (K)  partition function   enthalpy   heat capacity  entropy
                                   cal/mol     cal/K/mol   cal/K/mol   J/K/mol
 298.15  VIB  0.267E+18            21587.064    133.846    136.470
         ROT  0.769E+08              888.752      2.981     39.066
         INT  0.205E+26            22475.816    136.827    175.536
         TR   0.133E+29             1481.254      4.968     44.910
         TOT                       23957.0701   141.7948   220.4461   922.3466

       T/K    H(0)-H(T)+PV         H(T)/Eh          T*S/Eh         G(T)/Eh
   ------------------------------------------------------------------------
    298.15    0.381780E-01    0.619385E+00    0.104741E+00    0.514644E+00
   ------------------------------------------------------------------------

         :::::::::::::::::::::::::::::::::::::::::::::::::::::
         ::                  THERMODYNAMIC                  ::
         :::::::::::::::::::::::::::::::::::::::::::::::::::::
         :: total free energy        -112.660202572266 Eh   ::
         ::.................................................::
         :: total energy             -113.174846641930 Eh   ::
         :: zero point energy           0.581207120527 Eh   ::
         :: G(RRHO) w/o ZPVE           -0.066563050864 Eh   ::
         :: G(RRHO) contrib.            0.514644069663 Eh   ::
         :::::::::::::::::::::::::::::::::::::::::::::::::::::

           -------------------------------------------------
          | TOTAL ENERGY             -113.174846641930 Eh   |
          | TOTAL ENTHALPY           -112.555461500008 Eh   |
          | TOTAL FREE ENERGY        -112.660202572266 Eh   |
          | GRADIENT NORM               0.000111099854 Eh/α |
          | HOMO-LUMO GAP               2.021937372452 eV   |
           -------------------------------------------------

 * finished run on 2025/09/09 at 05:10:52.187
