   * xtb version 6.7.1 (edcfbbe) compiled by 'albert@albert-system' on 2024-07-22

   ID    Z sym.   atoms
    1    7 N      1, 21
    2    6 C      2-20, 22-45
    3    1 H      46-75

          program call               : xtb data2507/gas/TPB-AC/TPB-AC_gas_T1_crest.xyz --gfn 2 --spinpol --tblite --uhf 2 --ohess vtight --parallel 40 --molden --ceasefiles --namespace data2507/gas/TPB-AC/TPB-AC_gas_T1_finalOpt
 * total energy  :  -113.0898442 Eh     change       -0.6913822E-08 Eh
 * total energy  :  -113.0898531 Eh     change       -0.8944320E-05 Eh
 * total energy  :  -113.0898526 Eh     change        0.4712204E-06 Eh
 * total energy  :  -113.0898569 Eh     change       -0.4279156E-05 Eh
 * total energy  :  -113.0898575 Eh     change       -0.6272941E-06 Eh
 * total energy  :  -113.0898582 Eh     change       -0.6950411E-06 Eh
 * total energy  :  -113.0898594 Eh     change       -0.1189078E-05 Eh
 * total energy  :  -113.0898599 Eh     change       -0.4644897E-06 Eh
 * total energy  :  -113.0898602 Eh     change       -0.3271342E-06 Eh
 * total energy  :  -113.0898606 Eh     change       -0.3429261E-06 Eh
 * total energy  :  -113.0898608 Eh     change       -0.2437762E-06 Eh
 * total energy  :  -113.0898608 Eh     change       -0.1819663E-07 Eh
   *** GEOMETRY OPTIMIZATION CONVERGED AFTER 12 ITERATIONS ***

 final structure:
================
75
 xtb: 6.7.1 (edcfbbe)
N          -10.25200690678374        1.20682330845518        0.20528350043722
C           -9.11063874222818        1.06121285833571        0.16961004793204
C           -7.72103833989225        0.88468978778451        0.12248525462186
C           -7.10452482184831       -0.13483337451724        0.86786617988125
C           -5.74921211070246       -0.31510583914299        0.80592186762900
C           -4.93059980873209        0.51490051419548        0.00390559610066
C           -3.51316167616077        0.32362068393229       -0.07924353492907
C           -2.65652332622764        1.43268776710933       -0.17964660652980
C           -1.29099373049088        1.34252678175113       -0.06014092624247
C           -0.50407358732090        2.56129272315104        0.09259223473578
C            0.51125410840285        2.64359499451996        1.05383639941279
C            1.25524304699988        3.79700582412500        1.19585800286493
C            1.00805268477104        4.89429753569441        0.38596881951188
C           -0.00562842614844        4.83315177524825       -0.55870878791854
C           -0.75814411701032        3.68503157243430       -0.69977672333392
C           -0.67280526183601        0.03554399057029        0.06671361765631
C            0.73478285089321       -0.14649250104683       -0.03270318705391
C            1.55411126108756        0.72536441871816       -0.80042104036847
C            2.91233894127669        0.59392198334672       -0.82717950942882
C            3.55361064339125       -0.42033511286105       -0.09329301861424
N            4.93753100030850       -0.51380375534614       -0.07322417386547
C            5.71469593113696        0.64803467677316       -0.11536560220794
C            6.92470779650045        0.66444870440790       -0.81163057959535
C            7.68693516356319        1.81498949427165       -0.84967924373094
C            7.25730217690207        2.96377859786025       -0.20387475334530
C            6.05509650063492        2.95303533296670        0.48632485578696
C            5.28730927450838        1.80710051047076        0.53613130529870
C            5.55763672599140       -1.76528182048435       -0.00197500990385
C            6.71404934438233       -1.94017944251945        0.76032784398583
C            7.31805088380635       -3.17976235656819        0.82806043916606
C            6.78148246332656       -4.26066182495396        0.14572709179514
C            5.63250113159245       -4.09202056227272       -0.61106257260168
C            5.02229176037948       -2.85606188881983       -0.68959870795354
C            2.75420149693441       -1.33544405897172        0.61903802101989
C            1.39429463249615       -1.21040064500172        0.63596982185803
C           -1.53514184745692       -1.07399148619156        0.17675307509527
C           -2.89770695535868       -0.98069270255075        0.05863204486746
C           -3.68372965955809       -2.20791452097865       -0.06311275266093
C           -4.67092668968462       -2.33083035041891       -1.04570529818508
C           -5.39487708283557       -3.49889031622760       -1.17313964234629
C           -5.15397248780922       -4.56776393643843       -0.32405754295372
C           -4.17095596429872       -4.46297814216634        0.64750541990407
C           -3.43788572932281       -3.29960316973591        0.77289764876505
C           -5.56496442263249        1.55905115463684       -0.70828550197766
C           -6.92163122651865        1.73325906253548       -0.66404599566919
H           -7.71310641688930       -0.76866358375769        1.49669118587893
H           -5.28923381085423       -1.07597470696204        1.41732989445979
H           -3.10181140994309        2.41684610160664       -0.20859754968364
H            0.68980146852711        1.80340658982798        1.70876881941606
H            2.03091021192651        3.84535916921394        1.94683374451817
H            1.59583725984266        5.79367755311514        0.49358807493978
H           -0.20480419276541        5.68624483817588       -1.19113417205552
H           -1.52977741365762        3.63722728904562       -1.45461591329768
H            1.08655095362119        1.47404563190406       -1.41982705239727
H            3.50918241440706        1.25702338336141       -1.43653862049448
H            7.25304915895542       -0.22555810433557       -1.32806495439897
H            8.61909207168437        1.81751797469914       -1.39459294785398
H            7.85534389157974        3.86129323055520       -0.23851410520623
H            5.71658863671572        3.84240044036815        0.99635501783476
H            4.35729609330166        1.79557968466169        1.08486989927401
H            7.12432131786760       -1.10152120411817        1.30338974770640
H            8.20948606588193       -3.30535299781794        1.42419860202413
H            7.25616500010692       -5.22800412193798        0.20314562470594
H            5.21298388169813       -4.92769286470342       -1.15090843160680
H            4.13610345359195       -2.71963123122223       -1.29166678881600
H            3.23433060743497       -2.11787489968059        1.18892219731385
H            0.81324805686868       -1.89397939984695        1.23567929654186
H           -1.09370690030010       -2.05955580769447        0.21306791942358
H           -4.85126656138312       -1.50890073890947       -1.72284782757286
H           -6.15218137049314       -3.57844525091649       -1.93932962839107
H           -5.72735114567198       -5.47770769069786       -0.41992376036877
H           -3.97955043287347       -5.29231715294316        1.31334916593650
H           -2.68770891402362       -3.21609126495758        1.54658873369477
H           -4.97125580079376        2.20035627368893       -1.34298293330834
H           -7.39419788369115        2.51835820569867       -1.23705463152679

 projected vibrational frequencies (cm⁻¹)
eigval :       -0.00    -0.00     0.00     0.00     0.00     0.00
eigval :        9.27    12.99    15.89    29.48    31.97    41.47
eigval :       46.68    50.22    58.73    60.89    63.72    67.39
eigval :       71.28    77.74    89.41   103.62   118.67   126.11
eigval :      139.49   154.52   159.89   190.22   203.57   206.36
eigval :      215.41   232.79   237.91   256.32   269.89   284.88
eigval :      306.75   312.18   334.73   348.59   359.52   371.65
eigval :      374.78   377.13   377.72   382.62   388.49   398.51
eigval :      411.56   419.38   439.08   453.17   470.08   476.64
eigval :      485.48   499.77   511.15   524.28   534.85   550.96
eigval :      572.91   581.85   583.76   585.24   586.40   590.68
eigval :      594.29   604.25   613.15   615.40   629.16   648.64
eigval :      658.26   661.30   668.33   669.84   672.74   678.45
eigval :      691.95   707.44   735.10   753.82   756.22   758.90
eigval :      759.56   779.04   805.73   808.54   836.77   844.72
eigval :      861.77   865.15   870.22   871.21   873.54   874.97
eigval :      882.85   893.69   894.37   896.58   898.65   906.99
eigval :      908.11   910.45   910.70   917.29   918.07   927.11
eigval :      927.34   927.89   928.02   928.74   929.18   929.28
eigval :      929.91   949.59   964.39   978.10   987.78   997.82
eigval :     1001.82  1011.82  1037.07  1058.97  1080.52  1081.77
eigval :     1083.06  1083.82  1121.57  1122.49  1122.73  1124.02
eigval :     1139.12  1143.78  1159.61  1175.37  1179.53  1179.64
eigval :     1181.46  1181.52  1190.56  1192.11  1197.39  1200.42
eigval :     1218.07  1221.24  1225.47  1245.11  1251.81  1262.47
eigval :     1270.87  1271.53  1275.94  1279.84  1281.51  1283.51
eigval :     1300.86  1314.65  1317.33  1318.45  1321.25  1322.46
eigval :     1327.28  1327.47  1342.55  1350.93  1364.19  1382.00
eigval :     1421.24  1423.67  1427.14  1427.65  1432.06  1437.78
eigval :     1443.21  1453.56  1458.50  1460.37  1462.41  1464.95
eigval :     1470.94  1472.18  1480.86  1500.22  1539.86  1556.98
eigval :     1563.81  1565.51  1570.35  1575.30  1580.41  1583.22
eigval :     1587.26  1595.62  2319.48  3067.92  3068.97  3071.56
eigval :     3073.24  3074.47  3075.84  3078.04  3078.38  3079.01
eigval :     3079.83  3079.94  3080.99  3081.80  3082.09  3082.56
eigval :     3083.10  3084.91  3086.29  3087.48  3089.99  3090.85
eigval :     3092.25  3093.67  3093.76  3094.43  3095.86  3098.91
eigval :     3102.38  3102.68  3105.42

   temp. (K)  partition function   enthalpy   heat capacity  entropy
                                   cal/mol     cal/K/mol   cal/K/mol   J/K/mol
 298.15  VIB  0.172E+18            21691.882    135.776    136.590
         ROT  0.777E+08              888.752      2.981     39.086
         INT  0.133E+26            22580.635    138.757    175.675
         TR   0.133E+29             1481.254      4.968     44.910
         TOT                       24061.8887   143.7255   220.5856   922.9302

       T/K    H(0)-H(T)+PV         H(T)/Eh          T*S/Eh         G(T)/Eh
   ------------------------------------------------------------------------
    298.15    0.383451E-01    0.616103E+00    0.104807E+00    0.511295E+00
   ------------------------------------------------------------------------

         :::::::::::::::::::::::::::::::::::::::::::::::::::::
         ::                  THERMODYNAMIC                  ::
         :::::::::::::::::::::::::::::::::::::::::::::::::::::
         :: total free energy        -112.578565692914 Eh   ::
         ::.................................................::
         :: total energy             -113.089860869339 Eh   ::
         :: zero point energy           0.577757453548 Eh   ::
         :: G(RRHO) w/o ZPVE           -0.066462277122 Eh   ::
         :: G(RRHO) contrib.            0.511295176425 Eh   ::
         :::::::::::::::::::::::::::::::::::::::::::::::::::::

           -------------------------------------------------
          | TOTAL ENERGY             -113.089860869339 Eh   |
          | TOTAL ENTHALPY           -112.473758355423 Eh   |
          | TOTAL FREE ENERGY        -112.578565692914 Eh   |
          | GRADIENT NORM               0.000072801022 Eh/α |
           -------------------------------------------------

 * finished run on 2025/09/09 at 05:17:02.593
