   * xtb version 6.7.1 (edcfbbe) compiled by 'albert@albert-system' on 2024-07-22

   ID    Z sym.   atoms
    1    6 C      1-11, 13, 15-24, 26-59, 61-68
    2    7 N      12, 25
    3    8 O      14, 60
    4    1 H      69-114

          program call               : xtb data2507/toluene/NAI–PhBiFA/NAI–PhBiFA_toluene_T1_crest.xyz --gfn 2 --uhf 2 --gbsa toluene --ohess vtight --parallel 40 --molden --ceasefiles --namespace data2507/toluene/NAI–PhBiFA/NAI–PhBiFA_toluene_T1_finalOpt
      * Solvation model:               GBSA
        Solvent                        toluene
        Solvent mass                       9.2140E+01 g/mol
          :  Hamiltonian                  GFN2-xTB          :
 * total energy  :  -174.5868734 Eh     change       -0.5645774E-08 Eh
 * total energy  :  -174.5872061 Eh     change       -0.3326988E-03 Eh
 * total energy  :  -174.5873128 Eh     change       -0.1066572E-03 Eh
 * total energy  :  -174.5873331 Eh     change       -0.2027439E-04 Eh
 * total energy  :  -174.5873632 Eh     change       -0.3014811E-04 Eh
 * total energy  :  -174.5873820 Eh     change       -0.1877664E-04 Eh
 * total energy  :  -174.5874012 Eh     change       -0.1924947E-04 Eh
 * total energy  :  -174.5874155 Eh     change       -0.1421424E-04 Eh
 * total energy  :  -174.5874249 Eh     change       -0.9401966E-05 Eh
 * total energy  :  -174.5874398 Eh     change       -0.1491184E-04 Eh
 * total energy  :  -174.5876199 Eh     change       -0.7989575E-06 Eh
 * total energy  :  -174.5876207 Eh     change       -0.7612890E-06 Eh
 * total energy  :  -174.5876214 Eh     change       -0.7660776E-06 Eh
 * total energy  :  -174.5876223 Eh     change       -0.8879189E-06 Eh
 * total energy  :  -174.5876233 Eh     change       -0.9911462E-06 Eh
 * total energy  :  -174.5876242 Eh     change       -0.9090332E-06 Eh
 * total energy  :  -174.5876249 Eh     change       -0.6999385E-06 Eh
 * total energy  :  -174.5876255 Eh     change       -0.6334804E-06 Eh
 * total energy  :  -174.5876256 Eh     change       -0.8738340E-08 Eh
   *** GEOMETRY OPTIMIZATION CONVERGED AFTER 68 ITERATIONS ***

 final structure:
================
114
 xtb: 6.7.1 (edcfbbe)
C           10.84815422063216        0.40503115189815        0.49223685836954
C            9.37250468465838        0.21632135384815        0.28495925977608
C            8.72240460659057        0.79251348506539       -0.81056866945479
C            9.44874195768616        1.55660148462736       -1.84637883454315
C            9.07211610971718        2.86832806835850       -2.12205271390243
C            9.72197541377236        3.59402907636416       -3.10432354570505
C           10.75011222503139        3.01596911790668       -3.83082021226096
C           11.12317478345805        1.70754914535206       -3.57156827596077
C           10.47883068311289        0.98236628982156       -2.58516675189115
C            7.34406642037173        0.67020304662090       -0.94906486596006
C            6.60354195336408       -0.01388895603803       -0.00317985971168
N            5.18393274982128       -0.12007391550809       -0.14324042006631
C            4.67047899644001       -1.37480976558750       -0.43870097779224
O            5.43226379303546       -2.33363053756470       -0.59090480602856
C            3.23019055933210       -1.46577548146631       -0.56737686484383
C            2.64660590482609       -2.69775532359203       -0.90158740880027
C            1.28475523459356       -2.78379696029612       -1.08127488945775
C            0.47228161091273       -1.67124023624618       -0.89105345642295
C            1.00394970722603       -0.43896206655200       -0.48882817955818
C            0.19927966972829        0.72432658168529       -0.26553291950325
C           -1.23642469781423        0.66479176126620       -0.15511315106236
C           -1.88486624588006       -0.39053411991729        0.52010056154275
C           -3.24878912353663       -0.43328093737034        0.64056459945221
C           -4.04934694234642        0.58039586185989        0.08610228297103
N           -5.43178806361605        0.52694479952232        0.19032241453026
C           -6.16497054790191        1.70520102339246        0.33481288095420
C           -7.41232828980881        1.84624914183420       -0.28214825662580
C           -8.13048653569478        3.01234737520875       -0.13729107869575
C           -7.63226171237674        4.07733193254328        0.61798171125195
C           -8.39725118987561        5.32028711879869        0.76454414555518
C           -7.75370501708575        6.55744252052628        0.72761780433403
C           -8.47463929991621        7.72932026905687        0.85990741644131
C           -9.84771209469864        7.68634143401377        1.04224995622996
C          -10.49694533030634        6.46280740722234        1.08575597649935
C           -9.78028331484273        5.28936691768702        0.94354359073164
C           -6.38494434585499        3.92876495057003        1.23020417468781
C           -5.66162081068851        2.76466905067497        1.09679943416488
C           -6.08495794386121       -0.70215881210997        0.16272966864730
C           -7.22442681739949       -0.91244574411495        0.95256041191476
C           -7.87050853034397       -2.13064648388741        0.95092133634323
C           -7.37712205208667       -3.15624970535873        0.15241053472624
C           -6.23591198833147       -2.94819158164041       -0.64601075317385
C           -5.59301349229485       -1.73673582074015       -0.64897705294235
C           -5.89048105133316       -4.19894437091940       -1.42162739209072
C           -5.97031597217355       -3.95812197117900       -2.93329281312622
C           -4.49928802030727       -4.71513895467319       -1.03570069709091
C           -6.97462286208935       -5.14687142915098       -0.95917993521615
C           -7.18643816540235       -6.46045724765855       -1.31824125931145
C           -8.25912322748313       -7.14333814602020       -0.75854632414955
C           -9.10801471513003       -6.52032238936915        0.14648447586009
C           -8.90496472008375       -5.20135307976507        0.51394744705821
C           -7.83351137044821       -4.51585855613239       -0.04228562790668
C           -3.41614115989775        1.65096082666788       -0.56647394201471
C           -2.05014948301906        1.69453287550336       -0.67220364117551
C            0.84199662185342        1.96898943173085       -0.08028840138080
C            2.20170552542498        2.07117213230619        0.00893613186527
C            3.01619327610264        0.92392468425747       -0.11653858938765
C            2.42061056128482       -0.32688713657623       -0.38088939126509
C            4.44682286367040        1.05015258795641        0.01140469227806
O            5.02333040637449        2.11400626295494        0.26440959996216
C            7.23621092124657       -0.59031042597269        1.08335695644531
C            8.61481343198803       -0.48948064735905        1.22432597080586
C            9.23758113849307       -1.13515960724251        2.40031748113100
C           10.16201937135645       -2.16349907089310        2.24669608012498
C           10.71320297654267       -2.78229312135293        3.35431723817265
C           10.35268735692794       -2.37825633835588        4.62922610928823
C            9.42976445744564       -1.35837848511672        4.79156132722473
C            8.87073439073330       -0.74477882828996        3.68449918806783
H           11.41034730394974       -0.41666986057687        0.05061854448499
H           11.18261959501158        1.32993739067139        0.02859067660712
H           11.07931423384702        0.43341368835326        1.55478078782409
H            8.26994984475091        3.31568629214303       -1.55139208625558
H            9.42336310167874        4.61333676418212       -3.30380225493023
H           11.25586265145366        3.58247677873680       -4.59919206399841
H           11.91884562984926        1.24917139684396       -4.14119342962822
H           10.75993935622092       -0.04284515501853       -2.39560938727950
H            6.84636752615941        1.11561511573869       -1.79895490192871
H            3.29715335285268       -3.54951891008153       -1.03151359727480
H            0.83965506926807       -3.72361428340871       -1.37407991570906
H           -0.58528831859951       -1.75513337321567       -1.08573813305950
H           -1.28478239014309       -1.14771415667309        1.00078641879133
H           -3.71726264221144       -1.23086234372945        1.19800442280604
H           -7.79717830380025        1.04302016042512       -0.89254847569593
H           -9.07851280397424        3.11695617465803       -0.64251104982123
H           -6.68617676723439        6.59991342608419        0.56801089850625
H           -7.96456646621419        8.68105872578793        0.82059774289103
H          -10.40919677119381        8.60278702734162        1.14966893589646
H          -11.56673967898375        6.42487010407011        1.23263984328666
H          -10.29155102371501        4.33935446658965        0.99668474825572
H           -5.99484744592062        4.72668416885015        1.84345890795362
H           -4.71271167246708        2.65307153927655        1.59989552663920
H           -7.57662241548564       -0.11445513068355        1.58867833602117
H           -8.73770754873935       -2.28548072166842        1.57385630938163
H           -4.73143514554937       -1.56038839252282       -1.27467744958935
H           -5.22611326551415       -3.22675208179811       -3.23870321657939
H           -6.95685936371549       -3.59007894243845       -3.20776251244207
H           -5.78523848950752       -4.88516813459436       -3.46998632238411
H           -4.29352915741209       -5.65379554004143       -1.54391326066579
H           -3.73613704784023       -3.99402685727458       -1.31815526981831
H           -4.44115020954657       -4.88350675425974        0.03785607681377
H           -6.53463420023121       -6.95818538800732       -2.02094125048977
H           -8.43566651006385       -8.17361557349299       -1.03150246438420
H           -9.93462733480615       -7.07357320067391        0.56813387404367
H           -9.56560286687217       -4.71831605438082        1.21817201572395
H           -4.01793432669733        2.42505100010323       -1.01910000597914
H           -1.58769581409879        2.50462118142393       -1.21438486045223
H            0.23643159125610        2.85072334048104        0.06796579895474
H            2.69046022804929        3.01616221354149        0.19281070273161
H            6.65643841374190       -1.13344834584587        1.81642287113295
H           10.43237713088068       -2.48760708336560        1.25257083086665
H           11.42556385430444       -3.58393541226808        3.22208794208389
H           10.78661657850099       -2.85907037603135        5.49383967668832
H            9.14155959415003       -1.04100795527752        5.78358020694947
H            8.15034193478186        0.05216118914423        3.80736399819336

          :  Hamiltonian                  GFN2-xTB          :
         :: gradient norm              0.000066127014 Eh/a0 ::
         :: HOMO-LUMO gap              0.739714082255 eV    ::
         :: SCC energy              -177.756675842561 Eh    ::
         :: -> dispersion             -0.158852299986 Eh    ::
         :: -> Gsolv                  -0.098875536749 Eh    ::
         :: repulsion energy           3.169050285251 Eh    ::

    * Orbital Energies and Occupations

         #    Occupation            Energy/Eh            Energy/eV
      -------------------------------------------------------------
         1        2.0000           -0.6949645             -18.9109
       ...           ...                  ...                  ...
       151        2.0000           -0.4031618             -10.9706
       152        2.0000           -0.4026915             -10.9578
       153        2.0000           -0.4016433             -10.9293
       154        2.0000           -0.4010319             -10.9126
       155        2.0000           -0.3978241             -10.8253
       156        2.0000           -0.3961281             -10.7792
       157        2.0000           -0.3879458             -10.5565
       158        2.0000           -0.3861218             -10.5069
       159        2.0000           -0.3837378             -10.4420
       160        2.0000           -0.3810489             -10.3689
       161        1.9993           -0.3775104             -10.2726
       162        1.0007           -0.3636355              -9.8950
       163        1.0000           -0.2963932              -8.0653 (HOMO)
       164        0.0000           -0.2692097              -7.3256 (LUMO)
       165                         -0.2607983              -7.0967
       166                         -0.2446365              -6.6569
       167                         -0.2435558              -6.6275
       168                         -0.2390828              -6.5058
       169                         -0.2373861              -6.4596
       170                         -0.2359610              -6.4208
       171                         -0.2329494              -6.3389
       172                         -0.2287699              -6.2251
       173                         -0.2283488              -6.2137
       174                         -0.2267994              -6.1715
       ...                                ...                  ...
       318                          0.7158677              19.4798
      -------------------------------------------------------------
                  HL-Gap            0.0271835 Eh            0.7397 eV

     #   Z          covCN         q      C6AA      α(0)
     1   6 C        3.757    -0.107    22.595     6.777
     2   6 C        2.969     0.007    27.850     8.656
     3   6 C        2.981    -0.000    28.030     8.684
     4   6 C        2.979     0.014    27.703     8.634
     5   6 C        2.925    -0.033    28.821     8.804
     6   6 C        2.918    -0.030    28.760     8.794
     7   6 C        2.920    -0.033    28.816     8.803
     8   6 C        2.919    -0.031    28.775     8.797
     9   6 C        2.924    -0.033    28.817     8.803
    10   6 C        2.929    -0.039    28.969     8.827
    11   6 C        2.931     0.091    25.988     8.360
    12   7 N        2.748    -0.141    24.051     7.284
    13   6 C        2.778     0.261    22.602     7.787
    14   8 O        0.858    -0.510    24.012     6.570
    15   6 C        2.979    -0.042    29.044     8.840
    16   6 C        2.919    -0.034    28.837     8.806
    17   6 C        2.912    -0.033    28.810     8.802
    18   6 C        2.919    -0.049    29.211     8.863
    19   6 C        2.977     0.008    27.827     8.653
    20   6 C        2.972    -0.012    28.318     8.729
    21   6 C        2.973     0.023    27.482     8.599
    22   6 C        2.920    -0.031    28.769     8.796
    23   6 C        2.916    -0.039    28.964     8.825
    24   6 C        2.928     0.056    26.748     8.482
    25   7 N        2.753    -0.001    21.277     6.851
    26   6 C        2.928     0.059    26.677     8.470
    27   6 C        2.918    -0.038    28.946     8.823
    28   6 C        2.923    -0.029    28.721     8.789
    29   6 C        2.976     0.018    27.593     8.616
    30   6 C        2.976     0.011    27.754     8.642
    31   6 C        2.924    -0.032    28.810     8.802
    32   6 C        2.918    -0.028    28.711     8.787
    33   6 C        2.920    -0.028    28.701     8.785
    34   6 C        2.918    -0.029    28.714     8.787
    35   6 C        2.924    -0.033    28.813     8.803
    36   6 C        2.923    -0.029    28.718     8.788
    37   6 C        2.918    -0.038    28.941     8.822
    38   6 C        2.930     0.058    26.689     8.472
    39   6 C        2.921    -0.041    29.025     8.835
    40   6 C        2.912    -0.029    28.723     8.788
    41   6 C        3.036     0.008    27.805     8.649
    42   6 C        3.053     0.008    27.791     8.646
    43   6 C        2.916    -0.043    29.061     8.840
    44   6 C        3.934     0.021    20.151     6.379
    45   6 C        3.758    -0.102    22.503     6.763
    46   6 C        3.758    -0.102    22.493     6.762
    47   6 C        3.056     0.004    27.883     8.660
    48   6 C        2.914    -0.032    28.787     8.798
    49   6 C        2.922    -0.028    28.694     8.784
    50   6 C        2.920    -0.031    28.778     8.797
    51   6 C        2.913    -0.031    28.785     8.798
    52   6 C        3.036     0.003    27.933     8.669
    53   6 C        2.915    -0.038    28.943     8.822
    54   6 C        2.921    -0.032    28.801     8.801
    55   6 C        2.917    -0.034    28.858     8.809
    56   6 C        2.914    -0.036    28.906     8.816
    57   6 C        2.977    -0.041    29.002     8.834
    58   6 C        2.989     0.004    27.935     8.670
    59   6 C        2.777     0.258    22.653     7.795
    60   8 O        0.858    -0.514    24.101     6.582
    61   6 C        2.928    -0.040    28.983     8.829
    62   6 C        2.981    -0.000    28.027     8.684
    63   6 C        2.979     0.014    27.684     8.631
    64   6 C        2.924    -0.031    28.783     8.798
    65   6 C        2.919    -0.030    28.761     8.794
    66   6 C        2.920    -0.033    28.815     8.803
    67   6 C        2.918    -0.031    28.764     8.795
    68   6 C        2.925    -0.034    28.840     8.807
    69   1 H        0.925     0.055     2.258     2.350
    70   1 H        0.925     0.049     2.329     2.387
    71   1 H        0.925     0.048     2.341     2.393
    72   1 H        0.925     0.027     2.622     2.532
    73   1 H        0.926     0.032     2.560     2.502
    74   1 H        0.926     0.034     2.529     2.487
    75   1 H        0.926     0.035     2.512     2.479
    76   1 H        0.926     0.036     2.509     2.477
    77   1 H        0.926     0.027     2.623     2.533
    78   1 H        0.926     0.033     2.541     2.493
    79   1 H        0.926     0.037     2.483     2.464
    80   1 H        0.926     0.044     2.400     2.422
    81   1 H        0.926     0.051     2.312     2.378
    82   1 H        0.926     0.052     2.295     2.369
    83   1 H        0.926     0.052     2.290     2.367
    84   1 H        0.926     0.053     2.283     2.363
    85   1 H        0.926     0.038     2.471     2.458
    86   1 H        0.926     0.034     2.525     2.485
    87   1 H        0.926     0.034     2.531     2.488
    88   1 H        0.926     0.035     2.512     2.478
    89   1 H        0.926     0.040     2.451     2.448
    90   1 H        0.926     0.051     2.305     2.374
    91   1 H        0.926     0.050     2.316     2.380
    92   1 H        0.926     0.051     2.307     2.375
    93   1 H        0.926     0.051     2.306     2.375
    94   1 H        0.926     0.051     2.306     2.374
    95   1 H        0.925     0.048     2.343     2.394
    96   1 H        0.925     0.040     2.455     2.450
    97   1 H        0.925     0.048     2.345     2.395
    98   1 H        0.925     0.048     2.348     2.396
    99   1 H        0.925     0.048     2.348     2.396
   100   1 H        0.925     0.038     2.471     2.458
   101   1 H        0.926     0.037     2.487     2.466
   102   1 H        0.926     0.036     2.502     2.474
   103   1 H        0.926     0.035     2.512     2.479
   104   1 H        0.926     0.039     2.463     2.454
   105   1 H        0.926     0.052     2.299     2.371
   106   1 H        0.926     0.049     2.334     2.389
   107   1 H        0.926     0.042     2.425     2.435
   108   1 H        0.926     0.035     2.520     2.482
   109   1 H        0.926     0.027     2.629     2.535
   110   1 H        0.926     0.034     2.533     2.489
   111   1 H        0.926     0.035     2.512     2.479
   112   1 H        0.926     0.034     2.525     2.485
   113   1 H        0.926     0.033     2.549     2.497
   114   1 H        0.925     0.026     2.650     2.546

molecular dipole:
                 x           y           z       tot (Debye)
 q only:      -11.201       0.136       0.116
   full:      -11.329       0.143       0.145      28.801

 projected vibrational frequencies (cm⁻¹)
eigval :       -0.00    -0.00    -0.00     0.00     0.00     0.00
eigval :        4.96     7.68     8.85    15.51    17.10    19.59
eigval :       21.73    25.30    34.73    37.81    39.63    41.71
eigval :       44.88    52.93    61.08    65.63    69.52    72.57
eigval :       77.66    83.82    90.63    99.84   102.07   114.41
eigval :      115.04   123.76   131.54   134.79   145.97   149.23
eigval :      160.98   169.11   175.35   185.12   187.61   188.50
eigval :      196.75   213.82   218.49   225.86   226.25   249.24
eigval :      253.15   260.00   265.56   274.38   283.17   287.68
eigval :      289.39   293.59   310.23   314.80   322.08   323.87
eigval :      332.95   338.34   353.98   367.48   369.57   371.13
eigval :      375.18   377.38   382.44   385.80   389.78   393.06
eigval :      398.19   406.45   415.08   426.10   436.27   449.35
eigval :      462.64   466.98   467.66   477.97   482.53   492.26
eigval :      497.82   516.66   518.87   525.30   532.41   538.04
eigval :      548.41   561.41   564.04   567.90   577.12   578.45
eigval :      581.36   584.19   587.72   590.10   591.07   599.92
eigval :      600.41   603.61   607.42   617.92   626.28   634.06
eigval :      661.41   664.41   665.73   668.03   675.81   678.49
eigval :      681.78   687.34   688.78   691.55   695.13   718.58
eigval :      725.47   728.74   739.69   744.12   755.09   755.93
eigval :      767.03   774.02   779.19   779.94   782.39   794.67
eigval :      804.42   816.10   819.61   824.98   831.78   832.16
eigval :      844.51   853.53   863.64   871.60   873.71   874.65
eigval :      880.18   881.22   882.57   883.75   886.51   896.61
eigval :      901.57   905.07   905.93   906.68   908.27   912.49
eigval :      914.75   919.03   921.29   923.73   927.37   931.11
eigval :      931.46   932.33   933.05   933.56   934.05   934.18
eigval :      941.52   946.04   961.65   966.11   968.37   976.80
eigval :      978.87   986.74  1000.13  1009.15  1013.44  1020.05
eigval :     1023.25  1028.80  1052.85  1060.36  1066.39  1071.41
eigval :     1075.70  1082.06  1083.72  1085.10  1106.73  1115.38
eigval :     1116.05  1118.68  1121.60  1128.22  1140.82  1141.80
eigval :     1142.23  1148.77  1153.86  1164.33  1170.40  1174.39
eigval :     1177.88  1180.94  1181.41  1182.87  1184.95  1187.42
eigval :     1190.83  1195.42  1196.62  1198.74  1200.83  1203.77
eigval :     1212.72  1219.05  1221.90  1228.93  1236.50  1239.59
eigval :     1247.42  1263.59  1264.91  1269.42  1276.27  1277.09
eigval :     1278.34  1278.89  1280.07  1290.66  1302.24  1304.20
eigval :     1308.95  1313.18  1313.81  1314.21  1317.03  1322.38
eigval :     1324.08  1333.54  1339.16  1353.50  1358.24  1361.73
eigval :     1383.98  1392.85  1399.78  1405.20  1407.47  1408.78
eigval :     1416.87  1417.18  1421.12  1424.37  1429.95  1430.55
eigval :     1431.38  1433.32  1448.19  1450.32  1454.54  1455.69
eigval :     1461.97  1466.21  1474.05  1479.56  1480.74  1483.65
eigval :     1483.95  1484.88  1487.69  1491.35  1491.48  1495.99
eigval :     1503.76  1510.55  1536.98  1549.17  1551.62  1561.70
eigval :     1567.61  1572.03  1575.64  1577.95  1579.47  1581.35
eigval :     1582.23  1584.45  1584.83  1595.76  1598.56  1599.40
eigval :     1600.02  1607.11  3005.00  3028.44  3031.70  3033.75
eigval :     3034.69  3036.19  3040.54  3040.64  3043.78  3064.41
eigval :     3065.72  3068.95  3069.55  3070.64  3072.81  3073.07
eigval :     3073.71  3073.72  3074.50  3075.40  3076.74  3077.91
eigval :     3078.44  3080.47  3082.26  3083.63  3083.75  3084.20
eigval :     3084.54  3085.44  3087.47  3088.39  3090.03  3090.35
eigval :     3090.82  3090.94  3091.17  3091.63  3092.22  3094.18
eigval :     3097.90  3098.18  3099.40  3099.54  3100.82  3101.51

   temp. (K)  partition function   enthalpy   heat capacity  entropy
                                   cal/mol     cal/K/mol   cal/K/mol   J/K/mol
 298.15  VIB  0.958E+28            33917.122    209.014    214.128
         ROT  0.420E+09              888.752      2.981     42.438
         INT  0.402E+37            34805.874    211.995    256.566
         TR   0.250E+29             1481.254      4.968     46.163
         TOT                       36287.1281   216.9632   302.7284  1266.6154

       T/K    H(0)-H(T)+PV         H(T)/Eh          T*S/Eh         G(T)/Eh
   ------------------------------------------------------------------------
    298.15    0.578272E-01    0.942308E+00    0.143836E+00    0.798472E+00
   ------------------------------------------------------------------------

         :::::::::::::::::::::::::::::::::::::::::::::::::::::
         ::                  THERMODYNAMIC                  ::
         :::::::::::::::::::::::::::::::::::::::::::::::::::::
         :: total free energy        -173.789153517352 Eh   ::
         ::.................................................::
         :: total energy             -174.587625559679 Eh   ::
         :: zero point energy           0.884480831306 Eh   ::
         :: G(RRHO) w/o ZPVE           -0.086008788979 Eh   ::
         :: G(RRHO) contrib.            0.798472042327 Eh   ::
         :::::::::::::::::::::::::::::::::::::::::::::::::::::

           -------------------------------------------------
          | TOTAL ENERGY             -174.587625559679 Eh   |
          | TOTAL ENTHALPY           -173.645317508894 Eh   |
          | TOTAL FREE ENERGY        -173.789153517352 Eh   |
          | GRADIENT NORM               0.000065762190 Eh/α |
          | HOMO-LUMO GAP               0.739699587796 eV   |
           -------------------------------------------------

 * finished run on 2025/09/05 at 06:35:14.879
