   * xtb version 6.7.1 (edcfbbe) compiled by 'albert@albert-system' on 2024-07-22

   ID    Z sym.   atoms
    1    6 C      1-11, 13, 15-24, 26-59, 61-68
    2    7 N      12, 25
    3    8 O      14, 60
    4    1 H      69-114

          program call               : xtb data2507/toluene/NAI–PhBiFA/NAI–PhBiFA_toluene_S0_crest.xyz --gfn 2 --gbsa toluene --ohess vtight --parallel 40 --molden --ceasefiles --namespace data2507/toluene/NAI–PhBiFA/NAI–PhBiFA_toluene_S0_finalOpt
      * Solvation model:               GBSA
        Solvent                        toluene
        Solvent mass                       9.2140E+01 g/mol
          :  Hamiltonian                  GFN2-xTB          :
 * total energy  :  -174.6467650 Eh     change       -0.1563876E-08 Eh
 * total energy  :  -174.6468883 Eh     change       -0.1232647E-03 Eh
 * total energy  :  -174.6469263 Eh     change       -0.3799447E-04 Eh
 * total energy  :  -174.6469354 Eh     change       -0.9100135E-05 Eh
 * total energy  :  -174.6469455 Eh     change       -0.1011209E-04 Eh
 * total energy  :  -174.6469549 Eh     change       -0.9445302E-05 Eh
 * total energy  :  -174.6469611 Eh     change       -0.6144507E-05 Eh
 * total energy  :  -174.6469662 Eh     change       -0.5142387E-05 Eh
 * total energy  :  -174.6469711 Eh     change       -0.4929704E-05 Eh
 * total energy  :  -174.6469762 Eh     change       -0.5011419E-05 Eh
 * total energy  :  -174.6470422 Eh     change       -0.5128095E-06 Eh
 * total energy  :  -174.6470426 Eh     change       -0.3773809E-06 Eh
 * total energy  :  -174.6470429 Eh     change       -0.2984864E-06 Eh
 * total energy  :  -174.6470432 Eh     change       -0.3318942E-06 Eh
 * total energy  :  -174.6470436 Eh     change       -0.3908111E-06 Eh
 * total energy  :  -174.6470440 Eh     change       -0.4318411E-06 Eh
 * total energy  :  -174.6470445 Eh     change       -0.4644121E-06 Eh
 * total energy  :  -174.6470449 Eh     change       -0.4469229E-06 Eh
 * total energy  :  -174.6470450 Eh     change       -0.2342134E-07 Eh
   *** GEOMETRY OPTIMIZATION CONVERGED AFTER 44 ITERATIONS ***

 final structure:
================
114
 xtb: 6.7.1 (edcfbbe)
C           10.91209394709343        0.32384730878890        0.27935865240273
C            9.41625082806524        0.27620183217916        0.16583956681998
C            8.79879514487297       -0.06506200908412       -1.04136839407121
C            9.57169639452433       -0.33713009173529       -2.27137867380201
C           10.41125070138975        0.62379955825914       -2.82630240899960
C           11.10329117902808        0.35874636374611       -3.99456310311489
C           10.96916201240743       -0.86965259892589       -4.62045366117216
C           10.13122362971739       -1.82999618996347       -4.07768283135697
C            9.43210397530624       -1.56413697585011       -2.91381407891478
C            7.41414020242988       -0.17315937343994       -1.11234677812325
C            6.64066182306943        0.05265535129755        0.01023780431470
N            5.21211996804870       -0.07074969472123       -0.06832936525475
C            4.70125084113630       -1.35137186404825       -0.20847379279563
O            5.44875100162081       -2.31463564041729       -0.24609893472321
C            3.24080102495100       -1.46223982254276       -0.29465992522333
C            2.66308338713856       -2.70524466345239       -0.46899998909666
C            1.27846911833604       -2.82409788238830       -0.58202869543479
C            0.47463252134452       -1.71521433591691       -0.48370280417011
C            1.01912803006062       -0.43448461079758       -0.25745761282815
C            0.21800024965335        0.73841786833186       -0.13373272858377
C           -1.24366280086899        0.66909655881472       -0.07558714231423
C           -1.89420037286582       -0.21328777672766        0.79077796179660
C           -3.26884000313206       -0.25076140848456        0.86361745355453
C           -4.04868981850851        0.58856031276773        0.06168710181930
N           -5.43713591074814        0.53341750970642        0.11880108664592
C           -6.20107142112107        1.69630894015263       -0.04113833068562
C           -7.41237727674801        1.65916837015848       -0.73163924587249
C           -8.16952077735324        2.80309351577882       -0.87469518288431
C           -7.74089411697753        4.02105320130063       -0.34798957167779
C           -8.54641598871677        5.23955757899562       -0.51020386527322
C           -9.93404358478204        5.19847295440139       -0.38455506367820
C          -10.69025429658725        6.34599628956703       -0.53652453577003
C          -10.07504839909704        7.55394246068186       -0.82187929645878
C           -8.69680521074465        7.60684884159699       -0.95130617514774
C           -7.93865634263590        6.46121801593395       -0.79511321328272
C           -6.52671457272998        4.05155376578754        0.33708607606612
C           -5.77025173131640        2.90944670697390        0.49632717841619
C           -6.07892731434557       -0.69303760741899        0.34884737781193
C           -7.20606960369480       -0.75432047673851        1.16978411444897
C           -7.84883455146229       -1.95580708247339        1.40435860609442
C           -7.35242863507514       -3.11054153364195        0.81968470881408
C           -6.21862926915997       -3.05295479440336       -0.00572474407083
C           -5.58616250524278       -1.85726244764534       -0.24907194991863
C           -5.86316636997140       -4.42724454265690       -0.52742657788934
C           -5.94411106343281       -4.47916847185715       -2.05705534193568
C           -4.46872799788035       -4.84970001480424       -0.05123183720939
C           -6.94196372764498       -5.27767382280751        0.10733559544157
C           -7.14724398449218       -6.63637261709421        0.00009549973332
C           -8.21614824242596       -7.20937433639003        0.67764560375675
C           -9.06508960323119       -6.43195986644482        1.45058038040872
C           -8.86715254034797       -5.06503478324326        1.56347821483718
C           -7.80154124578412       -4.49042769161707        0.88926629477402
C           -3.40052165218832        1.48128440278068       -0.79756444258660
C           -2.02512258839723        1.52545829154865       -0.85407706550120
C            0.83817669971733        1.97360109807259       -0.04627315196632
C            2.22173798524799        2.09160019910421       -0.01688481114835
C            3.02457752643239        0.96544120033686       -0.07190653518057
C            2.43283451828045       -0.30826141457794       -0.20274990114988
C            4.47880229079301        1.10775835788946       -0.00959190550853
O            5.04802336681628        2.18302925610586        0.08031246582390
C            7.23717370748992        0.39462029492153        1.20971618080423
C            8.61891877534666        0.51802533047902        1.28860138448396
C            9.20616461029823        0.89381692564900        2.59343124285962
C            9.03437113863529        0.06496426791272        3.69757455475702
C            9.56107762605356        0.41737762458207        4.92767417584082
C           10.25281831179789        1.60859580814433        5.07201895957643
C           10.41635719261296        2.44572725930424        3.98049444550569
C            9.89920152479921        2.09012254385987        2.74765104630750
H           11.28121067222349        1.33449318285683        0.11045390201995
H           11.22497585499724        0.01820120101131        1.27527733959685
H           11.37228105225287       -0.33028869140443       -0.45710828190506
H           10.50595723304383        1.58686885135318       -2.34721706914743
H           11.74903723044821        1.11406586025954       -4.41879834214014
H           11.51385831968113       -1.07728208133808       -5.52999625730634
H           10.02030984695958       -2.78902615247983       -4.56319345641252
H            8.77954819431212       -2.31221208514933       -2.48534067110580
H            6.94233435852264       -0.43455659865449       -2.04877998544924
H            3.30643688301945       -3.57021893591242       -0.53412522703940
H            0.84215393654898       -3.79601211344969       -0.75441737141240
H           -0.59328845489157       -1.81605051035589       -0.59710315143448
H           -1.31033196638779       -0.84347626609676        1.44527092828265
H           -3.75445119795408       -0.92528792423901        1.55306672304659
H           -7.75274723697548        0.72663964112635       -1.15785171534512
H           -9.09528096097051        2.75919186407234       -1.42943210689828
H          -10.41991465462559        4.26340980282677       -0.14522978980177
H          -11.76479590406409        6.29931269751239       -0.42990224439533
H          -10.66677318039974        8.44978759247194       -0.94224498483317
H           -8.21125779503101        8.54555373079030       -1.17784247965734
H           -6.86578288524538        6.50744481780996       -0.91499098065049
H           -6.18658284356330        4.97735318112692        0.77751817946072
H           -4.84195690967700        2.94714138543021        1.04769574063720
H           -7.57250098316935        0.15284703298318        1.62783726900220
H           -8.71809728160176       -1.98864818653643        2.04411868084712
H           -4.72168551744740       -1.80101565596307       -0.89393381358465
H           -5.21123163665590       -3.80690375565535       -2.49692568856288
H           -6.93561361902597       -4.18083180590866       -2.39226677489575
H           -5.74784470122134       -5.48856351959907       -2.41064260770313
H           -4.25368946028810       -5.86627716733899       -0.37171074525574
H           -3.71295033351571       -4.18591672416188       -0.46446071391654
H           -4.41322185040512       -4.80925178996679        1.03493050318744
H           -6.49288662271959       -7.25322655700179       -0.59897205610249
H           -8.38762749413299       -8.27370290301450        0.60248729445181
H           -9.89043638039595       -6.89829127200080        1.96976445588810
H           -9.53060261686397       -4.46213909701377        2.16627730978170
H           -3.98825657631154        2.13192027897168       -1.42793322793188
H           -1.54273838516338        2.20507073445632       -1.54076648071197
H            0.23215950965903        2.86314171465742        0.03715134374661
H            2.69527309105677        3.05842228478665        0.07017227345619
H            6.62867686573326        0.57856898024736        2.08361994221011
H            8.49453559102468       -0.86452152240427        3.58138858151782
H            9.42798502365664       -0.23817442649606        5.77640157540702
H           10.66090445874645        1.88490449888882        6.03329034878898
H           10.94772105112197        3.38006187631756        4.09055698381102
H           10.01599424459783        2.74844441893618        1.89945696311981

          :  Hamiltonian                  GFN2-xTB          :
         :: gradient norm              0.000114531683 Eh/a0 ::
         :: HOMO-LUMO gap              1.030977130308 eV    ::
         :: SCC energy              -177.831768702136 Eh    ::
         :: -> dispersion             -0.158762279014 Eh    ::
         :: -> Gsolv                  -0.079051993010 Eh    ::
         :: repulsion energy           3.184723730195 Eh    ::

    * Orbital Energies and Occupations

         #    Occupation            Energy/Eh            Energy/eV
      -------------------------------------------------------------
         1        2.0000           -0.7196194             -19.5818
       ...           ...                  ...                  ...
       150        2.0000           -0.4082003             -11.1077
       151        2.0000           -0.4044619             -11.0060
       152        2.0000           -0.4043773             -11.0037
       153        2.0000           -0.4040127             -10.9937
       154        2.0000           -0.4038769             -10.9900
       155        2.0000           -0.4026395             -10.9564
       156        2.0000           -0.4017134             -10.9312
       157        2.0000           -0.3967138             -10.7951
       158        2.0000           -0.3917877             -10.6611
       159        2.0000           -0.3904691             -10.6252
       160        2.0000           -0.3889390             -10.5836
       161        2.0000           -0.3834558             -10.4344
       162        2.0000           -0.3509634              -9.5502 (HOMO)
       163                         -0.3130757              -8.5192 (LUMO)
       164                         -0.2587329              -7.0405
       165                         -0.2530874              -6.8869
       166                         -0.2498976              -6.8001
       167                         -0.2456305              -6.6839
       168                         -0.2425993              -6.6015
       169                         -0.2365322              -6.4364
       170                         -0.2332586              -6.3473
       171                         -0.2323516              -6.3226
       172                         -0.2258732              -6.1463
       173                         -0.2234010              -6.0791
       ...                                ...                  ...
       318                          0.7307317              19.8842
      -------------------------------------------------------------
                  HL-Gap            0.0378877 Eh            1.0310 eV

     #   Z          covCN         q      C6AA      α(0)
     1   6 C        3.757    -0.108    22.625     6.782
     2   6 C        2.969     0.012    27.755     8.642
     3   6 C        2.981     0.003    27.946     8.671
     4   6 C        2.979     0.014    27.705     8.634
     5   6 C        2.924    -0.032    28.809     8.802
     6   6 C        2.919    -0.030    28.761     8.794
     7   6 C        2.920    -0.032    28.795     8.800
     8   6 C        2.918    -0.030    28.750     8.793
     9   6 C        2.925    -0.033    28.831     8.805
    10   6 C        2.928    -0.040    28.988     8.830
    11   6 C        2.932     0.080    26.210     8.396
    12   7 N        2.747    -0.121    23.628     7.219
    13   6 C        2.776     0.277    22.322     7.738
    14   8 O        0.859    -0.450    22.706     6.389
    15   6 C        2.977    -0.031    28.780     8.800
    16   6 C        2.922    -0.010    28.275     8.720
    17   6 C        2.914    -0.026    28.651     8.777
    18   6 C        2.918    -0.021    28.530     8.759
    19   6 C        2.983     0.015    27.669     8.628
    20   6 C        2.973     0.024    27.476     8.598
    21   6 C        2.977     0.003    27.957     8.673
    22   6 C        2.922    -0.031    28.778     8.797
    23   6 C        2.920    -0.048    29.182     8.859
    24   6 C        2.924     0.068    26.479     8.439
    25   7 N        2.752    -0.066    22.511     7.047
    26   6 C        2.924     0.062    26.613     8.460
    27   6 C        2.920    -0.047    29.165     8.856
    28   6 C        2.924    -0.034    28.849     8.808
    29   6 C        2.975     0.003    27.959     8.673
    30   6 C        2.976     0.009    27.803     8.649
    31   6 C        2.925    -0.035    28.882     8.813
    32   6 C        2.918    -0.031    28.771     8.796
    33   6 C        2.920    -0.033    28.815     8.803
    34   6 C        2.918    -0.031    28.772     8.796
    35   6 C        2.925    -0.035    28.883     8.813
    36   6 C        2.924    -0.034    28.853     8.809
    37   6 C        2.920    -0.048    29.190     8.860
    38   6 C        2.927     0.059    26.667     8.469
    39   6 C        2.923    -0.050    29.248     8.869
    40   6 C        2.913    -0.035    28.872     8.811
    41   6 C        3.035    -0.008    28.176     8.706
    42   6 C        3.054     0.000    27.972     8.674
    43   6 C        2.918    -0.051    29.273     8.872
    44   6 C        3.935     0.019    20.192     6.386
    45   6 C        3.758    -0.099    22.446     6.755
    46   6 C        3.758    -0.099    22.446     6.755
    47   6 C        3.055    -0.002    28.032     8.683
    48   6 C        2.915    -0.035    28.869     8.811
    49   6 C        2.921    -0.035    28.873     8.812
    50   6 C        2.921    -0.035    28.868     8.811
    51   6 C        2.914    -0.037    28.913     8.817
    52   6 C        3.036    -0.002    28.031     8.684
    53   6 C        2.920    -0.047    29.169     8.857
    54   6 C        2.923    -0.031    28.777     8.797
    55   6 C        2.921    -0.033    28.833     8.805
    56   6 C        2.919    -0.011    28.301     8.724
    57   6 C        2.976    -0.036    28.901     8.818
    58   6 C        2.993     0.008    27.825     8.653
    59   6 C        2.776     0.276    22.331     7.740
    60   8 O        0.859    -0.451    22.732     6.392
    61   6 C        2.927    -0.040    28.987     8.829
    62   6 C        2.982     0.003    27.943     8.671
    63   6 C        2.979     0.014    27.688     8.631
    64   6 C        2.925    -0.034    28.843     8.807
    65   6 C        2.918    -0.030    28.753     8.793
    66   6 C        2.920    -0.032    28.796     8.800
    67   6 C        2.919    -0.030    28.748     8.792
    68   6 C        2.924    -0.031    28.779     8.798
    69   1 H        0.925     0.057     2.231     2.336
    70   1 H        0.925     0.050     2.320     2.382
    71   1 H        0.925     0.051     2.308     2.376
    72   1 H        0.926     0.037     2.492     2.468
    73   1 H        0.926     0.035     2.514     2.479
    74   1 H        0.926     0.034     2.535     2.490
    75   1 H        0.926     0.033     2.551     2.497
    76   1 H        0.925     0.030     2.587     2.515
    77   1 H        0.926     0.033     2.543     2.494
    78   1 H        0.926     0.061     2.193     2.316
    79   1 H        0.926     0.059     2.205     2.322
    80   1 H        0.926     0.067     2.118     2.276
    81   1 H        0.926     0.044     2.402     2.424
    82   1 H        0.926     0.041     2.432     2.439
    83   1 H        0.926     0.035     2.518     2.482
    84   1 H        0.926     0.036     2.496     2.471
    85   1 H        0.926     0.032     2.558     2.501
    86   1 H        0.926     0.030     2.588     2.516
    87   1 H        0.926     0.029     2.596     2.520
    88   1 H        0.926     0.030     2.588     2.515
    89   1 H        0.926     0.032     2.554     2.499
    90   1 H        0.926     0.037     2.493     2.469
    91   1 H        0.926     0.035     2.517     2.481
    92   1 H        0.926     0.032     2.553     2.499
    93   1 H        0.926     0.033     2.540     2.492
    94   1 H        0.926     0.035     2.510     2.478
    95   1 H        0.925     0.044     2.391     2.418
    96   1 H        0.925     0.035     2.523     2.484
    97   1 H        0.925     0.044     2.396     2.421
    98   1 H        0.925     0.044     2.395     2.420
    99   1 H        0.925     0.045     2.383     2.414
   100   1 H        0.925     0.035     2.514     2.480
   101   1 H        0.926     0.030     2.590     2.517
   102   1 H        0.926     0.028     2.615     2.529
   103   1 H        0.926     0.027     2.629     2.536
   104   1 H        0.926     0.028     2.613     2.528
   105   1 H        0.926     0.040     2.447     2.446
   106   1 H        0.926     0.042     2.419     2.432
   107   1 H        0.926     0.057     2.230     2.335
   108   1 H        0.926     0.059     2.210     2.325
   109   1 H        0.926     0.033     2.548     2.496
   110   1 H        0.926     0.028     2.613     2.528
   111   1 H        0.926     0.033     2.545     2.495
   112   1 H        0.926     0.034     2.532     2.488
   113   1 H        0.926     0.035     2.513     2.479
   114   1 H        0.926     0.035     2.515     2.480

molecular dipole:
                 x           y           z       tot (Debye)
 q only:       -2.650      -0.190      -0.285
   full:       -2.884      -0.181      -0.248       7.372

 projected vibrational frequencies (cm⁻¹)
eigval :       -0.00    -0.00     0.00     0.00     0.00     0.00
eigval :        5.98     6.26     7.68    14.03    15.77    20.40
eigval :       21.79    24.96    28.01    30.60    35.30    38.84
eigval :       45.10    49.75    60.18    66.01    66.66    71.02
eigval :       75.82    83.76    89.29    99.29   100.48   108.26
eigval :      113.28   123.99   128.55   129.98   145.19   148.50
eigval :      160.68   164.27   175.00   177.58   189.20   191.51
eigval :      193.87   211.47   216.07   222.42   226.38   246.92
eigval :      254.58   257.42   268.72   275.90   281.73   287.09
eigval :      288.05   296.97   309.56   315.34   324.99   326.25
eigval :      336.02   346.03   356.56   368.15   368.96   372.81
eigval :      377.03   379.53   384.35   389.44   389.85   394.06
eigval :      396.77   411.98   421.84   426.99   434.42   440.40
eigval :      457.25   464.62   467.52   478.99   483.12   489.82
eigval :      497.68   518.07   530.20   532.20   541.84   546.03
eigval :      548.09   561.73   565.80   568.31   578.26   579.45
eigval :      586.64   588.35   589.01   591.48   597.07   601.01
eigval :      602.76   609.61   617.31   620.65   630.57   634.21
eigval :      663.15   664.80   670.03   677.02   682.57   685.85
eigval :      688.18   690.07   692.46   694.16   711.22   719.91
eigval :      723.47   740.65   746.12   746.97   753.03   756.51
eigval :      765.60   775.06   779.50   782.10   797.74   808.71
eigval :      815.22   819.49   819.80   828.43   829.72   844.61
eigval :      851.28   868.48   872.79   876.75   877.76   878.84
eigval :      879.13   880.69   884.33   885.38   899.65   903.41
eigval :      906.92   910.59   910.96   911.96   912.99   915.73
eigval :      920.00   924.11   926.18   927.86   928.42   928.66
eigval :      928.80   930.97   931.17   931.37   932.06   934.53
eigval :      942.87   947.18   962.49   964.39   970.81   977.61
eigval :      979.43   990.95  1005.51  1008.63  1018.01  1024.90
eigval :     1026.98  1030.28  1059.37  1060.92  1067.41  1074.57
eigval :     1077.47  1081.42  1083.05  1086.54  1109.97  1116.39
eigval :     1116.97  1118.28  1119.91  1135.65  1139.70  1141.12
eigval :     1146.17  1149.67  1156.78  1172.39  1178.56  1179.74
eigval :     1180.13  1180.74  1182.04  1182.24  1185.33  1191.69
eigval :     1194.35  1195.60  1198.09  1199.43  1203.78  1212.58
eigval :     1221.76  1224.95  1226.80  1229.85  1237.00  1241.12
eigval :     1249.95  1267.77  1269.52  1270.68  1276.47  1277.56
eigval :     1279.04  1279.66  1281.09  1290.67  1298.05  1309.47
eigval :     1310.29  1312.68  1313.87  1316.02  1318.02  1322.92
eigval :     1326.34  1331.39  1333.43  1349.72  1362.46  1368.33
eigval :     1387.76  1389.25  1403.39  1404.22  1405.72  1407.69
eigval :     1414.88  1418.02  1424.17  1430.28  1431.71  1433.00
eigval :     1436.18  1441.95  1453.64  1455.58  1462.96  1472.01
eigval :     1472.30  1480.48  1481.86  1483.73  1484.99  1486.94
eigval :     1490.67  1493.07  1497.29  1498.35  1504.27  1536.06
eigval :     1542.31  1557.03  1561.34  1574.16  1575.97  1576.51
eigval :     1580.20  1581.78  1582.90  1583.54  1587.47  1590.41
eigval :     1593.08  1598.05  1598.32  1598.92  1601.81  1608.01
eigval :     1646.45  1666.71  3007.41  3025.13  3028.70  3029.24
eigval :     3031.62  3035.67  3036.41  3038.66  3041.96  3064.93
eigval :     3065.05  3066.02  3066.61  3066.87  3069.16  3069.88
eigval :     3070.36  3074.95  3075.06  3075.75  3075.88  3076.23
eigval :     3076.91  3077.78  3078.04  3079.50  3080.17  3080.24
eigval :     3081.94  3083.21  3083.47  3084.18  3085.14  3086.64
eigval :     3087.19  3087.47  3088.93  3089.14  3090.23  3090.88
eigval :     3091.41  3092.33  3094.55  3096.52  3096.96  3107.00

   temp. (K)  partition function   enthalpy   heat capacity  entropy
                                   cal/mol     cal/K/mol   cal/K/mol   J/K/mol
 298.15  VIB  0.287E+29            33896.548    207.678    214.636
         ROT  0.422E+09              888.752      2.981     42.447
         INT  0.121E+38            34785.300    210.659    257.083
         TR   0.250E+29             1481.254      4.968     46.163
         TOT                       36266.5542   215.6270   303.2460  1268.7814

       T/K    H(0)-H(T)+PV         H(T)/Eh          T*S/Eh         G(T)/Eh
   ------------------------------------------------------------------------
    298.15    0.577944E-01    0.944291E+00    0.144082E+00    0.800209E+00
   ------------------------------------------------------------------------

         :::::::::::::::::::::::::::::::::::::::::::::::::::::
         ::                  THERMODYNAMIC                  ::
         :::::::::::::::::::::::::::::::::::::::::::::::::::::
         :: total free energy        -173.846835615638 Eh   ::
         ::.................................................::
         :: total energy             -174.647044976863 Eh   ::
         :: zero point energy           0.886496907435 Eh   ::
         :: G(RRHO) w/o ZPVE           -0.086287546210 Eh   ::
         :: G(RRHO) contrib.            0.800209361225 Eh   ::
         :::::::::::::::::::::::::::::::::::::::::::::::::::::

           -------------------------------------------------
          | TOTAL ENERGY             -174.647044976863 Eh   |
          | TOTAL ENTHALPY           -173.702753636492 Eh   |
          | TOTAL FREE ENERGY        -173.846835615638 Eh   |
          | GRADIENT NORM               0.000114350147 Eh/α |
          | HOMO-LUMO GAP               1.030976868769 eV   |
           -------------------------------------------------

 * finished run on 2025/09/05 at 06:19:07.055
