   * xtb version 6.7.1 (edcfbbe) compiled by 'albert@albert-system' on 2024-07-22

   ID    Z sym.   atoms
    1    6 C      1-11, 13, 15-24, 26-59, 61-68
    2    7 N      12, 25
    3    8 O      14, 60
    4    1 H      69-114

          program call               : xtb data2507/toluene/NAI–PhBiFA/NAI–PhBiFA.xyz --gfn 2 --gbsa toluene --ohess vtight --parallel 40 --molden --ceasefiles --namespace data2507/toluene/NAI–PhBiFA/NAI–PhBiFA_toluene_S0_preOpt
      * Solvation model:               GBSA
        Solvent                        toluene
        Solvent mass                       9.2140E+01 g/mol
          :  Hamiltonian                  GFN2-xTB          :
 * total energy  :  -174.6112372 Eh     change       -0.2981096E-08 Eh
 * total energy  :  -174.6286250 Eh     change       -0.1738778E-01 Eh
 * total energy  :  -174.6342190 Eh     change       -0.5593992E-02 Eh
 * total energy  :  -174.6365382 Eh     change       -0.2319194E-02 Eh
 * total energy  :  -174.6385374 Eh     change       -0.1999261E-02 Eh
 * total energy  :  -174.6396269 Eh     change       -0.1089462E-02 Eh
 * total energy  :  -174.6401607 Eh     change       -0.5337904E-03 Eh
 * total energy  :  -174.6404637 Eh     change       -0.3029741E-03 Eh
 * total energy  :  -174.6406860 Eh     change       -0.2223734E-03 Eh
 * total energy  :  -174.6408963 Eh     change       -0.2103074E-03 Eh
 * total energy  :  -174.6470576 Eh     change       -0.1215104E-05 Eh
 * total energy  :  -174.6470587 Eh     change       -0.1126920E-05 Eh
 * total energy  :  -174.6470597 Eh     change       -0.9591257E-06 Eh
 * total energy  :  -174.6470604 Eh     change       -0.7179669E-06 Eh
 * total energy  :  -174.6470610 Eh     change       -0.6189517E-06 Eh
 * total energy  :  -174.6470616 Eh     change       -0.5965438E-06 Eh
 * total energy  :  -174.6470622 Eh     change       -0.5852891E-06 Eh
 * total energy  :  -174.6470628 Eh     change       -0.5785841E-06 Eh
 * total energy  :  -174.6470628 Eh     change       -0.5217174E-08 Eh
   *** GEOMETRY OPTIMIZATION CONVERGED AFTER 122 ITERATIONS ***

 final structure:
================
114
 xtb: 6.7.1 (edcfbbe)
C           11.07561639794287        0.34917717590878        0.18958878506804
C            9.58666453924242        0.16757915132054        0.13482708876170
C            8.93881363127187       -0.00607572703223       -1.09209801970038
C            9.68566064042584       -0.09424149386987       -2.36534279572730
C            9.44548997119906        0.83010545823985       -3.37746458709271
C           10.11952731678033        0.74202197941617       -4.58265211467065
C           11.03257439186424       -0.27752533227516       -4.79559071307067
C           11.26853978905533       -1.20874515347305       -3.79762652011589
C           10.60185010594890       -1.11717931673510       -2.58901486430117
C            7.55224347820584       -0.08737693276329       -1.14807234099900
C            6.80657368890995       -0.01789518586956        0.01358192956179
N            5.37401146831736       -0.10190642694103       -0.04859817805303
C            4.83092799464780       -1.34930856518734       -0.31252520767539
O            5.55531992384850       -2.31816334710873       -0.46721856208340
C            3.36686667852326       -1.41780346749425       -0.38078131572504
C            2.75577841551204       -2.62258440718528       -0.67098049211365
C            1.36662453871945       -2.69906591612976       -0.76520603747467
C            0.59217562263794       -1.58806683411933       -0.53962186199456
C            1.17278648792355       -0.34853986811546       -0.20132065436267
C            0.40258107384142        0.82513527451654        0.04365961957124
C           -1.06136598742966        0.78372131383929        0.09123126964760
C           -1.73479251345173       -0.13306919250205        0.90160946032015
C           -3.11052327346386       -0.14762920057131        0.96254896704680
C           -3.86845026343178        0.74290132909634        0.19503924444164
N           -5.25736082908771        0.70544091346688        0.23272892223679
C           -6.00790195797582        1.87719805143486        0.06950285203166
C           -7.19996874963066        1.85709059025044       -0.65434823101342
C           -7.94266095647924        3.00895082724877       -0.80828307239728
C           -7.51780609348428        4.21814541801005       -0.25906451012257
C           -8.30481040808816        5.44597295565587       -0.44076043340282
C           -9.69567447416181        5.41986902809532       -0.35417422175679
C          -10.43476130967620        6.57517296540093       -0.52957147672490
C           -9.79851941573734        7.77577834222842       -0.79941211577043
C           -8.41662551838492        7.81385046299280       -0.88897502182204
C           -7.67566785653863        6.66046607891695       -0.70902373265857
C           -6.32487183561522        4.23107023853210        0.46279013757800
C           -5.58396475903409        3.08036840861432        0.63394324164881
C           -5.92228306329992       -0.51547245760754        0.42864851925059
C           -7.05752793338062       -0.57265697960758        1.23858420846028
C           -7.72479704763182       -1.76634783287704        1.44251436293817
C           -7.24516001677047       -2.91762336195301        0.83738631517414
C           -6.10435669258835       -2.86380748598178        0.02142185517830
C           -5.44752830850960       -1.67536074775788       -0.19148675053274
C           -5.77145752111041       -4.23286176134632       -0.52813801120850
C           -5.84460604409084       -4.24904605805537       -2.05896313127704
C           -4.38847730245982       -4.69282636411193       -0.05335300793090
C           -6.87011176229319       -5.07629015019704        0.08128836254860
C           -7.09953183071631       -6.42837480329868       -0.05629502449716
C           -8.18319612017566       -6.99578184426727        0.60219132877486
C           -9.02274017204653       -6.21946061721866        1.38639668182963
C           -8.80056538164044       -4.85913589526383        1.52975687156255
C           -7.72028540924431       -4.29009739861760        0.87442540758123
C           -3.19578691038602        1.66678649649584       -0.61102053807346
C           -1.81909084456306        1.69438330641607       -0.64678858340419
C            1.05203077434829        2.02967727963696        0.25197000602730
C            2.43861441228443        2.11002603657082        0.28496588331234
C            3.21305680100364        0.97747322518936        0.10259327963826
C            2.58945579547595       -0.26135546124703       -0.15503864517574
C            4.67113992466306        1.07730160402006        0.16125153265163
O            5.26838448613474        2.12047293668906        0.37100934464048
C            7.43370536612294        0.13707794858455        1.23521245852400
C            8.81924202318105        0.23000202155449        1.30201697404284
C            9.43158510366804        0.40950454250768        2.63555740383158
C           10.33569999404305       -0.51673612346307        3.14600233047044
C           10.87483132119230       -0.34658444351073        4.40865997918229
C           10.52221097679847        0.75259838022224        5.17435326374842
C            9.61803094718540        1.67628687974439        4.67612676289575
C            9.07080196869865        1.50311044775311        3.41727711868009
H           11.35104018756923        0.97479013513590        1.03535834895447
H           11.57957550806730       -0.60950125053255        0.30350173211109
H           11.43558753939862        0.80866666117061       -0.72801989119310
H            8.73452518253699        1.62680007650863       -3.20774563206979
H            9.93000961351848        1.47000422590576       -5.35854836507635
H           11.55616254769797       -0.34777163868985       -5.73786874414038
H           11.97398866138836       -2.01052042150957       -3.96208202676749
H           10.77485548590489       -1.85175965153968       -1.81655053514036
H            7.05824468408684       -0.21745118456388       -2.10034638233743
H            3.37693379586325       -3.48998276190439       -0.83852440298654
H            0.90395660071298       -3.63939226125582       -1.02306214068192
H           -0.48030626796061       -1.65180700177885       -0.63674289357127
H           -1.16767513342633       -0.81161422590657        1.52171847330298
H           -3.61338174174402       -0.84714184559127        1.61356372276998
H           -7.53567688229524        0.93166039148754       -1.09936497028775
H           -8.85226309719020        2.97892361824119       -1.39000299178606
H          -10.19784231663453        4.49011537768274       -0.12804695129149
H          -11.51236110568475        6.54037594966020       -0.45389780578143
H          -10.37694055441734        8.67750734504337       -0.93894646842093
H           -7.91479388505346        8.74692349335488       -1.10297880799177
H           -6.59931228744199        6.69454567235433       -0.79780479063918
H           -5.98979202482859        5.14990766290846        0.92140809153951
H           -4.67260005178013        3.10398766553637        1.21359957164516
H           -7.41079305498681        0.33168434777192        1.71234958418043
H           -8.59999896796474       -1.79619656470998        2.07426015358038
H           -4.57743902969066       -1.62187160665439       -0.82898800697673
H           -5.09340688480768       -3.58496718432092       -2.47994398348866
H           -6.82686726930750       -3.91973556686222       -2.39239190922856
H           -5.67042917467960       -5.25464891127018       -2.43416019720093
H           -4.19174291193144       -5.70653151785716       -0.39397150824561
H           -3.61691409870710       -4.03595261164579       -0.44801334333627
H           -4.33872958803202       -4.67642369161817        1.03373627776786
H           -6.45259986900802       -7.04429137816570       -0.66431974728753
H           -8.37375734136682       -8.05489245622569        0.50314069871851
H           -9.85979487129513       -6.68149981944283        1.89044149821935
H           -9.45676269629257       -4.25712975615435        2.14130483053209
H           -3.76463283969182        2.35614897096381       -1.21692874288834
H           -1.31705268496307        2.40358837390915       -1.28807205511508
H            0.46733013268148        2.92048149237232        0.42615812608083
H            2.93608961857151        3.05091608103291        0.46900767236240
H            6.84628144352350        0.18661939938958        2.14090607254051
H           10.60059184442239       -1.38124412637932        2.55558176235794
H           11.57238181922741       -1.07476445475713        4.79694951941738
H           10.94760908354413        0.88746564460797        6.15816643746304
H            9.33646273927843        2.53376311807178        5.27047972049469
H            8.36604965613065        2.22249327137351        3.02384700400257

          :  Hamiltonian                  GFN2-xTB          :
         :: gradient norm              0.000056777577 Eh/a0 ::
         :: HOMO-LUMO gap              1.029400896790 eV    ::
         :: SCC energy              -177.832070684151 Eh    ::
         :: -> dispersion             -0.158766505372 Eh    ::
         :: -> Gsolv                  -0.079032034241 Eh    ::
         :: repulsion energy           3.185007885750 Eh    ::

    * Orbital Energies and Occupations

         #    Occupation            Energy/Eh            Energy/eV
      -------------------------------------------------------------
         1        2.0000           -0.7196928             -19.5838
       ...           ...                  ...                  ...
       150        2.0000           -0.4083862             -11.1128
       151        2.0000           -0.4044618             -11.0060
       152        2.0000           -0.4044189             -11.0048
       153        2.0000           -0.4041067             -10.9963
       154        2.0000           -0.4039381             -10.9917
       155        2.0000           -0.4032388             -10.9727
       156        2.0000           -0.4018169             -10.9340
       157        2.0000           -0.3967517             -10.7962
       158        2.0000           -0.3918407             -10.6625
       159        2.0000           -0.3900371             -10.6134
       160        2.0000           -0.3893240             -10.5940
       161        2.0000           -0.3834798             -10.4350
       162        2.0000           -0.3509113              -9.5488 (HOMO)
       163                         -0.3130815              -8.5194 (LUMO)
       164                         -0.2580879              -7.0229
       165                         -0.2531088              -6.8874
       166                         -0.2499688              -6.8020
       167                         -0.2456837              -6.6854
       168                         -0.2429084              -6.6099
       169                         -0.2371447              -6.4530
       170                         -0.2331018              -6.3430
       171                         -0.2320379              -6.3141
       172                         -0.2258607              -6.1460
       173                         -0.2234693              -6.0809
       ...                                ...                  ...
       318                          0.7305643              19.8797
      -------------------------------------------------------------
                  HL-Gap            0.0378298 Eh            1.0294 eV

     #   Z          covCN         q      C6AA      α(0)
     1   6 C        3.757    -0.108    22.625     6.782
     2   6 C        2.969     0.012    27.752     8.641
     3   6 C        2.981     0.003    27.941     8.671
     4   6 C        2.979     0.014    27.693     8.632
     5   6 C        2.925    -0.034    28.842     8.807
     6   6 C        2.918    -0.030    28.754     8.793
     7   6 C        2.920    -0.032    28.794     8.800
     8   6 C        2.919    -0.030    28.750     8.793
     9   6 C        2.924    -0.031    28.785     8.798
    10   6 C        2.927    -0.040    28.991     8.830
    11   6 C        2.932     0.081    26.204     8.395
    12   7 N        2.747    -0.121    23.629     7.219
    13   6 C        2.776     0.277    22.321     7.738
    14   8 O        0.859    -0.449    22.687     6.386
    15   6 C        2.977    -0.031    28.776     8.799
    16   6 C        2.922    -0.010    28.272     8.720
    17   6 C        2.914    -0.026    28.644     8.776
    18   6 C        2.918    -0.021    28.525     8.758
    19   6 C        2.983     0.015    27.669     8.628
    20   6 C        2.974     0.024    27.469     8.597
    21   6 C        2.977     0.002    27.970     8.675
    22   6 C        2.922    -0.031    28.779     8.797
    23   6 C        2.920    -0.048    29.197     8.861
    24   6 C        2.923     0.068    26.482     8.439
    25   7 N        2.752    -0.066    22.512     7.047
    26   6 C        2.924     0.062    26.613     8.460
    27   6 C        2.920    -0.047    29.163     8.856
    28   6 C        2.924    -0.034    28.848     8.808
    29   6 C        2.975     0.003    27.957     8.673
    30   6 C        2.976     0.009    27.803     8.649
    31   6 C        2.925    -0.035    28.881     8.813
    32   6 C        2.918    -0.031    28.771     8.796
    33   6 C        2.920    -0.033    28.815     8.803
    34   6 C        2.918    -0.031    28.771     8.796
    35   6 C        2.925    -0.035    28.882     8.813
    36   6 C        2.924    -0.034    28.854     8.809
    37   6 C        2.920    -0.048    29.186     8.859
    38   6 C        2.927     0.059    26.667     8.469
    39   6 C        2.923    -0.050    29.242     8.868
    40   6 C        2.913    -0.035    28.872     8.811
    41   6 C        3.035    -0.008    28.172     8.706
    42   6 C        3.054     0.000    27.972     8.674
    43   6 C        2.917    -0.051    29.268     8.872
    44   6 C        3.935     0.019    20.192     6.386
    45   6 C        3.758    -0.099    22.446     6.754
    46   6 C        3.758    -0.099    22.446     6.755
    47   6 C        3.055    -0.002    28.031     8.683
    48   6 C        2.915    -0.035    28.869     8.811
    49   6 C        2.921    -0.035    28.872     8.812
    50   6 C        2.921    -0.035    28.868     8.811
    51   6 C        2.914    -0.037    28.912     8.817
    52   6 C        3.036    -0.002    28.031     8.684
    53   6 C        2.920    -0.048    29.187     8.859
    54   6 C        2.923    -0.031    28.779     8.797
    55   6 C        2.921    -0.033    28.828     8.805
    56   6 C        2.919    -0.011    28.298     8.723
    57   6 C        2.976    -0.036    28.898     8.818
    58   6 C        2.993     0.008    27.825     8.653
    59   6 C        2.776     0.276    22.328     7.739
    60   8 O        0.859    -0.452    22.747     6.394
    61   6 C        2.928    -0.040    28.989     8.830
    62   6 C        2.981     0.003    27.943     8.671
    63   6 C        2.979     0.014    27.703     8.634
    64   6 C        2.924    -0.032    28.803     8.801
    65   6 C        2.919    -0.030    28.758     8.794
    66   6 C        2.920    -0.032    28.795     8.800
    67   6 C        2.918    -0.030    28.750     8.793
    68   6 C        2.925    -0.033    28.831     8.805
    69   1 H        0.925     0.051     2.312     2.378
    70   1 H        0.925     0.058     2.228     2.334
    71   1 H        0.925     0.050     2.316     2.380
    72   1 H        0.926     0.028     2.614     2.528
    73   1 H        0.926     0.033     2.547     2.496
    74   1 H        0.926     0.034     2.532     2.488
    75   1 H        0.926     0.035     2.512     2.478
    76   1 H        0.926     0.036     2.502     2.474
    77   1 H        0.926     0.033     2.546     2.495
    78   1 H        0.926     0.061     2.190     2.314
    79   1 H        0.926     0.060     2.204     2.322
    80   1 H        0.926     0.067     2.122     2.278
    81   1 H        0.926     0.043     2.415     2.430
    82   1 H        0.926     0.041     2.435     2.440
    83   1 H        0.926     0.035     2.521     2.483
    84   1 H        0.926     0.036     2.496     2.471
    85   1 H        0.926     0.032     2.558     2.501
    86   1 H        0.926     0.030     2.588     2.516
    87   1 H        0.926     0.029     2.596     2.520
    88   1 H        0.926     0.030     2.587     2.515
    89   1 H        0.926     0.032     2.555     2.500
    90   1 H        0.926     0.037     2.492     2.469
    91   1 H        0.926     0.035     2.510     2.478
    92   1 H        0.926     0.032     2.553     2.499
    93   1 H        0.926     0.033     2.538     2.491
    94   1 H        0.926     0.036     2.506     2.476
    95   1 H        0.925     0.044     2.390     2.418
    96   1 H        0.925     0.035     2.523     2.484
    97   1 H        0.925     0.044     2.396     2.421
    98   1 H        0.925     0.044     2.395     2.420
    99   1 H        0.925     0.045     2.383     2.414
   100   1 H        0.925     0.035     2.515     2.480
   101   1 H        0.926     0.030     2.589     2.516
   102   1 H        0.926     0.028     2.615     2.529
   103   1 H        0.926     0.027     2.628     2.535
   104   1 H        0.926     0.028     2.612     2.527
   105   1 H        0.926     0.040     2.451     2.448
   106   1 H        0.926     0.041     2.432     2.439
   107   1 H        0.926     0.057     2.232     2.337
   108   1 H        0.926     0.059     2.209     2.324
   109   1 H        0.926     0.033     2.547     2.496
   110   1 H        0.926     0.036     2.498     2.471
   111   1 H        0.926     0.035     2.513     2.479
   112   1 H        0.926     0.034     2.534     2.489
   113   1 H        0.926     0.033     2.550     2.497
   114   1 H        0.926     0.030     2.591     2.517

molecular dipole:
                 x           y           z       tot (Debye)
 q only:       -2.626      -0.275      -0.266
   full:       -2.864      -0.234      -0.240       7.329

 projected vibrational frequencies (cm⁻¹)
eigval :       -0.00    -0.00    -0.00    -0.00     0.00     0.00
eigval :        3.76     6.14     8.60    14.34    16.78    20.35
eigval :       21.37    25.66    32.91    38.72    39.45    40.69
eigval :       45.79    51.56    59.86    63.85    66.11    69.72
eigval :       75.36    79.47    89.76    98.13    99.25   106.25
eigval :      114.08   123.67   127.02   129.47   143.61   147.02
eigval :      160.19   161.10   174.60   176.63   189.13   189.98
eigval :      194.37   212.26   215.41   224.65   225.79   248.40
eigval :      256.53   259.73   266.11   278.46   281.09   288.15
eigval :      290.00   297.45   310.50   315.99   324.86   326.18
eigval :      336.39   345.04   356.04   370.10   370.55   371.27
eigval :      376.33   379.01   382.70   387.81   389.18   393.80
eigval :      396.44   412.41   421.96   425.27   433.13   440.67
eigval :      458.34   464.40   467.82   478.81   482.72   490.63
eigval :      496.83   518.16   529.27   530.87   542.00   545.03
eigval :      547.15   561.75   565.74   568.40   578.41   578.96
eigval :      586.62   588.87   589.45   591.04   596.78   600.57
eigval :      602.17   609.64   618.33   620.53   630.63   634.23
eigval :      663.51   665.98   670.78   677.26   682.07   684.87
eigval :      685.84   689.06   693.10   694.34   710.64   719.78
eigval :      723.62   740.53   745.24   746.41   754.63   756.70
eigval :      766.12   775.21   777.99   781.11   797.54   807.01
eigval :      814.39   817.05   819.92   827.67   830.19   848.57
eigval :      850.03   867.23   870.43   876.79   878.54   879.10
eigval :      880.56   882.04   884.84   888.89   899.19   904.91
eigval :      905.66   909.74   909.85   911.77   913.80   914.32
eigval :      917.77   922.66   924.48   925.52   927.12   928.03
eigval :      930.96   931.10   931.77   931.99   932.24   933.32
eigval :      938.33   947.08   962.95   964.65   970.90   977.83
eigval :      979.15   991.00  1005.27  1010.00  1018.17  1024.53
eigval :     1026.68  1027.21  1059.00  1060.94  1067.59  1074.96
eigval :     1077.36  1082.92  1084.27  1087.71  1110.49  1115.88
eigval :     1117.95  1118.93  1121.45  1135.14  1139.85  1141.19
eigval :     1145.14  1149.01  1157.25  1172.47  1179.12  1179.32
eigval :     1179.92  1181.07  1181.20  1181.67  1184.86  1192.26
eigval :     1195.03  1196.95  1198.86  1199.74  1204.78  1211.56
eigval :     1221.30  1225.12  1227.54  1229.81  1236.06  1240.77
eigval :     1249.93  1267.59  1269.83  1270.67  1276.74  1278.74
eigval :     1279.94  1280.82  1281.44  1290.65  1298.04  1309.80
eigval :     1310.45  1313.17  1314.02  1316.54  1317.34  1323.14
eigval :     1326.96  1331.23  1333.70  1349.72  1362.39  1368.01
eigval :     1388.17  1390.30  1401.63  1403.36  1406.54  1407.69
eigval :     1414.60  1418.07  1424.64  1431.00  1431.59  1433.15
eigval :     1436.14  1442.22  1453.64  1455.54  1463.20  1472.11
eigval :     1472.23  1479.08  1481.87  1483.36  1485.42  1487.42
eigval :     1490.98  1493.30  1497.88  1498.36  1504.27  1536.59
eigval :     1542.89  1557.13  1562.07  1574.13  1575.61  1576.77
eigval :     1580.71  1581.90  1583.26  1583.93  1587.63  1590.52
eigval :     1593.04  1598.05  1598.65  1599.22  1601.96  1607.86
eigval :     1646.56  1667.17  3007.46  3025.10  3028.51  3029.81
eigval :     3032.19  3036.27  3037.73  3039.40  3040.22  3064.33
eigval :     3064.94  3065.86  3066.26  3067.85  3068.90  3069.34
eigval :     3069.63  3074.80  3074.98  3075.63  3075.79  3075.98
eigval :     3077.08  3078.25  3078.36  3079.57  3079.67  3080.62
eigval :     3081.71  3082.36  3083.18  3083.40  3084.81  3086.21
eigval :     3086.55  3087.35  3088.00  3089.46  3089.96  3090.30
eigval :     3090.78  3092.54  3094.67  3095.60  3095.97  3105.45

   temp. (K)  partition function   enthalpy   heat capacity  entropy
                                   cal/mol     cal/K/mol   cal/K/mol   J/K/mol
 298.15  VIB  0.257E+29            33892.811    208.013    215.110
         ROT  0.421E+09              888.752      2.981     42.444
         INT  0.108E+38            34781.563    210.994    257.554
         TR   0.250E+29             1481.254      4.968     46.163
         TOT                       36262.8169   215.9625   303.7165  1270.7496

       T/K    H(0)-H(T)+PV         H(T)/Eh          T*S/Eh         G(T)/Eh
   ------------------------------------------------------------------------
    298.15    0.577885E-01    0.944264E+00    0.144305E+00    0.799958E+00
   ------------------------------------------------------------------------

         :::::::::::::::::::::::::::::::::::::::::::::::::::::
         ::                  THERMODYNAMIC                  ::
         :::::::::::::::::::::::::::::::::::::::::::::::::::::
         :: total free energy        -173.847104733994 Eh   ::
         ::.................................................::
         :: total energy             -174.647062807938 Eh   ::
         :: zero point energy           0.886475082798 Eh   ::
         :: G(RRHO) w/o ZPVE           -0.086517008854 Eh   ::
         :: G(RRHO) contrib.            0.799958073944 Eh   ::
         :::::::::::::::::::::::::::::::::::::::::::::::::::::

           -------------------------------------------------
          | TOTAL ENERGY             -174.647062807938 Eh   |
          | TOTAL ENTHALPY           -173.702799247964 Eh   |
          | TOTAL FREE ENERGY        -173.847104733994 Eh   |
          | GRADIENT NORM               0.000056781709 Eh/α |
          | HOMO-LUMO GAP               1.029400536173 eV   |
           -------------------------------------------------

 * finished run on 2025/09/05 at 06:02:34.280
