   * xtb version 6.7.1 (edcfbbe) compiled by 'albert@albert-system' on 2024-07-22

   ID    Z sym.   atoms
    1    6 C      1-11, 13, 15-24, 26-59, 61-68
    2    7 N      12, 25
    3    8 O      14, 60
    4    1 H      69-114

          program call               : xtb data2507/toluene/NAI–PhBiFA/NAI–PhBiFA_toluene_S0_finalOpt.xtbopt.xyz --gfn 2 --uhf 2 --gbsa toluene --ohess vtight --parallel 40 --molden --ceasefiles --namespace data2507/toluene/NAI–PhBiFA/NAI–PhBiFA_toluene_T1_preOpt
      * Solvation model:               GBSA
        Solvent                        toluene
        Solvent mass                       9.2140E+01 g/mol
          :  Hamiltonian                  GFN2-xTB          :
 * total energy  :  -174.5828043 Eh     change       -0.1084047E-07 Eh
 * total energy  :  -174.5861374 Eh     change       -0.3333097E-02 Eh
 * total energy  :  -174.5869820 Eh     change       -0.8446359E-03 Eh
 * total energy  :  -174.5871231 Eh     change       -0.1411412E-03 Eh
 * total energy  :  -174.5872390 Eh     change       -0.1158701E-03 Eh
 * total energy  :  -174.5872955 Eh     change       -0.5649980E-04 Eh
 * total energy  :  -174.5873371 Eh     change       -0.4160089E-04 Eh
 * total energy  :  -174.5873639 Eh     change       -0.2683049E-04 Eh
 * total energy  :  -174.5873924 Eh     change       -0.2841251E-04 Eh
 * total energy  :  -174.5873928 Eh     change       -0.4711510E-06 Eh
 * total energy  :  -174.5875796 Eh     change       -0.1603560E-05 Eh
 * total energy  :  -174.5875813 Eh     change       -0.1633788E-05 Eh
 * total energy  :  -174.5875826 Eh     change       -0.1305773E-05 Eh
 * total energy  :  -174.5875836 Eh     change       -0.1064800E-05 Eh
 * total energy  :  -174.5875845 Eh     change       -0.8378470E-06 Eh
 * total energy  :  -174.5875852 Eh     change       -0.7455372E-06 Eh
 * total energy  :  -174.5875857 Eh     change       -0.5176904E-06 Eh
 * total energy  :  -174.5875861 Eh     change       -0.3310029E-06 Eh
 * total energy  :  -174.5875861 Eh     change       -0.2068870E-07 Eh
   *** GEOMETRY OPTIMIZATION CONVERGED AFTER 43 ITERATIONS ***

 final structure:
================
114
 xtb: 6.7.1 (edcfbbe)
C           10.87392529673870        0.34742599424515        0.27986422247097
C            9.37700574789867        0.29058783432989        0.17163174787035
C            8.75872975294170       -0.07870593750927       -1.02649997220590
C            9.52940050611252       -0.36887537627248       -2.25378658038595
C           10.35759872853616        0.58820722504107       -2.83206815923899
C           11.04506043834906        0.30726457037088       -3.99931891689422
C           10.91785352545758       -0.93362393763576       -4.60145476715392
C           10.09135593500085       -1.89054722444748       -4.03564382224548
C            9.39710615365613       -1.60878271538621       -2.87259778439701
C            7.37492425622913       -0.19782956074279       -1.09096487057797
C            6.59938771435317        0.04796443744472        0.02641489977964
N            5.17598653427748       -0.08804048718830       -0.04942816362743
C            4.66904488645129       -1.37813169387288       -0.04653854016539
O            5.43634257331196       -2.34148365142212        0.03805011009489
C            3.22913262830737       -1.50138637981780       -0.14553406286250
C            2.64999457994554       -2.77890924454013       -0.19318064551851
C            1.28827078180059       -2.90747949383658       -0.34598884309030
C            0.47224553922771       -1.78313385528852       -0.40812857590493
C            0.99916606182465       -0.49019904914108       -0.28989779617652
C            0.18972276664417        0.69065460036310       -0.32796313048933
C           -1.24606900869370        0.64939067288370       -0.21163224999514
C           -1.89331636358965       -0.23856017623869        0.67341359920419
C           -3.25815769526797       -0.27067989364817        0.78555993378396
C           -4.06069094025825        0.58668522288051        0.01310673019216
N           -5.44389791674026        0.53051485148189        0.10066973177787
C           -6.19876028352682        1.69662489822304       -0.02943381648843
C           -7.42686911663857        1.67602754256627       -0.69840350773003
C           -8.16601518992574        2.83067924117316       -0.82704406979851
C           -7.71031552893641        4.04212692899498       -0.29977484025770
C           -8.49990132409542        5.26953302035969       -0.44515403805120
C           -9.88983100479179        5.24034847271952       -0.32779584239366
C          -10.63168092199411        6.39865250499390       -0.46354168872095
C          -10.00102279550108        7.60376572740494       -0.72889815822156
C           -8.62121268068728        7.64428280045772       -0.85179674187717
C           -7.87567854647260        6.48939482664885       -0.70722378435782
C           -6.48238811470831        4.05375226160561        0.36739171075832
C           -5.73662949987690        2.90412809913691        0.50387483441950
C           -6.07833204027786       -0.68914225040869        0.31900578193661
C           -7.23567068195350       -0.75006331420345        1.10846413908085
C           -7.86724227070486       -1.95280460074333        1.34511517462245
C           -7.34147258042656       -3.11328337168633        0.78850607758280
C           -6.18137163835650       -3.05626376135750       -0.00768754839608
C           -5.55176425215708       -1.86156437810209       -0.24608368476149
C           -5.80335148614096       -4.43375567058242       -0.50202210226009
C           -5.84487586516668       -4.50574547217908       -2.03265144362811
C           -4.41865060697684       -4.83998430085691        0.01584183681535
C           -6.89141101090041       -5.28291788251132        0.11685844385290
C           -7.08290912081326       -6.64478226224678        0.02690547383467
C           -8.16622418631864       -7.21393690033326        0.68480965922896
C           -9.04444127085979       -6.43157597964132        1.42272742434637
C           -8.86154103116363       -5.06301365955393        1.52018562375649
C           -7.78018016656385       -4.49041193472494        0.86435457574092
C           -3.42884164008175        1.50224231645177       -0.84452688377250
C           -2.06216123946977        1.53693371493449       -0.94399932182128
C            0.82731274412704        1.94831493254681       -0.42032867679276
C            2.18655957858699        2.07302342864957       -0.35795822228815
C            3.00573975044433        0.92938464334803       -0.23133908205473
C            2.41551155386053       -0.35164518857892       -0.21237917524955
C            4.43704055251749        1.08517682081395       -0.15056107624232
O            5.01636670015495        2.17688166059827       -0.16856626929750
C            7.19878185554518        0.41913413569028        1.21567663250875
C            8.58024225728607        0.54983378830191        1.29047979110904
C            9.16705862045739        0.95051120492435        2.58792274063557
C            8.99117085348674        0.14364617669775        3.70777659793752
C            9.51620666480685        0.51823828876603        4.93199423395326
C           10.21150168595173        1.70981842487188        5.05483241488414
C           10.37961864299344        2.52513051757452        3.94768216742853
C            9.86348659440997        2.14743688389541        2.72099027596445
H           11.23845634102226        1.35519376222818        0.08539694478899
H           11.19046732420094        0.06610372955352        1.28177734207844
H           11.33389932674133       -0.32283576370679       -0.44220527344540
H           10.44562394665493        1.56084805523589       -2.37123932675623
H           11.68125929850150        1.06037651710967       -4.44161277001970
H           11.45833583985140       -1.15359040867700       -5.51062292713332
H            9.98478542230057       -2.85942334005687       -4.50237949095725
H            8.75184946124120       -2.35294609391547       -2.42617947784921
H            6.90034887918727       -0.48308927707019       -2.01964056036221
H            3.30359441794444       -3.63593174935847       -0.13025302266865
H            0.84593961728648       -3.89026850062496       -0.42036092234383
H           -0.58487858601677       -1.91227605105168       -0.57849580649261
H           -1.29207142165989       -0.86458185143386        1.31467636428447
H           -3.72706683933461       -0.93347012117007        1.49773657225315
H           -7.77923439797356        0.75320771564391       -1.13447745553795
H           -9.09686048226706        2.80537961436966       -1.37262611138790
H          -10.38795411827609        4.30871199621381       -0.10277249151926
H          -11.70675404281444        6.36344709465752       -0.36178129362157
H          -10.58208099273296        8.50763405564504       -0.83872659500102
H           -8.12524294018923        8.58076609880979       -1.06287645958757
H           -6.80247206779526        6.52689751890328       -0.82355103477590
H           -6.12537921164652        4.97116430210692        0.80992834322744
H           -4.80230302502605        2.92242594859294        1.04492659488847
H           -7.61490185035724        0.15685493754778        1.55472556583266
H           -8.74894879944088       -1.98944348223737        1.96586930599977
H           -4.67596395858800       -1.80438306746681       -0.87423228387983
H           -5.10031964210190       -3.84015022084884       -2.46242812882017
H           -6.82740829728970       -4.21531253972291       -2.39919938627735
H           -5.63668256403591       -5.51949153637663       -2.36532618948371
H           -4.19222478798526       -5.86108398797523       -0.28043578349066
H           -3.65439072119772       -4.18320767432098       -0.39235075645171
H           -4.38712989550162       -4.78011307887876        1.10198153614483
H           -6.40818424169763       -7.26603877447914       -0.54341522604607
H           -8.32760729237477       -8.28031571875873        0.62195656286478
H           -9.87847672462632       -6.89856547136325        1.92617998489015
H           -9.54450794406575       -4.45638604127539        2.09575830117610
H           -4.03192704086088        2.15426678826367       -1.45883705041970
H           -1.60056337805078        2.21693790526980       -1.64295015841239
H            0.21818537349262        2.83872658212980       -0.46764574862452
H            2.67206634831889        3.03690901101983       -0.38803711939998
H            6.58897789975928        0.61828693867859        2.08589552516215
H            8.44743012560962       -0.78553625496494        3.60706436724775
H            9.37892702713541       -0.12054178586764        5.79282798769223
H           10.61849701515330        2.00342737666779        6.01144271367131
H           10.91371252530610        3.45981863623974        4.04045804685754
H            9.98267285750144        2.78865952108786        1.86007625208184

          :  Hamiltonian                  GFN2-xTB          :
         :: gradient norm              0.000132769156 Eh/a0 ::
         :: HOMO-LUMO gap              0.735774922123 eV    ::
         :: SCC energy              -177.757052365042 Eh    ::
         :: -> dispersion             -0.158777117556 Eh    ::
         :: -> Gsolv                  -0.099218421312 Eh    ::
         :: repulsion energy           3.169466290346 Eh    ::

    * Orbital Energies and Occupations

         #    Occupation            Energy/Eh            Energy/eV
      -------------------------------------------------------------
         1        2.0000           -0.6949612             -18.9109
       ...           ...                  ...                  ...
       151        2.0000           -0.4032100             -10.9719
       152        2.0000           -0.4019088             -10.9365
       153        2.0000           -0.4018107             -10.9338
       154        2.0000           -0.4013459             -10.9212
       155        2.0000           -0.3985029             -10.8438
       156        2.0000           -0.3960799             -10.7779
       157        2.0000           -0.3880312             -10.5589
       158        2.0000           -0.3863299             -10.5126
       159        2.0000           -0.3844967             -10.4627
       160        2.0000           -0.3821800             -10.3996
       161        1.9994           -0.3776294             -10.2758
       162        1.0006           -0.3636056              -9.8942
       163        1.0000           -0.2963232              -8.0634 (HOMO)
       164        0.0000           -0.2692848              -7.3276 (LUMO)
       165                         -0.2609231              -7.1001
       166                         -0.2445164              -6.6536
       167                         -0.2433162              -6.6210
       168                         -0.2390623              -6.5052
       169                         -0.2373860              -6.4596
       170                         -0.2358975              -6.4191
       171                         -0.2324756              -6.3260
       172                         -0.2287381              -6.2243
       173                         -0.2283664              -6.2142
       174                         -0.2268439              -6.1727
       ...                                ...                  ...
       318                          0.7162168              19.4893
      -------------------------------------------------------------
                  HL-Gap            0.0270385 Eh            0.7358 eV

     #   Z          covCN         q      C6AA      α(0)
     1   6 C        3.757    -0.107    22.597     6.778
     2   6 C        2.969     0.008    27.839     8.655
     3   6 C        2.981     0.000    28.016     8.682
     4   6 C        2.979     0.014    27.700     8.633
     5   6 C        2.924    -0.033    28.811     8.802
     6   6 C        2.919    -0.031    28.771     8.796
     7   6 C        2.920    -0.033    28.813     8.802
     8   6 C        2.918    -0.030    28.759     8.794
     9   6 C        2.925    -0.033    28.824     8.804
    10   6 C        2.929    -0.039    28.981     8.829
    11   6 C        2.932     0.092    25.953     8.355
    12   7 N        2.749    -0.142    24.062     7.285
    13   6 C        2.778     0.261    22.599     7.786
    14   8 O        0.858    -0.512    24.063     6.577
    15   6 C        2.979    -0.042    29.048     8.841
    16   6 C        2.919    -0.034    28.839     8.806
    17   6 C        2.912    -0.033    28.813     8.802
    18   6 C        2.919    -0.049    29.214     8.863
    19   6 C        2.977     0.008    27.827     8.653
    20   6 C        2.971    -0.012    28.318     8.729
    21   6 C        2.973     0.023    27.482     8.599
    22   6 C        2.920    -0.031    28.769     8.796
    23   6 C        2.916    -0.039    28.963     8.825
    24   6 C        2.928     0.056    26.748     8.482
    25   7 N        2.753    -0.001    21.278     6.851
    26   6 C        2.928     0.059    26.677     8.470
    27   6 C        2.918    -0.038    28.946     8.823
    28   6 C        2.923    -0.029    28.723     8.789
    29   6 C        2.975     0.018    27.593     8.616
    30   6 C        2.976     0.011    27.755     8.642
    31   6 C        2.924    -0.033    28.814     8.803
    32   6 C        2.918    -0.029    28.714     8.787
    33   6 C        2.920    -0.028    28.700     8.785
    34   6 C        2.918    -0.028    28.711     8.787
    35   6 C        2.924    -0.032    28.809     8.802
    36   6 C        2.923    -0.029    28.718     8.788
    37   6 C        2.918    -0.038    28.939     8.822
    38   6 C        2.930     0.059    26.688     8.472
    39   6 C        2.921    -0.041    29.025     8.835
    40   6 C        2.912    -0.029    28.723     8.788
    41   6 C        3.036     0.008    27.805     8.649
    42   6 C        3.053     0.008    27.790     8.646
    43   6 C        2.916    -0.043    29.061     8.840
    44   6 C        3.934     0.021    20.151     6.379
    45   6 C        3.758    -0.102    22.503     6.763
    46   6 C        3.758    -0.102    22.493     6.761
    47   6 C        3.056     0.004    27.883     8.660
    48   6 C        2.914    -0.032    28.787     8.798
    49   6 C        2.922    -0.028    28.694     8.784
    50   6 C        2.920    -0.031    28.778     8.797
    51   6 C        2.913    -0.031    28.785     8.798
    52   6 C        3.036     0.003    27.932     8.669
    53   6 C        2.915    -0.038    28.944     8.822
    54   6 C        2.921    -0.032    28.799     8.800
    55   6 C        2.916    -0.034    28.857     8.809
    56   6 C        2.914    -0.036    28.904     8.816
    57   6 C        2.977    -0.041    29.003     8.834
    58   6 C        2.989     0.004    27.936     8.670
    59   6 C        2.777     0.258    22.649     7.795
    60   8 O        0.858    -0.515    24.112     6.584
    61   6 C        2.928    -0.040    28.985     8.829
    62   6 C        2.982     0.000    28.013     8.682
    63   6 C        2.979     0.014    27.685     8.631
    64   6 C        2.925    -0.034    28.835     8.806
    65   6 C        2.918    -0.030    28.761     8.794
    66   6 C        2.920    -0.033    28.814     8.803
    67   6 C        2.919    -0.030    28.760     8.794
    68   6 C        2.924    -0.031    28.784     8.798
    69   1 H        0.925     0.055     2.253     2.347
    70   1 H        0.925     0.049     2.338     2.391
    71   1 H        0.925     0.049     2.328     2.386
    72   1 H        0.926     0.036     2.509     2.477
    73   1 H        0.926     0.036     2.508     2.476
    74   1 H        0.926     0.034     2.525     2.485
    75   1 H        0.926     0.032     2.556     2.500
    76   1 H        0.925     0.027     2.634     2.538
    77   1 H        0.925     0.026     2.644     2.543
    78   1 H        0.926     0.033     2.543     2.494
    79   1 H        0.926     0.037     2.483     2.464
    80   1 H        0.926     0.044     2.400     2.422
    81   1 H        0.926     0.051     2.311     2.377
    82   1 H        0.926     0.052     2.295     2.369
    83   1 H        0.926     0.052     2.292     2.368
    84   1 H        0.926     0.053     2.281     2.362
    85   1 H        0.926     0.040     2.449     2.447
    86   1 H        0.926     0.035     2.512     2.478
    87   1 H        0.926     0.034     2.531     2.488
    88   1 H        0.926     0.034     2.525     2.485
    89   1 H        0.926     0.038     2.469     2.457
    90   1 H        0.926     0.051     2.303     2.373
    91   1 H        0.926     0.050     2.316     2.380
    92   1 H        0.926     0.051     2.307     2.375
    93   1 H        0.926     0.051     2.306     2.375
    94   1 H        0.926     0.051     2.307     2.375
    95   1 H        0.925     0.048     2.344     2.394
    96   1 H        0.925     0.040     2.455     2.450
    97   1 H        0.925     0.048     2.345     2.394
    98   1 H        0.925     0.048     2.348     2.396
    99   1 H        0.925     0.048     2.348     2.396
   100   1 H        0.925     0.038     2.470     2.458
   101   1 H        0.926     0.037     2.488     2.466
   102   1 H        0.926     0.036     2.502     2.474
   103   1 H        0.926     0.035     2.512     2.478
   104   1 H        0.926     0.039     2.463     2.454
   105   1 H        0.926     0.052     2.300     2.372
   106   1 H        0.926     0.049     2.334     2.389
   107   1 H        0.926     0.042     2.425     2.435
   108   1 H        0.926     0.035     2.521     2.483
   109   1 H        0.926     0.027     2.636     2.539
   110   1 H        0.925     0.026     2.647     2.544
   111   1 H        0.926     0.033     2.547     2.496
   112   1 H        0.926     0.035     2.522     2.483
   113   1 H        0.926     0.036     2.509     2.477
   114   1 H        0.926     0.034     2.533     2.489

molecular dipole:
                 x           y           z       tot (Debye)
 q only:      -11.193       0.229      -0.009
   full:      -11.321       0.206       0.020      28.780

 projected vibrational frequencies (cm⁻¹)
eigval :       -0.00    -0.00     0.00     0.00     0.00     0.00
eigval :        4.02     7.26     8.12    15.96    16.86    18.57
eigval :       22.13    23.88    33.14    35.12    35.30    36.32
eigval :       44.99    51.16    60.52    65.96    68.09    70.73
eigval :       76.61    85.51    89.86    98.67   101.26   112.44
eigval :      114.24   123.98   128.93   133.26   145.64   147.12
eigval :      159.08   159.56   174.87   184.68   186.77   188.64
eigval :      196.98   213.99   218.81   223.85   226.64   247.20
eigval :      254.38   257.31   269.34   273.80   282.20   286.11
eigval :      287.21   293.79   309.05   311.86   320.43   322.26
eigval :      333.47   338.55   352.81   367.71   368.45   372.18
eigval :      375.41   378.34   382.00   387.06   389.76   392.58
eigval :      398.42   405.86   414.86   426.48   435.39   448.59
eigval :      461.72   466.34   467.20   477.92   481.61   492.45
eigval :      497.96   516.13   519.58   524.65   531.87   537.16
eigval :      547.94   561.39   564.56   567.43   577.77   578.03
eigval :      581.41   583.77   587.20   589.63   591.14   597.46
eigval :      601.16   604.48   607.54   617.95   626.05   633.58
eigval :      661.11   662.91   664.37   667.70   675.81   678.18
eigval :      681.87   687.01   688.61   691.17   694.77   718.28
eigval :      724.78   728.47   739.55   744.20   752.88   756.20
eigval :      765.51   773.51   775.68   780.21   783.64   794.65
eigval :      807.86   815.80   819.89   825.54   831.70   832.09
eigval :      845.14   853.30   862.85   872.95   874.26   875.31
eigval :      876.49   878.52   880.20   881.39   888.38   900.69
eigval :      901.95   902.72   905.66   905.93   908.33   910.76
eigval :      913.56   917.39   920.90   923.56   924.98   928.04
eigval :      928.81   929.82   930.51   931.00   932.38   933.89
eigval :      943.28   945.79   961.39   965.24   968.31   976.60
eigval :      979.56   986.66  1000.04  1008.02  1013.38  1019.83
eigval :     1024.79  1029.33  1052.75  1060.51  1065.99  1071.16
eigval :     1074.52  1081.69  1083.00  1084.37  1105.81  1115.02
eigval :     1116.18  1117.73  1119.93  1128.07  1139.55  1140.47
eigval :     1141.78  1147.26  1154.14  1166.06  1170.47  1174.17
eigval :     1179.07  1179.28  1179.95  1180.75  1185.19  1186.51
eigval :     1190.67  1194.28  1195.35  1198.06  1199.50  1203.74
eigval :     1213.47  1219.37  1221.25  1227.54  1237.15  1239.74
eigval :     1247.38  1263.16  1264.75  1268.92  1276.43  1277.28
eigval :     1278.19  1279.12  1279.73  1290.90  1302.19  1304.43
eigval :     1308.16  1312.78  1313.75  1313.94  1316.94  1322.45
eigval :     1324.29  1333.52  1339.44  1354.65  1358.20  1361.71
eigval :     1384.28  1391.43  1402.58  1405.01  1406.76  1408.08
eigval :     1416.85  1417.34  1420.99  1424.50  1429.95  1430.31
eigval :     1431.35  1433.33  1447.98  1450.39  1454.41  1455.84
eigval :     1461.83  1466.10  1473.40  1479.77  1481.06  1483.16
eigval :     1484.21  1484.59  1487.64  1491.20  1491.47  1495.76
eigval :     1503.63  1510.71  1537.24  1549.24  1551.46  1561.55
eigval :     1567.39  1574.07  1575.22  1578.43  1579.06  1581.37
eigval :     1581.99  1584.55  1584.85  1595.72  1598.40  1599.10
eigval :     1600.22  1606.88  3005.61  3028.01  3031.27  3033.39
eigval :     3035.25  3036.15  3040.41  3040.68  3043.62  3064.62
eigval :     3064.92  3068.66  3069.21  3070.15  3071.62  3072.13
eigval :     3072.68  3073.38  3074.15  3074.71  3075.11  3077.22
eigval :     3078.68  3080.52  3082.39  3083.14  3083.81  3084.22
eigval :     3084.36  3085.06  3086.66  3087.65  3089.71  3089.89
eigval :     3090.61  3090.97  3091.50  3091.58  3092.56  3093.78
eigval :     3097.32  3097.98  3099.49  3099.79  3100.50  3101.46

   temp. (K)  partition function   enthalpy   heat capacity  entropy
                                   cal/mol     cal/K/mol   cal/K/mol   J/K/mol
 298.15  VIB  0.256E+29            33995.084    208.794    215.075
         ROT  0.419E+09              888.752      2.981     42.437
         INT  0.107E+38            34883.837    211.775    257.512
         TR   0.250E+29             1481.254      4.968     46.163
         TOT                       36365.0905   216.7429   303.6747  1270.5749

       T/K    H(0)-H(T)+PV         H(T)/Eh          T*S/Eh         G(T)/Eh
   ------------------------------------------------------------------------
    298.15    0.579515E-01    0.942118E+00    0.144286E+00    0.797833E+00
   ------------------------------------------------------------------------

         :::::::::::::::::::::::::::::::::::::::::::::::::::::
         ::                  THERMODYNAMIC                  ::
         :::::::::::::::::::::::::::::::::::::::::::::::::::::
         :: total free energy        -173.789753524797 Eh   ::
         ::.................................................::
         :: total energy             -174.587586073654 Eh   ::
         :: zero point energy           0.884166727952 Eh   ::
         :: G(RRHO) w/o ZPVE           -0.086334179095 Eh   ::
         :: G(RRHO) contrib.            0.797832548857 Eh   ::
         :::::::::::::::::::::::::::::::::::::::::::::::::::::

           -------------------------------------------------
          | TOTAL ENERGY             -174.587586073654 Eh   |
          | TOTAL ENTHALPY           -173.645467885193 Eh   |
          | TOTAL FREE ENERGY        -173.789753524797 Eh   |
          | GRADIENT NORM               0.000133125586 Eh/α |
          | HOMO-LUMO GAP               0.735753895073 eV   |
           -------------------------------------------------

 * finished run on 2025/09/05 at 06:19:22.724
