   * xtb version 6.7.1 (edcfbbe) compiled by 'albert@albert-system' on 2024-07-22

   ID    Z sym.   atoms
    1    6 C      1-6, 8-13, 15-25, 27-31, 33, 34, 36-40, 42
    2    8 O      7
    3    7 N      14, 26, 32, 35, 41
    4    1 H      43-61

          program call               : xtb data2507/gas/APPT-PXZ/APPT-PXZ_gas_S0_crest.xyz --gfn 2 --ohess vtight --parallel 40 --molden --ceasefiles --namespace data2507/gas/APPT-PXZ/APPT-PXZ_gas_S0_finalOpt
          :  Hamiltonian                  GFN2-xTB          :
 * total energy  :  -105.5279483 Eh     change       -0.1618105E-08 Eh
 * total energy  :  -105.5279488 Eh     change       -0.4915539E-06 Eh
 * total energy  :  -105.5279492 Eh     change       -0.4383844E-06 Eh
 * total energy  :  -105.5279497 Eh     change       -0.4948117E-06 Eh
 * total energy  :  -105.5279501 Eh     change       -0.3602208E-06 Eh
 * total energy  :  -105.5279506 Eh     change       -0.5083241E-06 Eh
 * total energy  :  -105.5279514 Eh     change       -0.7733924E-06 Eh
 * total energy  :  -105.5279521 Eh     change       -0.7889443E-06 Eh
 * total energy  :  -105.5279528 Eh     change       -0.6539344E-06 Eh
 * total energy  :  -105.5279534 Eh     change       -0.6386947E-06 Eh
 * total energy  :  -105.5279541 Eh     change       -0.6464937E-06 Eh
 * total energy  :  -105.5279545 Eh     change       -0.3688002E-06 Eh
 * total energy  :  -105.5279546 Eh     change       -0.1231155E-06 Eh
 * total energy  :  -105.5279546 Eh     change        0.6392227E-08 Eh
 * total energy  :  -105.5279546 Eh     change       -0.6743380E-07 Eh
   *** GEOMETRY OPTIMIZATION CONVERGED AFTER 15 ITERATIONS ***

 final structure:
================
61
 xtb: 6.7.1 (edcfbbe)
C           -6.46218864484987       -2.91811305115578        2.19331157092056
C           -5.08523011614435       -3.01013011803265        2.21852783115144
C           -4.31084485522500       -2.15081221572768        1.45448689451986
C           -4.90238579044819       -1.19009792349350        0.64391808602360
C           -6.29944015629530       -1.08076791672909        0.65401187019185
C           -7.06727085967900       -1.94345175668022        1.41448703316821
O           -6.96997331160741       -0.11787050456620       -0.05767024498325
C           -6.22356828996108        0.72198082385865       -0.84486811619784
C           -6.91298325929842        1.65303429485770       -1.60005758827319
C           -6.22851136427783        2.51511841388872       -2.44337777078277
C           -4.85475375981169        2.42223484579769       -2.54282811900201
C           -4.15886546437373        1.49024803370782       -1.78886929075839
C           -4.82638122349530        0.64695969042946       -0.90917897155824
N           -4.15258339860750       -0.29845722985074       -0.12961591465049
C           -2.74852137566579       -0.37491919491728       -0.16521951250043
C           -2.12852159801877       -1.50996372855862       -0.65857735721043
C           -0.73592454769698       -1.65532944236977       -0.72450378819873
C            0.05026601649324       -0.62154717239361       -0.27635915538008
C           -0.57971780712472        0.53701057109003        0.23730052116510
C            0.35655521660936        1.50372311238675        0.67600798228300
C           -0.10452425205293        2.67537343548547        1.22128738631056
C           -1.49503097014464        2.85810454007566        1.32664938563253
C           -2.40498465803413        1.92244187696868        0.89473872807066
C           -1.96274236282080        0.71117282340433        0.31736302887607
C            1.66580504986818        0.92633668198270        0.41436674158570
N            2.85538967923446        1.42513913450022        0.64215311344376
C            3.89474031225458        0.64404584603257        0.29353870640893
C            5.22679804979542        1.14215784448101        0.52056094224036
C            5.45004787243091        2.40322116540603        1.08756301221500
C            6.74373374799870        2.82793746443755        1.28280943356062
C            7.78359110263427        1.97487858264189        0.90344356766333
N            7.59774948717967        0.79201294754766        0.37130382809875
C            6.35033521049728        0.36255545442124        0.17392458972986
C            6.16037724963464       -0.94800436921628       -0.41616456835318
N            7.24226008095282       -1.66057686328092       -0.73442721324275
C            7.08488786454015       -2.84655276121273       -1.26880627406742
C            5.83832166198701       -3.42134125572414       -1.53056035472348
C            4.71041762260964       -2.70238355194593       -1.20936979134687
C            4.85392208840957       -1.43223228599079       -0.63709269607390
C            3.70930691663702       -0.63385001215275       -0.28013761235133
N            2.48415668863326       -1.14114791141884       -0.50813055703791
C            1.47695112299887       -0.37419876239566       -0.16726249772975
H           -7.06925522510629       -3.58768363121688        2.78164632414080
H           -4.59825247331753       -3.74893802499604        2.83606045032113
H           -3.23545018939542       -2.22234036364893        1.49814164574728
H           -8.13914572929089       -1.82974568825764        1.38787189691220
H           -7.98745188312241        1.68347969434210       -1.51572794404829
H           -6.77400171343475        3.24156463954222       -3.02453185213429
H           -4.31013876828095        3.07057925619811       -3.21160823305377
H           -3.08722281944866        1.41801121182195       -1.88774354608509
H           -2.75311195557877       -2.31535568192662       -1.01875737254645
H           -0.30428107907119       -2.55718305978439       -1.12952485479929
H            0.57411068464992        3.43918299580213        1.56780003723946
H           -1.85945770325155        3.77462590293081        1.76745312244020
H           -3.46291263760650        2.11280890939897        0.99892779557562
H            4.59797680856606        3.00884774106839        1.35666607395237
H            6.95731514176318        3.79262485975897        1.71678555920326
H            8.81704885919574        2.26762200615894        1.03879599611655
H            7.99916993669452       -3.37603377108573       -1.50503909861334
H            5.76987723021987       -4.40326095085603       -1.97297932266742
H            3.71544075115008       -3.08319623873875       -1.38319969953843

          :  Hamiltonian                  GFN2-xTB          :
         :: gradient norm              0.000029550217 Eh/a0 ::
         :: HOMO-LUMO gap              1.151694892592 eV    ::
         :: SCC energy              -107.363581244154 Eh    ::
         :: -> dispersion             -0.090583676339 Eh    ::
         :: repulsion energy           1.835626603215 Eh    ::

    * Orbital Energies and Occupations

         #    Occupation            Energy/Eh            Energy/eV
      -------------------------------------------------------------
         1        2.0000           -0.7332694             -19.9533
       ...           ...                  ...                  ...
        85        2.0000           -0.4293238             -11.6825
        86        2.0000           -0.4223963             -11.4940
        87        2.0000           -0.4220295             -11.4840
        88        2.0000           -0.4206557             -11.4466
        89        2.0000           -0.4175667             -11.3626
        90        2.0000           -0.4093226             -11.1382
        91        2.0000           -0.3996129             -10.8740
        92        2.0000           -0.3955402             -10.7632
        93        2.0000           -0.3930107             -10.6944
        94        2.0000           -0.3637267              -9.8975
        95        2.0000           -0.3625238              -9.8648
        96        2.0000           -0.3560908              -9.6897
        97        2.0000           -0.3490502              -9.4981 (HOMO)
        98                         -0.3067263              -8.3464 (LUMO)
        99                         -0.2920353              -7.9467
       100                         -0.2682216              -7.2987
       101                         -0.2680364              -7.2936
       102                         -0.2482102              -6.7541
       103                         -0.2432987              -6.6205
       104                         -0.2345385              -6.3821
       105                         -0.2243404              -6.1046
       106                         -0.2210109              -6.0140
       107                         -0.2114449              -5.7537
       108                         -0.2040665              -5.5529
       ...                                ...                  ...
       187                          0.7194229              19.5765
      -------------------------------------------------------------
                  HL-Gap            0.0423239 Eh            1.1517 eV

     #   Z          covCN         q      C6AA      α(0)
     1   6 C        2.919    -0.039    28.969     8.826
     2   6 C        2.919    -0.038    28.941     8.822
     3   6 C        2.924    -0.059    29.465     8.902
     4   6 C        2.922     0.042    27.064     8.531
     5   6 C        2.884     0.125    25.251     8.238
     6   6 C        2.920    -0.055    29.378     8.888
     7   8 O        1.709    -0.253    18.192     5.759
     8   6 C        2.884     0.125    25.257     8.239
     9   6 C        2.920    -0.056    29.385     8.889
    10   6 C        2.919    -0.039    28.970     8.826
    11   6 C        2.919    -0.038    28.946     8.823
    12   6 C        2.924    -0.058    29.429     8.896
    13   6 C        2.923     0.043    27.044     8.528
    14   7 N        2.751    -0.066    22.515     7.047
    15   6 C        2.919     0.064    26.576     8.454
    16   6 C        2.922    -0.043    29.068     8.841
    17   6 C        2.912    -0.020    28.508     8.755
    18   6 C        3.032    -0.009    28.217     8.713
    19   6 C        3.141    -0.009    28.003     8.660
    20   6 C        3.031    -0.004    28.087     8.693
    21   6 C        2.912    -0.018    28.447     8.746
    22   6 C        2.919    -0.027    28.683     8.783
    23   6 C        2.917    -0.025    28.625     8.773
    24   6 C        2.977     0.005    27.906     8.665
    25   6 C        3.064     0.081    26.141     8.384
    26   7 N        1.839    -0.236    27.015     7.703
    27   6 C        2.983     0.073    26.364     8.423
    28   6 C        2.983    -0.010    28.269     8.722
    29   6 C        2.928    -0.011    28.300     8.724
    30   6 C        2.912    -0.039    28.964     8.825
    31   6 C        2.907     0.063    26.597     8.456
    32   7 N        1.841    -0.201    26.195     7.585
    33   6 C        2.972     0.083    26.154     8.389
    34   6 C        2.972     0.083    26.151     8.388
    35   7 N        1.841    -0.201    26.194     7.585
    36   6 C        2.907     0.063    26.595     8.456
    37   6 C        2.912    -0.039    28.965     8.825
    38   6 C        2.928    -0.011    28.298     8.724
    39   6 C        2.983    -0.010    28.271     8.722
    40   6 C        2.983     0.074    26.348     8.420
    41   7 N        1.839    -0.237    27.045     7.707
    42   6 C        3.063     0.081    26.136     8.383
    43   1 H        0.926     0.040     2.448     2.446
    44   1 H        0.926     0.038     2.476     2.461
    45   1 H        0.926     0.035     2.510     2.477
    46   1 H        0.926     0.052     2.294     2.368
    47   1 H        0.926     0.052     2.294     2.369
    48   1 H        0.926     0.040     2.448     2.447
    49   1 H        0.926     0.037     2.483     2.464
    50   1 H        0.926     0.034     2.535     2.490
    51   1 H        0.926     0.046     2.365     2.405
    52   1 H        0.926     0.053     2.281     2.362
    53   1 H        0.926     0.051     2.303     2.373
    54   1 H        0.926     0.042     2.420     2.433
    55   1 H        0.926     0.040     2.445     2.445
    56   1 H        0.926     0.059     2.215     2.327
    57   1 H        0.926     0.040     2.452     2.449
    58   1 H        0.925     0.045     2.381     2.413
    59   1 H        0.925     0.045     2.380     2.412
    60   1 H        0.926     0.040     2.452     2.448
    61   1 H        0.926     0.059     2.214     2.327

molecular dipole:
                 x           y           z       tot (Debye)
 q only:       -0.895       0.141       0.071
   full:       -1.515       0.216       0.105       3.898

 projected vibrational frequencies (cm⁻¹)
eigval :       -0.00    -0.00    -0.00     0.00     0.00     0.00
eigval :       15.84    17.55    22.97    38.40    48.06    49.10
eigval :       79.51    82.09    97.31   113.87   115.46   128.81
eigval :      146.45   163.59   166.32   195.10   199.07   218.53
eigval :      229.39   247.76   256.05   262.32   267.04   307.24
eigval :      328.82   337.63   370.98   384.18   393.77   395.73
eigval :      399.63   414.15   415.49   419.57   431.96   436.46
eigval :      440.80   468.72   476.67   491.84   509.46   518.65
eigval :      522.40   525.39   529.85   539.87   554.16   570.58
eigval :      584.54   588.08   592.12   594.68   624.21   633.05
eigval :      650.07   659.47   661.73   668.22   680.11   683.62
eigval :      700.91   708.21   714.20   732.18   747.20   772.10
eigval :      778.60   779.20   783.81   795.51   797.33   798.70
eigval :      810.03   813.35   841.76   855.56   861.70   865.06
eigval :      867.48   895.03   897.58   899.00   913.04   915.38
eigval :      915.67   916.06   916.24   920.00   921.67   926.61
eigval :      927.67   927.86   961.40  1030.60  1051.69  1073.43
eigval :     1080.45  1090.06  1090.21  1092.06  1102.01  1108.77
eigval :     1118.96  1132.15  1137.14  1139.84  1154.32  1170.15
eigval :     1175.42  1185.26  1186.30  1190.51  1201.87  1203.10
eigval :     1215.41  1227.60  1231.21  1243.73  1244.36  1262.06
eigval :     1270.18  1281.52  1294.72  1305.67  1311.09  1320.11
eigval :     1324.94  1334.87  1339.74  1347.55  1358.78  1363.73
eigval :     1371.38  1395.22  1399.98  1416.42  1423.14  1427.44
eigval :     1441.67  1443.89  1454.46  1463.19  1479.43  1485.81
eigval :     1501.82  1518.35  1538.38  1559.50  1562.58  1567.92
eigval :     1568.34  1578.41  1579.77  1580.49  1590.24  1595.41
eigval :     1601.65  1610.85  3052.80  3053.09  3080.08  3081.41
eigval :     3086.72  3086.81  3090.72  3091.08  3091.94  3098.23
eigval :     3098.47  3100.20  3100.46  3102.37  3103.12  3107.03
eigval :     3108.02  3113.95  3114.47

   temp. (K)  partition function   enthalpy   heat capacity  entropy
                                   cal/mol     cal/K/mol   cal/K/mol   J/K/mol
 298.15  VIB  0.107E+13            17065.707    113.600    102.853
         ROT  0.546E+08              888.752      2.981     38.386
         INT  0.582E+20            17954.459    116.581    141.240
         TR   0.121E+29             1481.254      4.968     44.711
         TOT                       19435.7130   121.5493   185.9510   778.0188

       T/K    H(0)-H(T)+PV         H(T)/Eh          T*S/Eh         G(T)/Eh
   ------------------------------------------------------------------------
    298.15    0.309728E-01    0.474643E+00    0.883513E-01    0.386292E+00
   ------------------------------------------------------------------------

         :::::::::::::::::::::::::::::::::::::::::::::::::::::
         ::                  THERMODYNAMIC                  ::
         :::::::::::::::::::::::::::::::::::::::::::::::::::::
         :: total free energy        -105.141662655435 Eh   ::
         ::.................................................::
         :: total energy             -105.527954640936 Eh   ::
         :: zero point energy           0.443670502251 Eh   ::
         :: G(RRHO) w/o ZPVE           -0.057378516751 Eh   ::
         :: G(RRHO) contrib.            0.386291985501 Eh   ::
         :::::::::::::::::::::::::::::::::::::::::::::::::::::

           -------------------------------------------------
          | TOTAL ENERGY             -105.527954640936 Eh   |
          | TOTAL ENTHALPY           -105.053311358590 Eh   |
          | TOTAL FREE ENERGY        -105.141662655435 Eh   |
          | GRADIENT NORM               0.000029612719 Eh/α |
          | HOMO-LUMO GAP               1.151692834578 eV   |
           -------------------------------------------------

 * finished run on 2025/07/20 at 20:15:04.620
