   * xtb version 6.7.1 (edcfbbe) compiled by 'albert@albert-system' on 2024-07-22

   ID    Z sym.   atoms
    1    6 C      1-6, 8-13, 15-25, 27-31, 33, 34, 36-40, 42
    2    8 O      7
    3    7 N      14, 26, 32, 35, 41
    4    1 H      43-61

          program call               : xtb data2507/gas/APPT-PXZ/APPT-PXZ_gas_S0_finalOpt.xtbopt.xyz --gfn 2 --spinpol --tblite --uhf 2 --ohess vtight --parallel 40 --molden --ceasefiles --namespace data2507/gas/APPT-PXZ/APPT-PXZ_gas_T1_preOpt
 * total energy  :  -105.4730228 Eh     change        0.1452445E-07 Eh
 * total energy  :  -105.4768341 Eh     change       -0.3811302E-02 Eh
 * total energy  :  -105.4795393 Eh     change       -0.2705228E-02 Eh
 * total energy  :  -105.4798169 Eh     change       -0.2775625E-03 Eh
 * total energy  :  -105.4799261 Eh     change       -0.1092543E-03 Eh
 * total energy  :  -105.4799595 Eh     change       -0.3339925E-04 Eh
 * total energy  :  -105.4799792 Eh     change       -0.1964384E-04 Eh
 * total energy  :  -105.4799908 Eh     change       -0.1162562E-04 Eh
 * total energy  :  -105.4800095 Eh     change       -0.1868029E-04 Eh
 * total energy  :  -105.4800343 Eh     change       -0.2480984E-04 Eh
 * total energy  :  -105.4801727 Eh     change       -0.1091635E-05 Eh
 * total energy  :  -105.4801742 Eh     change       -0.1497239E-05 Eh
 * total energy  :  -105.4801758 Eh     change       -0.1593350E-05 Eh
 * total energy  :  -105.4801773 Eh     change       -0.1567922E-05 Eh
 * total energy  :  -105.4801788 Eh     change       -0.1417437E-05 Eh
 * total energy  :  -105.4801800 Eh     change       -0.1213481E-05 Eh
 * total energy  :  -105.4801809 Eh     change       -0.9802632E-06 Eh
 * total energy  :  -105.4801818 Eh     change       -0.8087635E-06 Eh
 * total energy  :  -105.4801818 Eh     change       -0.2991972E-07 Eh
   *** GEOMETRY OPTIMIZATION CONVERGED AFTER 44 ITERATIONS ***

 final structure:
================
61
 xtb: 6.7.1 (edcfbbe)
C           -6.41271312816953       -2.76540519442084        2.33654008979959
C           -5.03117050130827       -2.84743074138379        2.34583936294787
C           -4.27455313308635       -2.03572323528333        1.51984350163288
C           -4.89031647912912       -1.12818241816472        0.66165670137268
C           -6.29264981500649       -1.03664425599646        0.67594846965004
C           -7.04205820924208       -1.85367038869796        1.50425736977079
O           -6.97207236431451       -0.14316054185931       -0.10702738881732
C           -6.23751786878589        0.67406791121566       -0.92317575498279
C           -6.93087285421639        1.58086166924020       -1.70567363861801
C           -6.24541855833102        2.42342477076800       -2.56609234499355
C           -4.86598740799982        2.34666703268929       -2.64947088577503
C           -4.16507588164655        1.44329921428488       -1.87098778156017
C           -4.83559437640949        0.60314341464178       -0.98549957925528
N           -4.16326601947564       -0.30664783184845       -0.18485698865070
C           -2.74522419447067       -0.37715421128087       -0.21578752576069
C           -2.12935435271233       -1.48425827360637       -0.79656028827840
C           -0.75283514188044       -1.63270312934895       -0.86548103851145
C            0.04550513205012       -0.61956678625307       -0.32746396884740
C           -0.58741484166247        0.50522244149332        0.25958978782239
C            0.34307577395791        1.44627387676521        0.75900222030913
C           -0.13496938233421        2.60347328865653        1.37264258176334
C           -1.51143795733463        2.77177025022212        1.46762412569077
C           -2.42403406525069        1.84913707769988        0.97809133625529
C           -1.97425872002186        0.67354343035470        0.34536493773705
C            1.63343528831009        0.91619845959483        0.48286907497925
N            2.83657043420879        1.33972085282973        0.70213711929834
C            3.89616497810197        0.63089284401321        0.33659434403277
C            5.21885469512528        1.11247051176238        0.57887830610308
C            5.44472751144441        2.35001084238207        1.20190135350056
C            6.73766173833583        2.77016175083605        1.40782054096217
C            7.78068617494306        1.94261686820560        0.98612081708684
N            7.59128620949533        0.78173717047289        0.40339309762925
C            6.34962692524295        0.35591896415549        0.19448020030050
C            6.16423246010106       -0.93251465678622       -0.45153901233601
N            7.24635794894764       -1.62592900247919       -0.79293620086145
C            7.10038560352636       -2.79254330192050       -1.37706456130630
C            5.85754705506473       -3.35793189607644       -1.66671304081489
C            4.72449942020064       -2.65725979074529       -1.32247879994264
C            4.85721456322812       -1.40927307159959       -0.69677944970118
C            3.71010782308676       -0.64182393625966       -0.31545835977346
N            2.48890776079383       -1.08722352174090       -0.55133772868448
C            1.43942667874723       -0.40233422553848       -0.20464854027911
H           -7.00296595849529       -3.40042166360144        2.97782240967586
H           -4.53321025349885       -3.54539400552585        3.00073080702873
H           -3.19799287679552       -2.09551759638986        1.53654230646033
H           -8.11568011441597       -1.75686322508859        1.48408313333014
H           -8.00584178564498        1.60844070707294       -1.62731650118302
H           -6.79172879608220        3.12971503044754       -3.17076226815153
H           -4.32624428673541        2.99156918135519       -3.32524189015740
H           -3.09114620288524        1.38220565711546       -1.94395637651573
H           -2.76454103617357       -2.25463245445201       -1.21218745825031
H           -0.31487149671632       -2.50369213613563       -1.32579431092902
H            0.54266271835249        3.34523672955912        1.76499848770250
H           -1.89041652927365        3.66410357574896        1.94567589817374
H           -3.48256052933641        2.03684802519119        1.08389754031969
H            4.59293881483789        2.94205062243228        1.50317568137475
H            6.94785822903443        3.71599572645126        1.88284309577341
H            8.81350645760276        2.23291707359416        1.12650487770739
H            8.01837826584999       -3.30715976576239       -1.62885785678007
H            5.79279650464643       -4.32137290544005       -2.14834937392533
H            3.73250762450746       -3.03763633183891       -1.51760856962852

 projected vibrational frequencies (cm⁻¹)
eigval :       -0.00    -0.00     0.00     0.00     0.00     0.00
eigval :       13.54    15.13    24.05    34.56    47.58    50.72
eigval :       80.03    82.75    97.08   109.81   112.52   126.65
eigval :      145.95   160.99   168.37   193.46   197.08   215.83
eigval :      230.19   245.62   258.61   262.01   268.34   310.45
eigval :      314.29   344.16   353.50   387.89   394.94   397.98
eigval :      401.22   410.34   416.09   427.15   430.09   436.86
eigval :      446.05   462.33   464.06   489.36   502.55   509.64
eigval :      516.17   523.06   524.95   529.52   545.48   562.70
eigval :      565.39   579.05   580.69   589.64   615.97   617.25
eigval :      630.20   643.65   662.27   664.10   666.38   668.98
eigval :      684.99   690.85   700.02   706.94   714.08   752.03
eigval :      766.79   775.54   776.84   779.96   787.98   793.26
eigval :      799.38   800.01   808.04   845.84   848.04   855.77
eigval :      862.82   863.94   892.90   897.87   899.10   902.94
eigval :      905.62   909.03   913.45   914.93   915.24   915.66
eigval :      916.31   916.88   941.65   997.99  1026.42  1042.68
eigval :     1065.40  1084.03  1084.21  1088.29  1092.02  1103.29
eigval :     1111.37  1112.73  1128.44  1130.28  1133.29  1150.24
eigval :     1168.82  1171.76  1181.79  1185.70  1190.16  1202.25
eigval :     1204.75  1219.11  1222.49  1237.30  1249.56  1254.99
eigval :     1269.85  1273.01  1283.92  1292.89  1296.37  1310.66
eigval :     1315.73  1321.37  1323.67  1339.32  1349.73  1352.36
eigval :     1368.89  1379.48  1383.06  1388.87  1415.23  1418.11
eigval :     1419.57  1435.87  1441.91  1444.15  1452.20  1476.48
eigval :     1483.49  1495.32  1510.21  1520.00  1528.61  1530.66
eigval :     1542.42  1559.10  1564.13  1566.80  1567.56  1579.15
eigval :     1586.06  1591.43  3056.96  3058.94  3069.51  3069.84
eigval :     3079.57  3080.10  3082.17  3093.13  3093.32  3093.70
eigval :     3093.86  3099.46  3102.39  3103.00  3103.45  3111.34
eigval :     3113.38  3114.96  3115.36

   temp. (K)  partition function   enthalpy   heat capacity  entropy
                                   cal/mol     cal/K/mol   cal/K/mol   J/K/mol
 298.15  VIB  0.181E+13            17274.100    115.123    104.176
         ROT  0.546E+08              888.752      2.981     38.383
         INT  0.986E+20            18162.852    118.104    142.559
         TR   0.121E+29             1481.254      4.968     44.711
         TOT                       19644.1059   123.0720   187.2703   783.5389

       T/K    H(0)-H(T)+PV         H(T)/Eh          T*S/Eh         G(T)/Eh
   ------------------------------------------------------------------------
    298.15    0.313049E-01    0.471291E+00    0.889782E-01    0.382313E+00
   ------------------------------------------------------------------------

         :::::::::::::::::::::::::::::::::::::::::::::::::::::
         ::                  THERMODYNAMIC                  ::
         :::::::::::::::::::::::::::::::::::::::::::::::::::::
         :: total free energy        -105.097869247163 Eh   ::
         ::.................................................::
         :: total energy             -105.480181778022 Eh   ::
         :: zero point energy           0.439985813436 Eh   ::
         :: G(RRHO) w/o ZPVE           -0.057673282577 Eh   ::
         :: G(RRHO) contrib.            0.382312530859 Eh   ::
         :::::::::::::::::::::::::::::::::::::::::::::::::::::

           -------------------------------------------------
          | TOTAL ENERGY             -105.480181778022 Eh   |
          | TOTAL ENTHALPY           -105.008891089254 Eh   |
          | TOTAL FREE ENERGY        -105.097869247163 Eh   |
          | GRADIENT NORM               0.000067522959 Eh/α |
           -------------------------------------------------

 * finished run on 2025/07/20 at 20:15:12.141
