   * xtb version 6.7.1 (edcfbbe) compiled by 'albert@albert-system' on 2024-07-22

   ID    Z sym.   atoms
    1    6 C      1-6, 8-13, 15-25, 27-31, 33, 34, 36-40, 42
    2    8 O      7
    3    7 N      14, 26, 32, 35, 41
    4    1 H      43-61

          program call               : xtb data2507/gas/APPT-PXZ/APPT-PXZ.xyz --gfn 2 --ohess vtight --parallel 40 --molden --ceasefiles --namespace data2507/gas/APPT-PXZ/APPT-PXZ_gas_S0_preOpt
          :  Hamiltonian                  GFN2-xTB          :
 * total energy  :  -105.5024402 Eh     change       -0.2812271E-08 Eh
 * total energy  :  -105.5206042 Eh     change       -0.1816402E-01 Eh
 * total energy  :  -105.5251765 Eh     change       -0.4572304E-02 Eh
 * total energy  :  -105.5259565 Eh     change       -0.7799867E-03 Eh
 * total energy  :  -105.5263672 Eh     change       -0.4107475E-03 Eh
 * total energy  :  -105.5264379 Eh     change       -0.7070529E-04 Eh
 * total energy  :  -105.5264642 Eh     change       -0.2625308E-04 Eh
 * total energy  :  -105.5264725 Eh     change       -0.8335959E-05 Eh
 * total energy  :  -105.5264759 Eh     change       -0.3415045E-05 Eh
 * total energy  :  -105.5264804 Eh     change       -0.4454978E-05 Eh
 * total energy  :  -105.5265154 Eh     change       -0.4213159E-06 Eh
 * total energy  :  -105.5265159 Eh     change       -0.5085302E-06 Eh
 * total energy  :  -105.5265165 Eh     change       -0.6273915E-06 Eh
 * total energy  :  -105.5265172 Eh     change       -0.7305123E-06 Eh
 * total energy  :  -105.5265180 Eh     change       -0.7600888E-06 Eh
 * total energy  :  -105.5265187 Eh     change       -0.7027177E-06 Eh
 * total energy  :  -105.5265193 Eh     change       -0.5954815E-06 Eh
 * total energy  :  -105.5265198 Eh     change       -0.4663852E-06 Eh
 * total energy  :  -105.5265198 Eh     change       -0.3532392E-08 Eh
   *** GEOMETRY OPTIMIZATION CONVERGED AFTER 44 ITERATIONS ***

 final structure:
================
61
 xtb: 6.7.1 (edcfbbe)
C           -6.08475990536725        0.17590986271841       -3.57613558900020
C           -4.70757341753523        0.24915272203285       -3.60951706352902
C           -3.98143024138354        0.31497132807236       -2.42916687811717
C           -4.62947560698988        0.30974760830860       -1.20215990396375
C           -6.02821889686588        0.23125145721680       -1.17548605269530
C           -6.74486606606883        0.16522508508525       -2.35440706087944
O           -6.74121211926489        0.21700329330453       -0.00006491442090
C           -6.02816329312858        0.23053846391873        1.17533062371873
C           -6.74476027495220        0.16390145671128        2.35424775098778
C           -6.08460064924473        0.17393608907428        3.57595334194893
C           -4.70741325101008        0.24717222228479        3.60931400177656
C           -3.98131952740389        0.31360577328382        2.42896773784809
C           -4.62941578886366        0.30897487712705        1.20198466384424
N           -3.93002415844112        0.38244959924496       -0.00008188758110
C           -2.51573821320058        0.46567103711838       -0.00008755298869
C           -1.90136250648077        1.70037808873183       -0.00047537510295
C           -0.50450747251097        1.85723974549552       -0.00048942298930
C            0.27581068646155        0.72861668542064       -0.00013742854134
C           -0.35508117438965       -0.53800559274373        0.00019694378716
C            0.57640428228347       -1.60313008561922        0.00040915903476
C            0.10621736485793       -2.89198534946724        0.00068627257851
C           -1.28687209919613       -3.09567366475289        0.00076074318248
C           -2.19193782206235       -2.06161803326433        0.00057169099275
C           -1.73837240899754       -0.72360109824225        0.00026645189078
C            1.88864098601289       -0.97241246660048        0.00022367376173
N            3.07722382216396       -1.52327559082290        0.00026307020645
C            4.11868526705007       -0.67055961819518        0.00008509652986
C            5.44984430831737       -1.22040724045688        0.00008133527634
C            5.67097278325754       -2.60344520472706        0.00015356802387
C            6.96401965700700       -3.07273014967462        0.00012948484641
C            8.00530001946063       -2.14061583130496        0.00003696715383
N            7.82128699110694       -0.84333686974462       -0.00002711265218
C            6.57471166732824       -0.36878909880188       -0.00000933088872
C            6.38762860925276        1.06890068580598       -0.00008807681857
N            7.47080665854058        1.84735077583033       -0.00009736834088
C            7.31570883968503        3.14842234179000       -0.00015522664439
C            6.07016156539390        3.78228082224105       -0.00023339921982
C            4.94083579724026        2.99697780653548       -0.00022520440746
C            5.08220611150335        1.60354417864602       -0.00014192815615
C            3.93672974036107        0.73068221718766       -0.00008594864658
N            2.71216085048077        1.28878152492620       -0.00019166007501
C            1.70435501620321        0.45203241556185       -0.00006072474853
H           -6.65411161444356        0.12636784216181       -4.49081101500575
H           -4.18326200169606        0.25647312779541       -4.55269191568854
H           -2.90381824120617        0.37260385759683       -2.45859740389894
H           -7.82012821934248        0.10781313522855       -2.29828976363167
H           -7.82002634670105        0.10654604124986        2.29814866561333
H           -6.65391381897660        0.12392391304633        4.49062705881595
H           -4.18306443206520        0.25404671649163        4.55247110889644
H           -2.90371121420031        0.37130811895162        2.45838726984285
H           -2.52685650785159        2.58162921016203       -0.00077757326652
H           -0.06965030737926        2.84439697582617       -0.00074838918339
H            0.77909977905815       -3.73541254424575        0.00083167397549
H           -1.65433134476396       -4.11159891485881        0.00097436949334
H           -3.25245095350032       -2.26628958265480        0.00065496301511
H            4.81804932869746       -3.26504403507524        0.00022483365205
H            7.17607506154723       -4.13078661300602        0.00018205116725
H            9.03828706327374       -2.46449475627458        0.00001995703960
H            8.23093897858941        3.72660609100488       -0.00019046916891
H            6.00360595306606        4.85932897311308       -0.00029311417644
H            3.94666470728411        3.41745317422860       -0.00026177447288

          :  Hamiltonian                  GFN2-xTB          :
         :: gradient norm              0.000047318561 Eh/a0 ::
         :: HOMO-LUMO gap              0.889210106362 eV    ::
         :: SCC energy              -107.363492877155 Eh    ::
         :: -> dispersion             -0.090238627128 Eh    ::
         :: repulsion energy           1.836973108831 Eh    ::

    * Orbital Energies and Occupations

         #    Occupation            Energy/Eh            Energy/eV
      -------------------------------------------------------------
         1        2.0000           -0.7273116             -19.7912
       ...           ...                  ...                  ...
        85        2.0000           -0.4269742             -11.6186
        86        2.0000           -0.4259373             -11.5903
        87        2.0000           -0.4252992             -11.5730
        88        2.0000           -0.4160982             -11.3226
        89        2.0000           -0.4135809             -11.2541
        90        2.0000           -0.4121710             -11.2157
        91        2.0000           -0.4018756             -10.9356
        92        2.0000           -0.3973921             -10.8136
        93        2.0000           -0.3913021             -10.6479
        94        2.0000           -0.3664158              -9.9707
        95        2.0000           -0.3650941              -9.9347
        96        2.0000           -0.3599103              -9.7937
        97        2.0000           -0.3435388              -9.3482 (HOMO)
        98                         -0.3108610              -8.4590 (LUMO)
        99                         -0.2957627              -8.0481
       100                         -0.2712255              -7.3804
       101                         -0.2708686              -7.3707
       102                         -0.2522069              -6.8629
       103                         -0.2383544              -6.4860
       104                         -0.2301077              -6.2615
       105                         -0.2268790              -6.1737
       106                         -0.2154142              -5.8617
       107                         -0.2150254              -5.8511
       108                         -0.2045943              -5.5673
       ...                                ...                  ...
       187                          0.7157744              19.4772
      -------------------------------------------------------------
                  HL-Gap            0.0326779 Eh            0.8892 eV

     #   Z          covCN         q      C6AA      α(0)
     1   6 C        2.919    -0.041    29.022     8.834
     2   6 C        2.919    -0.038    28.957     8.824
     3   6 C        2.923    -0.060    29.504     8.908
     4   6 C        2.925     0.043    27.028     8.526
     5   6 C        2.882     0.124    25.285     8.244
     6   6 C        2.920    -0.056    29.402     8.892
     7   8 O        1.708    -0.258    18.268     5.771
     8   6 C        2.882     0.124    25.285     8.244
     9   6 C        2.920    -0.056    29.402     8.892
    10   6 C        2.919    -0.041    29.022     8.834
    11   6 C        2.919    -0.038    28.957     8.824
    12   6 C        2.923    -0.060    29.504     8.908
    13   6 C        2.925     0.043    27.028     8.526
    14   7 N        2.753    -0.077    22.740     7.082
    15   6 C        2.921     0.069    26.466     8.436
    16   6 C        2.922    -0.038    28.950     8.823
    17   6 C        2.912    -0.019    28.478     8.751
    18   6 C        3.030    -0.005    28.120     8.698
    19   6 C        3.142    -0.009    27.983     8.656
    20   6 C        3.030    -0.003    28.062     8.689
    21   6 C        2.913    -0.016    28.417     8.741
    22   6 C        2.919    -0.026    28.648     8.777
    23   6 C        2.917    -0.023    28.569     8.765
    24   6 C        2.978     0.007    27.855     8.657
    25   6 C        3.063     0.082    26.124     8.381
    26   7 N        1.839    -0.234    26.978     7.697
    27   6 C        2.983     0.074    26.339     8.419
    28   6 C        2.983    -0.010    28.266     8.721
    29   6 C        2.928    -0.011    28.291     8.723
    30   6 C        2.912    -0.038    28.955     8.824
    31   6 C        2.907     0.063    26.586     8.455
    32   7 N        1.841    -0.200    26.172     7.582
    33   6 C        2.972     0.083    26.144     8.387
    34   6 C        2.972     0.083    26.144     8.387
    35   7 N        1.841    -0.200    26.173     7.582
    36   6 C        2.907     0.063    26.586     8.455
    37   6 C        2.912    -0.038    28.955     8.824
    38   6 C        2.928    -0.011    28.293     8.723
    39   6 C        2.983    -0.010    28.266     8.721
    40   6 C        2.983     0.074    26.341     8.419
    41   7 N        1.839    -0.234    26.980     7.698
    42   6 C        3.063     0.082    26.118     8.381
    43   1 H        0.926     0.038     2.480     2.462
    44   1 H        0.926     0.035     2.515     2.480
    45   1 H        0.926     0.028     2.617     2.530
    46   1 H        0.926     0.050     2.318     2.381
    47   1 H        0.926     0.050     2.318     2.381
    48   1 H        0.926     0.038     2.480     2.462
    49   1 H        0.926     0.035     2.515     2.480
    50   1 H        0.926     0.028     2.617     2.530
    51   1 H        0.926     0.050     2.316     2.380
    52   1 H        0.926     0.056     2.247     2.344
    53   1 H        0.926     0.053     2.284     2.363
    54   1 H        0.926     0.044     2.391     2.418
    55   1 H        0.926     0.043     2.408     2.427
    56   1 H        0.926     0.059     2.208     2.324
    57   1 H        0.926     0.041     2.438     2.442
    58   1 H        0.925     0.046     2.366     2.406
    59   1 H        0.925     0.046     2.366     2.406
    60   1 H        0.926     0.041     2.438     2.442
    61   1 H        0.926     0.059     2.208     2.324

molecular dipole:
                 x           y           z       tot (Debye)
 q only:       -0.312      -0.221       0.000
   full:       -0.919      -0.306       0.000       2.462

 projected vibrational frequencies (cm⁻¹)
eigval :       -0.00    -0.00    -0.00     0.00     0.00     0.00
eigval :      -23.79    15.31    16.51    24.02    40.55    45.87
eigval :       78.70    80.45    96.15   110.13   111.34   125.53
eigval :      137.39   153.74   158.37   194.41   194.76   217.22
eigval :      228.14   247.31   256.10   258.12   263.40   300.15
eigval :      326.25   337.20   369.92   383.39   394.39   395.14
eigval :      399.60   410.18   413.49   415.45   424.57   429.22
eigval :      439.94   468.27   476.98   491.43   510.10   517.95
eigval :      520.64   523.76   529.11   541.40   553.51   570.70
eigval :      581.80   587.18   591.12   594.44   623.95   632.95
eigval :      653.36   657.80   658.72   667.33   680.24   684.30
eigval :      700.99   708.31   714.25   733.93   747.98   772.58
eigval :      776.92   777.39   783.42   795.33   797.19   798.69
eigval :      810.00   812.77   837.39   852.69   859.79   859.86
eigval :      862.36   894.01   894.57   895.54   910.64   913.36
eigval :      913.78   916.11   916.68   919.75   920.50   926.47
eigval :      927.82   927.99   961.15  1029.49  1051.02  1071.61
eigval :     1078.48  1087.33  1089.07  1090.13  1101.87  1106.78
eigval :     1117.01  1131.26  1136.65  1139.34  1153.52  1170.37
eigval :     1175.92  1181.38  1184.76  1188.66  1196.42  1200.38
eigval :     1214.05  1224.75  1227.72  1241.97  1242.28  1260.59
eigval :     1270.02  1281.11  1295.98  1305.71  1311.58  1320.42
eigval :     1327.70  1337.91  1346.03  1350.57  1360.40  1363.68
eigval :     1370.76  1394.84  1397.77  1416.59  1424.97  1433.65
eigval :     1442.95  1444.58  1454.82  1464.06  1482.79  1493.85
eigval :     1507.17  1518.71  1539.39  1561.30  1563.47  1567.28
eigval :     1568.55  1580.81  1581.64  1582.44  1591.37  1601.22
eigval :     1604.63  1612.33  3053.66  3053.93  3080.29  3085.08
eigval :     3086.54  3086.87  3087.44  3087.52  3091.40  3094.37
eigval :     3094.54  3098.68  3098.91  3102.33  3102.61  3103.16
eigval :     3104.04  3112.75  3113.34

   temp. (K)  partition function   enthalpy   heat capacity  entropy
                                   cal/mol     cal/K/mol   cal/K/mol   J/K/mol
 298.15  VIB  0.317E+12            16635.991    112.332     99.612
         ROT  0.544E+08              888.752      2.981     38.379
         INT  0.172E+20            17524.743    115.312    137.991
         TR   0.121E+29             1481.254      4.968     44.711
         TOT                       19005.9972   120.2806   182.7017   764.4240

       T/K    H(0)-H(T)+PV         H(T)/Eh          T*S/Eh         G(T)/Eh
   ------------------------------------------------------------------------
    298.15    0.302880E-01    0.473512E+00    0.868075E-01    0.386705E+00
   ------------------------------------------------------------------------

         :::::::::::::::::::::::::::::::::::::::::::::::::::::
         ::                  THERMODYNAMIC                  ::
         :::::::::::::::::::::::::::::::::::::::::::::::::::::
         :: total free energy        -105.139814976594 Eh   ::
         ::.................................................::
         :: total energy             -105.526519768324 Eh   ::
         :: zero point energy           0.443224289418 Eh   ::
         :: G(RRHO) w/o ZPVE           -0.056519497688 Eh   ::
         :: G(RRHO) contrib.            0.386704791730 Eh   ::
         :::::::::::::::::::::::::::::::::::::::::::::::::::::

           -------------------------------------------------
          | TOTAL ENERGY             -105.526519768324 Eh   |
          | TOTAL ENTHALPY           -105.053007494407 Eh   |
          | TOTAL FREE ENERGY        -105.139814976594 Eh   |
          | GRADIENT NORM               0.000047319456 Eh/α |
          | HOMO-LUMO GAP               0.889209657324 eV   |
           -------------------------------------------------

 * finished run on 2025/07/20 at 20:12:38.619
