   * xtb version 6.7.1 (edcfbbe) compiled by 'albert@albert-system' on 2024-07-22

   ID    Z sym.   atoms
    1    6 C      1-6, 8-13, 15-25, 27-31, 33, 34, 36-40, 42
    2    8 O      7
    3    7 N      14, 26, 32, 35, 41
    4    1 H      43-61

          program call               : xtb data2507/gas/APPT-PXZ/APPT-PXZ_gas_T1_crest.xyz --gfn 2 --spinpol --tblite --uhf 2 --ohess vtight --parallel 40 --molden --ceasefiles --namespace data2507/gas/APPT-PXZ/APPT-PXZ_gas_T1_finalOpt
 * total energy  :  -105.4801688 Eh     change        0.3093031E-07 Eh
 * total energy  :  -105.4801828 Eh     change       -0.1397274E-04 Eh
 * total energy  :  -105.4801936 Eh     change       -0.1082815E-04 Eh
 * total energy  :  -105.4801947 Eh     change       -0.1082900E-05 Eh
 * total energy  :  -105.4801945 Eh     change        0.2282448E-06 Eh
 * total energy  :  -105.4801955 Eh     change       -0.9865905E-06 Eh
 * total energy  :  -105.4801963 Eh     change       -0.7908817E-06 Eh
 * total energy  :  -105.4801974 Eh     change       -0.1109340E-05 Eh
 * total energy  :  -105.4801988 Eh     change       -0.1363058E-05 Eh
 * total energy  :  -105.4802001 Eh     change       -0.1334433E-05 Eh
 * total energy  :  -105.4802009 Eh     change       -0.7941828E-06 Eh
 * total energy  :  -105.4802013 Eh     change       -0.3737099E-06 Eh
 * total energy  :  -105.4802016 Eh     change       -0.3110962E-06 Eh
 * total energy  :  -105.4802022 Eh     change       -0.5953336E-06 Eh
 * total energy  :  -105.4802023 Eh     change       -0.1423934E-06 Eh
 * total energy  :  -105.4802023 Eh     change       -0.4329117E-07 Eh
   *** GEOMETRY OPTIMIZATION CONVERGED AFTER 16 ITERATIONS ***

 final structure:
================
61
 xtb: 6.7.1 (edcfbbe)
C           -6.23241074357496        2.16542637914938        2.80445587757599
C           -4.85210070231477        2.08645263968656        2.86966675160352
C           -4.15470739687380        1.26466221081656        2.00266435917199
C           -4.83022679001696        0.51004877052779        1.04694904351461
C           -6.23258933965343        0.58431197409185        0.99907206676980
C           -6.92226871861630        1.40899886765159        1.87052036827852
O           -6.97013165179661       -0.14965776251671        0.10961598567812
C           -6.29334861904870       -0.95850555599147       -0.76277132043378
C           -7.04445092885526       -1.68685771502525       -1.66853197578257
C           -6.41665073711202       -2.51044019480398       -2.58933663079565
C           -5.03524430743183       -2.59427265604730       -2.60748636839365
C           -4.27674871200068       -1.87097924073176       -1.70462267461710
C           -4.89104909050332       -1.05198180462392       -0.76079878163055
N           -4.16183803681074       -0.31946213797125        0.16116849184290
C           -2.74317101139928       -0.39405285485466        0.18294407205272
C           -2.12709031457244       -1.53405137654181        0.69478136948372
C           -0.75019766787659       -1.68423165360432        0.75634903567497
C            0.04712552307252       -0.63933499256624        0.28132900715778
C           -0.58672970593278        0.51674009821327       -0.24020294242822
C            0.34249791506237        1.48616008795108       -0.68445778213670
C           -0.13733900300539        2.67682950753838       -1.22879553348598
C           -1.51410020732150        2.85029790608600       -1.31027400606148
C           -2.42545530940354        1.90015378706970       -0.87397544795230
C           -1.97369299618093        0.68890319641466       -0.31447188458802
C            1.63348853426210        0.94240113145757       -0.43935279490697
N            2.83611725208963        1.37800158284130       -0.63644721249725
C            3.89658729598846        0.65235137688067       -0.30802248237811
C            5.21868824107036        1.14476997749397       -0.53055590538748
C            5.44318130561514        2.40813154169716       -1.09999377946547
C            6.73562728634354        2.83600535341432       -1.29244612410052
C            7.77960727318136        1.99027427217023       -0.91105079726597
N            7.59148471663970        0.80589513505630       -0.37729687813672
C            6.35031890363372        0.37224167031145       -0.18210340412537
C            6.16634484155618       -0.94179957204799        0.41052813236552
N            7.24920996106192       -1.64594963599482        0.72668488504242
C            7.10446898773191       -2.83510258239610        1.26375268317416
C            5.86224559538214       -3.41430490991260        1.52758637788803
C            4.72844808938162       -2.70318335506991        1.20815684295813
C            4.85986368946518       -1.43098991417172        0.63299748135286
C            3.71186134398587       -0.65071959312088        0.28141503362146
N            2.49118310403655       -1.11101998914774        0.48969649027909
C            1.44083501845443       -0.41228497091673        0.17450533158806
H           -6.77606996587016        2.80742415146517        3.47915204421410
H           -4.30909827870018        2.66545331143024        3.60028839628623
H           -3.07990364984382        1.20079009310963        2.05997826837212
H           -7.99777799842655        1.44187149791025        1.80228614081601
H           -8.11799403520309       -1.59200151277059       -1.63755377761993
H           -7.00832349454652       -3.07639593177550       -3.29114260251483
H           -4.53915303427022       -3.22446606806591       -3.32910999371220
H           -3.20020172592518       -1.93104404129296       -1.72586571816086
H           -2.76184118007925       -2.32934355636876        1.06115853367049
H           -0.31134400034337       -2.58097332856863        1.16324560565076
H            0.53920987164060        3.44058343414723       -1.57854972132816
H           -1.89411232368977        3.76933968862445       -1.73381197658915
H           -3.48444652594872        2.09325297811448       -0.96490855727458
H            4.59066787471663        3.01286402976270       -1.37265903449386
H            6.94479032326809        3.80121147630331       -1.72725350440376
H            8.81210340079656        2.28531741549834       -1.04367551982767
H            8.02301697561753       -3.35724379226419        1.49740343722498
H            5.79852911682263       -4.39593411540563        1.97112499265931
H            3.73682963637251       -3.09294112151741        1.38588274032626

 projected vibrational frequencies (cm⁻¹)
eigval :       -0.00    -0.00    -0.00    -0.00     0.00     0.00
eigval :       12.68    15.70    25.11    33.74    47.72    50.38
eigval :       80.35    82.64    97.52   109.96   112.34   126.03
eigval :      145.30   160.27   168.09   193.40   197.08   215.72
eigval :      230.23   245.86   258.68   262.10   268.61   310.59
eigval :      314.35   344.72   353.24   388.24   395.10   397.90
eigval :      401.83   410.17   416.35   427.41   429.98   436.46
eigval :      446.22   462.40   463.83   489.87   502.82   510.11
eigval :      516.27   523.32   524.97   529.82   545.48   562.28
eigval :      565.64   579.01   580.58   589.53   616.04   617.82
eigval :      630.27   643.81   662.57   664.66   666.39   668.99
eigval :      685.07   691.39   700.11   706.85   714.15   752.06
eigval :      767.57   776.24   777.70   779.76   788.81   793.17
eigval :      800.12   800.42   808.07   846.72   848.09   855.50
eigval :      863.75   864.89   892.13   898.74   899.87   903.82
eigval :      906.57   909.55   913.60   915.12   916.19   916.55
eigval :      917.04   917.60   941.59   997.73  1026.07  1042.44
eigval :     1065.31  1084.62  1085.27  1088.53  1092.09  1103.81
eigval :     1111.65  1112.70  1128.97  1131.01  1133.84  1150.03
eigval :     1170.38  1173.71  1182.19  1186.78  1191.47  1202.49
eigval :     1205.53  1219.23  1223.31  1238.15  1251.61  1256.25
eigval :     1270.37  1272.84  1283.96  1293.20  1296.38  1310.80
eigval :     1316.31  1322.30  1323.88  1338.91  1350.04  1352.74
eigval :     1369.71  1379.37  1383.12  1388.39  1415.21  1418.33
eigval :     1420.21  1436.35  1442.62  1444.52  1452.59  1476.57
eigval :     1483.76  1495.53  1510.32  1520.29  1528.86  1530.93
eigval :     1542.72  1559.36  1564.31  1567.01  1567.66  1579.30
eigval :     1585.93  1591.48  3057.37  3058.98  3069.68  3070.06
eigval :     3079.51  3079.96  3081.80  3093.27  3093.67  3094.02
eigval :     3094.47  3099.25  3102.95  3103.26  3103.62  3110.80
eigval :     3112.75  3114.94  3115.21

   temp. (K)  partition function   enthalpy   heat capacity  entropy
                                   cal/mol     cal/K/mol   cal/K/mol   J/K/mol
 298.15  VIB  0.183E+13            17270.497    115.072    104.172
         ROT  0.545E+08              888.752      2.981     38.383
         INT  0.999E+20            18159.250    118.053    142.555
         TR   0.121E+29             1481.254      4.968     44.711
         TOT                       19640.5035   123.0215   187.2658   783.5202

       T/K    H(0)-H(T)+PV         H(T)/Eh          T*S/Eh         G(T)/Eh
   ------------------------------------------------------------------------
    298.15    0.312991E-01    0.471383E+00    0.889760E-01    0.382406E+00
   ------------------------------------------------------------------------

         :::::::::::::::::::::::::::::::::::::::::::::::::::::
         ::                  THERMODYNAMIC                  ::
         :::::::::::::::::::::::::::::::::::::::::::::::::::::
         :: total free energy        -105.097795870516 Eh   ::
         ::.................................................::
         :: total energy             -105.480202353319 Eh   ::
         :: zero point energy           0.440083381585 Eh   ::
         :: G(RRHO) w/o ZPVE           -0.057676898782 Eh   ::
         :: G(RRHO) contrib.            0.382406482803 Eh   ::
         :::::::::::::::::::::::::::::::::::::::::::::::::::::

           -------------------------------------------------
          | TOTAL ENERGY             -105.480202353319 Eh   |
          | TOTAL ENTHALPY           -105.008819837076 Eh   |
          | TOTAL FREE ENERGY        -105.097795870516 Eh   |
          | GRADIENT NORM               0.000129414407 Eh/α |
           -------------------------------------------------

 * finished run on 2025/07/20 at 20:19:10.991
