   * xtb version 6.7.1 (edcfbbe) compiled by 'albert@albert-system' on 2024-07-22

   ID    Z sym.   atoms
    1    6 C      1-4, 6-20, 22-35, 37-53, 55-67
    2    7 N      5, 21, 36, 54
    3    1 H      68-109

          program call               : xtb data2507/toluene/TPACzPI/TPACzPI.xyz --gfn 2 --gbsa toluene --ohess vtight --parallel 40 --molden --ceasefiles --namespace data2507/toluene/TPACzPI/TPACzPI_toluene_S0_preOpt
      * Solvation model:               GBSA
        Solvent                        toluene
        Solvent mass                       9.2140E+01 g/mol
          :  Hamiltonian                  GFN2-xTB          :
 * total energy  :  -168.1468083 Eh     change       -0.2678064E-08 Eh
 * total energy  :  -168.1650184 Eh     change       -0.1821013E-01 Eh
 * total energy  :  -168.1706495 Eh     change       -0.5631065E-02 Eh
 * total energy  :  -168.1723822 Eh     change       -0.1732745E-02 Eh
 * total energy  :  -168.1734127 Eh     change       -0.1030460E-02 Eh
 * total energy  :  -168.1738760 Eh     change       -0.4633305E-03 Eh
 * total energy  :  -168.1741582 Eh     change       -0.2821983E-03 Eh
 * total energy  :  -168.1743865 Eh     change       -0.2282685E-03 Eh
 * total energy  :  -168.1745970 Eh     change       -0.2105528E-03 Eh
 * total energy  :  -168.1748064 Eh     change       -0.2093106E-03 Eh
 * total energy  :  -168.1808338 Eh     change       -0.1273225E-05 Eh
 * total energy  :  -168.1808348 Eh     change       -0.9862131E-06 Eh
 * total energy  :  -168.1808358 Eh     change       -0.9482748E-06 Eh
 * total energy  :  -168.1808369 Eh     change       -0.1140877E-05 Eh
 * total energy  :  -168.1808383 Eh     change       -0.1449783E-05 Eh
 * total energy  :  -168.1808401 Eh     change       -0.1792880E-05 Eh
 * total energy  :  -168.1808421 Eh     change       -0.1939525E-05 Eh
 * total energy  :  -168.1808441 Eh     change       -0.1995470E-05 Eh
 * total energy  :  -168.1808441 Eh     change       -0.6376354E-08 Eh
   *** GEOMETRY OPTIMIZATION CONVERGED AFTER 152 ITERATIONS ***

 final structure:
================
109
 xtb: 6.7.1 (edcfbbe)
C          -10.19094880838138       -1.49050992108236       -3.80547843556738
C          -10.91236198723532       -1.16742779586287       -2.66735174185966
C          -10.26483788122596       -0.94293955101114       -1.46762398466630
C           -8.87615763472223       -1.04967487439684       -1.38677936755481
N           -8.21639153082585       -0.83415412680514       -0.17090897638055
C           -8.80035421647720       -1.26188679717082        1.02852389937949
C           -9.50453877439547       -2.46464061720211        1.08462669915794
C          -10.08529218497008       -2.87696769335941        2.26860475251886
C           -9.96758084984062       -2.10640840559470        3.41433777933113
C           -9.26432235962773       -0.91339006079905        3.36541973981862
C           -8.68670065361594       -0.48886024803640        2.18420340639427
C           -6.96768691404892       -0.20507149031869       -0.15276674693911
C           -6.69030916222786        0.85252534241736       -1.02020551136486
C           -5.45661144746974        1.46846390972872       -1.00021364372851
C           -4.45745384825480        1.04966064967116       -0.12229910791972
C           -3.14345737707574        1.70487538935174       -0.10612021582663
C           -1.97340241465109        0.95635352527163        0.01131651673961
C           -0.73539317241471        1.56614565943055        0.02385942830508
C           -0.63024986831046        2.95253031863965       -0.07787649538197
C            0.64170850619705        3.65508634216119       -0.03963512743197
N            0.78848973871293        4.82988105017117        0.52581786737357
C            2.10136182190191        5.15143400435639        0.38238514073240
C            2.76751461357440        6.31826501251555        0.85107930217900
C            2.08022303189992        7.31368223310701        1.55498393623821
C            2.74392867049558        8.42344691558605        2.01540532631238
C            4.11187608901226        8.54876245490478        1.77898720300653
C            4.79695189757049        7.57836189718424        1.08543182510822
C            4.15254172014679        6.43322557703976        0.59090410889352
C            4.84254202340874        5.40466363201704       -0.16936165178314
C            6.20497204664755        5.51441894488336       -0.48467885287544
C            6.86098165196609        4.56557370850986       -1.23288947082076
C            6.17023849550542        3.45848571357954       -1.71591395862026
C            4.83648160660574        3.30999359351824       -1.42493100387121
C            4.15338486333381        4.25364383075525       -0.64361737133950
C            2.77438485317532        4.14295269210987       -0.30589127874413
N            1.82302487634850        3.18020783592215       -0.56233479169251
C            1.95226081781245        1.97923870131272       -1.29700286819285
C            1.31345587326107        1.86436465951853       -2.52536242693183
C            1.42032917521234        0.68112805171561       -3.23551878654872
C            2.15691554503975       -0.37352378035773       -2.73027303104264
C            2.80036443152561       -0.27007649025588       -1.49658723667530
C            3.57696529263406       -1.39726358563664       -0.95904289077731
C            4.41012941995861       -2.13716243666069       -1.81095708693449
C            5.14545201145944       -3.21375627201903       -1.36160051141358
C            5.02962765897182       -3.57074382654144       -0.02457512029505
C            4.21310671555979       -2.82254425378357        0.85625708760599
C            3.49166454881186       -1.73623127932253        0.38533036578232
C            4.34921691232974       -3.43001814002688        2.15096014038854
C            3.79027008862062       -3.16674220340032        3.39526294009991
C            4.12527771748347       -3.98344716787083        4.45690574728178
C            4.99586892577613       -5.05863652422445        4.28744332545431
C            5.56501346329297       -5.34014440938815        3.06010156063072
C            5.24803064305168       -4.51067311950363        1.99337117170935
N            5.64985388981293       -4.58275417140801        0.67411097207354
C            6.52924830936070       -5.53588184598945        0.13216134228162
C            6.15420574975010       -6.27365541931999       -0.98668152920825
C            7.02347858946178       -7.20828522117115       -1.51940184159682
C            8.26283141052424       -7.42087971887501       -0.93794551610657
C            8.63513075565820       -6.68986120379426        0.17843972062239
C            7.77680794801679       -5.74540793980122        0.71193197638371
C            2.68504847784771        0.91793951710431       -0.78063989784321
C           -1.80087366418783        3.70735074804907       -0.17363055836083
C           -3.03450655219093        3.09298689844299       -0.19600170646369
C           -4.74021513410149       -0.00741421792107        0.74211523256535
C           -5.97359443950294       -0.62384355764756        0.73284891518159
C           -8.15513014430522       -1.37823987771518       -2.53517371297696
C           -8.81087027794410       -1.59135980041667       -3.73239605179839
H          -10.70021321579740       -1.66228510664921       -4.74191987541032
H          -11.98824206417993       -1.08039721892008       -2.71505674409038
H          -10.82998557887469       -0.68197846848864       -0.58461329834024
H           -9.59064093036684       -3.07147166516137        0.19482871501766
H          -10.62695135238867       -3.81136032058597        2.29824217211888
H          -10.42082373195230       -2.43307328155395        4.33830837797176
H           -9.17151641235049       -0.30320950662670        4.25225217662329
H           -8.14589346186540        0.44573035765233        2.14686547926198
H           -7.45245247681848        1.18793682322399       -1.70857547082746
H           -5.25767584616910        2.27900054796872       -1.68591235697298
H           -2.03331511394942       -0.12004257754308        0.07962810332302
H            0.15022764248983        0.95908239505792        0.13227767624090
H            1.02299965422110        7.17433123615696        1.72288903805288
H            2.21568188190633        9.19310983560608        2.55893199995714
H            4.64066403258674        9.41770013670053        2.14393449121972
H            5.85463392057331        7.71853268842690        0.92843008178049
H            6.76686995496658        6.36790621498745       -0.14141592006852
H            7.91150266284143        4.68571083302037       -1.45402246076183
H            6.67783681782615        2.71942737914133       -2.31820221197164
H            4.30255315624821        2.45708659017845       -1.81148283540864
H            0.74152531824489        2.69546425542771       -2.91023909269454
H            0.92298065477220        0.58494861734183       -4.18892732818564
H            2.22119951949091       -1.29740272840049       -3.28481417845788
H            4.49574228046466       -1.83705917760422       -2.84488089458959
H            5.79735922326493       -3.75512552899646       -2.03033264413706
H            2.85394118619902       -1.17784598203459        1.05423211340253
H            3.10424000502526       -2.34279189692305        3.52453215751969
H            3.70237745995710       -3.79554413328401        5.43297528677237
H            5.22798961042596       -5.68825363478076        5.13405833418903
H            6.22614450145922       -6.18436394209109        2.93523508142199
H            5.17909381742753       -6.11844189497635       -1.42424689172440
H            6.72784670299607       -7.77866672658697       -2.38766912905814
H            8.93684760949774       -8.15468540585633       -1.35380350064672
H            9.60216972577101       -6.84930095864910        0.63234688464544
H            8.07053582186223       -5.15933959254062        1.57022996043499
H            3.18363826470898        1.03167932329088        0.17157117954138
H           -1.71797329600776        4.78224739792932       -0.22758732837383
H           -3.92966153045744        3.69396484254446       -0.26137560904545
H           -3.98704786814459       -0.33986986988067        1.44132492857649
H           -6.17644188604553       -1.43984042057458        1.41123542143454
H           -7.07998384079009       -1.46888450982492       -2.47973915784195
H           -8.23970539872423       -1.84779669031244       -4.61296965282838

          :  Hamiltonian                  GFN2-xTB          :
         :: gradient norm              0.000063529969 Eh/a0 ::
         :: HOMO-LUMO gap              2.318870809818 eV    ::
         :: SCC energy              -171.367025470001 Eh    ::
         :: -> dispersion             -0.155672995457 Eh    ::
         :: -> Gsolv                  -0.070912377117 Eh    ::
         :: repulsion energy           3.186181387589 Eh    ::

    * Orbital Energies and Occupations

         #    Occupation            Energy/Eh            Energy/eV
      -------------------------------------------------------------
         1        2.0000           -0.6866066             -18.6835
       ...           ...                  ...                  ...
       145        2.0000           -0.4070005             -11.0750
       146        2.0000           -0.4059576             -11.0467
       147        2.0000           -0.4040188             -10.9939
       148        2.0000           -0.4038427             -10.9891
       149        2.0000           -0.4012848             -10.9195
       150        2.0000           -0.3989976             -10.8573
       151        2.0000           -0.3927120             -10.6862
       152        2.0000           -0.3820829             -10.3970
       153        2.0000           -0.3812491             -10.3743
       154        2.0000           -0.3782915             -10.2938
       155        2.0000           -0.3639106              -9.9025
       156        2.0000           -0.3635427              -9.8925
       157        2.0000           -0.3483273              -9.4785 (HOMO)
       158                         -0.2631104              -7.1596 (LUMO)
       159                         -0.2516499              -6.8477
       160                         -0.2494950              -6.7891
       161                         -0.2486690              -6.7666
       162                         -0.2461550              -6.6982
       163                         -0.2373957              -6.4599
       164                         -0.2338980              -6.3647
       165                         -0.2323011              -6.3212
       166                         -0.2299172              -6.2564
       167                         -0.2269874              -6.1766
       168                         -0.2263178              -6.1584
       ...                                ...                  ...
       310                          0.7429019              20.2154
      -------------------------------------------------------------
                  HL-Gap            0.0852169 Eh            2.3189 eV

     #   Z          covCN         q      C6AA      α(0)
     1   6 C        2.919    -0.040    28.984     8.828
     2   6 C        2.919    -0.030    28.756     8.794
     3   6 C        2.922    -0.048    29.197     8.861
     4   6 C        2.923     0.065    26.534     8.447
     5   7 N        2.752    -0.079    22.768     7.087
     6   6 C        2.924     0.065    26.534     8.447
     7   6 C        2.922    -0.048    29.188     8.860
     8   6 C        2.919    -0.030    28.755     8.794
     9   6 C        2.919    -0.039    28.974     8.827
    10   6 C        2.919    -0.030    28.753     8.793
    11   6 C        2.922    -0.048    29.188     8.860
    12   6 C        2.923     0.065    26.551     8.450
    13   6 C        2.920    -0.048    29.200     8.861
    14   6 C        2.924    -0.034    28.853     8.809
    15   6 C        2.975     0.001    27.994     8.679
    16   6 C        2.976     0.012    27.731     8.638
    17   6 C        2.924    -0.035    28.881     8.813
    18   6 C        2.920    -0.037    28.910     8.817
    19   6 C        2.974    -0.005    28.138     8.701
    20   6 C        3.191     0.138    24.550     8.081
    21   7 N        1.894    -0.322    29.193     8.010
    22   6 C        3.205     0.060    26.078     8.317
    23   6 C        2.985    -0.004    28.105     8.696
    24   6 C        2.921    -0.034    28.838     8.806
    25   6 C        2.917    -0.032    28.802     8.801
    26   6 C        2.917    -0.035    28.863     8.810
    27   6 C        2.921    -0.037    28.913     8.818
    28   6 C        2.979    -0.005    28.148     8.703
    29   6 C        2.979    -0.002    28.072     8.691
    30   6 C        2.922    -0.035    28.881     8.813
    31   6 C        2.916    -0.034    28.858     8.809
    32   6 C        2.917    -0.033    28.813     8.802
    33   6 C        2.919    -0.041    29.030     8.835
    34   6 C        2.977    -0.005    28.153     8.703
    35   6 C        3.073     0.023    27.423     8.586
    36   7 N        2.840    -0.057    22.331     7.018
    37   6 C        2.911     0.066    26.529     8.446
    38   6 C        2.922    -0.042    29.053     8.839
    39   6 C        2.918    -0.027    28.676     8.781
    40   6 C        2.925    -0.036    28.901     8.816
    41   6 C        2.977     0.016    27.657     8.626
    42   6 C        2.977    -0.003    28.100     8.695
    43   6 C        2.928    -0.038    28.956     8.825
    44   6 C        2.908    -0.051    29.272     8.871
    45   6 C        3.078     0.047    26.855     8.496
    46   6 C        3.065    -0.018    28.399     8.739
    47   6 C        2.917    -0.038    28.936     8.821
    48   6 C        3.067    -0.019    28.400     8.739
    49   6 C        2.912    -0.034    28.853     8.808
    50   6 C        2.920    -0.042    29.045     8.838
    51   6 C        2.924    -0.034    28.853     8.809
    52   6 C        2.909    -0.051    29.269     8.871
    53   6 C        3.078     0.048    26.852     8.496
    54   7 N        2.802    -0.043    22.075     6.978
    55   6 C        2.913     0.063    26.578     8.454
    56   6 C        2.922    -0.042    29.039     8.837
    57   6 C        2.920    -0.028    28.693     8.784
    58   6 C        2.919    -0.032    28.805     8.801
    59   6 C        2.920    -0.028    28.692     8.784
    60   6 C        2.922    -0.042    29.033     8.836
    61   6 C        2.926    -0.044    29.087     8.845
    62   6 C        2.926    -0.030    28.750     8.793
    63   6 C        2.923    -0.034    28.847     8.808
    64   6 C        2.924    -0.034    28.852     8.809
    65   6 C        2.920    -0.048    29.202     8.862
    66   6 C        2.922    -0.048    29.202     8.862
    67   6 C        2.919    -0.030    28.757     8.794
    68   1 H        0.926     0.031     2.566     2.505
    69   1 H        0.926     0.033     2.545     2.495
    70   1 H        0.926     0.031     2.568     2.506
    71   1 H        0.926     0.032     2.563     2.504
    72   1 H        0.926     0.033     2.540     2.492
    73   1 H        0.926     0.032     2.560     2.502
    74   1 H        0.926     0.033     2.540     2.492
    75   1 H        0.926     0.032     2.563     2.504
    76   1 H        0.926     0.034     2.532     2.489
    77   1 H        0.926     0.037     2.492     2.468
    78   1 H        0.926     0.038     2.471     2.458
    79   1 H        0.926     0.028     2.616     2.529
    80   1 H        0.926     0.043     2.413     2.429
    81   1 H        0.926     0.032     2.557     2.501
    82   1 H        0.926     0.032     2.564     2.504
    83   1 H        0.926     0.034     2.528     2.486
    84   1 H        0.926     0.037     2.495     2.470
    85   1 H        0.926     0.032     2.555     2.500
    86   1 H        0.926     0.031     2.572     2.508
    87   1 H        0.926     0.029     2.598     2.520
    88   1 H        0.926     0.035     2.522     2.483
    89   1 H        0.926     0.045     2.385     2.415
    90   1 H        0.926     0.046     2.364     2.404
    91   1 H        0.926     0.036     2.498     2.472
    92   1 H        0.926     0.034     2.524     2.484
    93   1 H        0.926     0.031     2.567     2.506
    94   1 H        0.926     0.030     2.587     2.515
    95   1 H        0.926     0.028     2.608     2.525
    96   1 H        0.926     0.031     2.570     2.507
    97   1 H        0.926     0.031     2.567     2.505
    98   1 H        0.926     0.042     2.420     2.433
    99   1 H        0.926     0.041     2.436     2.441
   100   1 H        0.926     0.040     2.451     2.448
   101   1 H        0.926     0.041     2.441     2.443
   102   1 H        0.926     0.042     2.428     2.437
   103   1 H        0.926     0.040     2.452     2.449
   104   1 H        0.926     0.044     2.400     2.422
   105   1 H        0.926     0.041     2.440     2.443
   106   1 H        0.926     0.036     2.503     2.474
   107   1 H        0.926     0.033     2.540     2.492
   108   1 H        0.926     0.031     2.566     2.505
   109   1 H        0.926     0.033     2.544     2.494

molecular dipole:
                 x           y           z       tot (Debye)
 q only:        0.368      -2.219      -0.838
   full:        0.659      -2.423      -1.000       6.872

 projected vibrational frequencies (cm⁻¹)
eigval :       -0.00    -0.00    -0.00    -0.00     0.00     0.00
eigval :        2.60     5.74     7.57    11.63    15.97    16.48
eigval :       27.87    30.10    39.45    42.94    47.19    49.85
eigval :       53.17    60.53    61.98    67.52    71.65    74.24
eigval :       80.46    81.98    87.00    93.12   107.00   110.40
eigval :      121.83   125.70   137.56   158.74   161.81   177.12
eigval :      193.23   205.05   215.24   220.66   225.16   231.04
eigval :      234.78   249.16   252.82   257.46   265.78   269.14
eigval :      285.25   300.61   310.45   316.64   331.84   342.28
eigval :      354.28   365.87   374.65   377.49   379.07   379.53
eigval :      382.78   386.43   393.41   396.19   398.97   412.94
eigval :      414.43   422.87   425.88   433.13   437.96   444.21
eigval :      449.96   462.49   474.80   479.56   486.74   491.92
eigval :      509.42   517.22   522.59   533.23   535.03   538.15
eigval :      542.47   567.38   580.87   583.40   584.94   585.81
eigval :      592.07   592.75   600.81   602.22   606.14   611.75
eigval :      616.08   617.44   639.29   648.91   659.85   660.44
eigval :      663.62   665.92   670.22   672.70   677.80   679.70
eigval :      683.37   685.79   688.82   706.93   708.69   714.15
eigval :      721.96   733.42   748.13   754.43   754.94   762.38
eigval :      763.21   764.05   775.36   778.83   789.70   802.31
eigval :      806.20   825.35   831.82   843.40   858.10   868.25
eigval :      869.51   871.65   872.11   873.71   874.20   875.50
eigval :      882.08   889.55   890.39   890.89   896.75   900.79
eigval :      904.10   906.10   909.14   909.64   911.67   913.83
eigval :      914.83   916.24   920.36   921.67   922.78   923.76
eigval :      924.31   925.19   925.92   926.33   927.40   928.31
eigval :      928.36   932.26   933.39   933.90   939.83   964.07
eigval :      978.10   987.62   997.48  1003.73  1008.81  1017.79
eigval :     1021.05  1032.88  1069.70  1070.71  1078.88  1080.24
eigval :     1081.32  1081.52  1083.32  1085.27  1107.15  1116.51
eigval :     1120.05  1121.40  1122.46  1127.01  1132.53  1136.96
eigval :     1144.55  1151.83  1155.57  1173.08  1177.42  1177.87
eigval :     1179.78  1179.83  1179.97  1181.63  1184.68  1184.81
eigval :     1186.18  1193.04  1194.22  1199.20  1201.22  1203.29
eigval :     1213.95  1221.68  1240.07  1246.54  1254.38  1256.29
eigval :     1265.27  1267.92  1271.15  1273.75  1277.17  1277.83
eigval :     1281.61  1285.33  1288.91  1304.25  1308.70  1311.10
eigval :     1315.12  1315.16  1316.51  1319.15  1323.53  1324.16
eigval :     1326.83  1334.31  1336.96  1346.77  1348.81  1359.70
eigval :     1364.10  1369.80  1395.54  1405.79  1411.76  1413.22
eigval :     1419.39  1426.18  1428.58  1433.78  1433.90  1434.43
eigval :     1440.91  1444.86  1457.30  1463.29  1470.08  1472.99
eigval :     1479.32  1481.43  1491.68  1493.70  1512.16  1514.00
eigval :     1539.63  1552.17  1558.84  1562.94  1563.73  1567.92
eigval :     1572.27  1575.46  1579.27  1581.54  1582.00  1585.48
eigval :     1586.83  1591.43  1593.12  1593.16  1596.83  1597.22
eigval :     1602.43  1603.36  1612.91  3069.30  3070.54  3071.30
eigval :     3071.65  3072.13  3072.25  3073.18  3075.22  3076.17
eigval :     3077.03  3077.37  3078.02  3078.94  3079.60  3079.93
eigval :     3080.67  3080.75  3081.59  3082.51  3082.79  3083.52
eigval :     3083.61  3084.27  3084.54  3085.48  3086.78  3086.85
eigval :     3089.81  3090.07  3090.24  3091.89  3092.68  3093.43
eigval :     3094.04  3095.40  3096.32  3096.95  3097.86  3098.45
eigval :     3098.88  3108.91  3118.88

   temp. (K)  partition function   enthalpy   heat capacity  entropy
                                   cal/mol     cal/K/mol   cal/K/mol   J/K/mol
 298.15  VIB  0.320E+27            31334.540    196.959    199.390
         ROT  0.367E+09              888.752      2.981     42.174
         INT  0.118E+36            32223.293    199.940    241.563
         TR   0.242E+29             1481.254      4.968     46.094
         TOT                       33704.5467   204.9081   287.6572  1203.5576

       T/K    H(0)-H(T)+PV         H(T)/Eh          T*S/Eh         G(T)/Eh
   ------------------------------------------------------------------------
    298.15    0.537116E-01    0.894856E+00    0.136675E+00    0.758181E+00
   ------------------------------------------------------------------------

         :::::::::::::::::::::::::::::::::::::::::::::::::::::
         ::                  THERMODYNAMIC                  ::
         :::::::::::::::::::::::::::::::::::::::::::::::::::::
         :: total free energy        -167.422663130515 Eh   ::
         ::.................................................::
         :: total energy             -168.180844074627 Eh   ::
         :: zero point energy           0.841144534977 Eh   ::
         :: G(RRHO) w/o ZPVE           -0.082963590864 Eh   ::
         :: G(RRHO) contrib.            0.758180944113 Eh   ::
         :::::::::::::::::::::::::::::::::::::::::::::::::::::

           -------------------------------------------------
          | TOTAL ENERGY             -168.180844074627 Eh   |
          | TOTAL ENTHALPY           -167.285987925556 Eh   |
          | TOTAL FREE ENERGY        -167.422663130515 Eh   |
          | GRADIENT NORM               0.000063531916 Eh/α |
          | HOMO-LUMO GAP               2.318871000453 eV   |
           -------------------------------------------------

 * finished run on 2025/08/25 at 23:25:24.316
