   * xtb version 6.7.1 (edcfbbe) compiled by 'albert@albert-system' on 2024-07-22

   ID    Z sym.   atoms
    1    6 C      1-4, 6-20, 22-35, 37-53, 55-67
    2    7 N      5, 21, 36, 54
    3    1 H      68-109

          program call               : xtb data2507/toluene/TPACzPI/TPACzPI_toluene_S0_finalOpt.xtbopt.xyz --gfn 2 --uhf 2 --gbsa toluene --ohess vtight --parallel 40 --molden --ceasefiles --namespace data2507/toluene/TPACzPI/TPACzPI_toluene_T1_preOpt
      * Solvation model:               GBSA
        Solvent                        toluene
        Solvent mass                       9.2140E+01 g/mol
          :  Hamiltonian                  GFN2-xTB          :
 * total energy  :  -168.0890915 Eh     change       -0.1446904E-06 Eh
 * total energy  :  -168.0943519 Eh     change       -0.5260490E-02 Eh
 * total energy  :  -168.0974508 Eh     change       -0.3098855E-02 Eh
 * total energy  :  -168.0983211 Eh     change       -0.8703399E-03 Eh
 * total energy  :  -168.0994909 Eh     change       -0.1169798E-02 Eh
 * total energy  :  -168.1000933 Eh     change       -0.6023551E-03 Eh
 * total energy  :  -168.1005095 Eh     change       -0.4161947E-03 Eh
 * total energy  :  -168.1008038 Eh     change       -0.2943218E-03 Eh
 * total energy  :  -168.1010297 Eh     change       -0.2259148E-03 Eh
 * total energy  :  -168.1011729 Eh     change       -0.1431694E-03 Eh
 * total energy  :  -168.1018978 Eh     change       -0.2147383E-06 Eh
 * total energy  :  -168.1018980 Eh     change       -0.2335957E-06 Eh
 * total energy  :  -168.1018983 Eh     change       -0.2782553E-06 Eh
 * total energy  :  -168.1018985 Eh     change       -0.2609782E-06 Eh
 * total energy  :  -168.1018988 Eh     change       -0.2073165E-06 Eh
 * total energy  :  -168.1018989 Eh     change       -0.1596708E-06 Eh
 * total energy  :  -168.1018991 Eh     change       -0.1410973E-06 Eh
 * total energy  :  -168.1018992 Eh     change       -0.1206333E-06 Eh
 * total energy  :  -168.1018993 Eh     change       -0.9373372E-07 Eh
   *** GEOMETRY OPTIMIZATION CONVERGED AFTER 84 ITERATIONS ***

 final structure:
================
109
 xtb: 6.7.1 (edcfbbe)
C           -7.73354915018103       -6.29353357303807       -1.07460170745818
C           -8.22033551754454       -5.08461696779701       -1.54828040311405
C           -7.59815894560654       -3.89915640222522       -1.20897665993311
C           -6.47358620407060       -3.90993056326936       -0.38158872679094
N           -5.83650580720394       -2.71101076313227       -0.03579958530526
C           -6.60823372573509       -1.58013635707020        0.25011130306291
C           -7.83244795642634       -1.71075231315636        0.91071496824435
C           -8.59321244807408       -0.59257060476142        1.18948836875246
C           -8.14849510104537        0.66909666088329        0.82390316042805
C           -6.93295137913570        0.80380000363485        0.17069796293456
C           -6.16669588631227       -0.30759118432363       -0.11949899811618
C           -4.45196181038463       -2.65292495349029        0.01559873622382
C           -3.66259594673160       -3.43244461657228       -0.85036859271421
C           -2.29827884899327       -3.36456241941509       -0.81299618064936
C           -1.60860517557516       -2.52674739245193        0.10406041823064
C           -0.18826662280913       -2.43449694869506        0.13639685332804
C            0.64108075383315       -2.92682978799974       -0.91793779182112
C            1.98412934639695       -2.73199803576555       -0.92952382081890
C            2.64508751997555       -2.00244708565725        0.10482238896731
C            4.00751630707725       -1.70372798181101       -0.05187112312063
N            4.81154984753632       -2.38529391716923       -0.88245418565291
C            6.03282448716564       -1.87061089601935       -0.73354648440753
C            7.23854999659292       -2.30992553055886       -1.35582861455519
C            7.24355897710566       -3.41706399823857       -2.20858931824886
C            8.41834152238951       -3.86032669357091       -2.77098552956773
C            9.60592003553829       -3.19874880221110       -2.47269090398316
C            9.61166186119575       -2.10140928562018       -1.63918845374998
C            8.43173131436623       -1.60952639243172       -1.06095546842754
C            8.39602885003888       -0.42827655395133       -0.21719704467276
C            9.53758851327105        0.35081354433547       -0.00001810003181
C            9.51108924698715        1.50065534570645        0.75750110874450
C            8.31082206262310        1.93752666859400        1.31768858956887
C            7.16850272043663        1.20304747611218        1.13670201498183
C            7.17558552029085        0.00207767172814        0.39705887360712
C            6.02598957668525       -0.78753749803327        0.18060914321904
N            4.72736687974139       -0.69899838715881        0.62308202264399
C            4.12892209425779        0.25495416369056        1.46150732907708
C            4.54798357954876        0.41914256103596        2.78067443989588
C            3.88748184062030        1.32338352766642        3.59264898504400
C            2.80011998651625        2.03671783759998        3.11761778050857
C            2.36150769395737        1.87014883659566        1.80415511671432
C            1.16529564608867        2.56104491316260        1.30098686598338
C            0.91325419546267        3.89872292147738        1.63597269123493
C           -0.20990904775444        4.56536329399505        1.19038913980232
C           -1.11208148097277        3.86846800427775        0.39735725406890
C           -0.86595160376111        2.52342157486580        0.03452528992592
C            0.27008694466665        1.87376871057640        0.48963857602331
C           -1.94930499746269        2.12626697868382       -0.82070636889698
C           -2.25909573431938        0.94527257299448       -1.48257848277069
C           -3.40703236463520        0.90133877539800       -2.24899335802954
C           -4.25020440032737        2.00778795424939       -2.34289175732502
C           -3.96358199877134        3.19166566227928       -1.69009423118825
C           -2.79604428051537        3.25275994273833       -0.94193310530675
N           -2.28181117419990        4.29470482652986       -0.19546342007547
C           -2.84102933292699        5.57833765890345       -0.07767955664373
C           -3.05530975354040        6.13362984114661        1.18038962713180
C           -3.59846326421380        7.40073132538421        1.29187076581061
C           -3.94031441691507        8.11692221010629        0.15632967930165
C           -3.73178296911122        7.56312860464248       -1.09636162396689
C           -3.17972785105834        6.30082431757597       -1.21799972097605
C            3.05328859778936        0.99254956061209        0.97704982790015
C            1.84679099499952       -1.64430452266601        1.23083711973222
C            0.50329543135268       -1.84596298716331        1.23587417660735
C           -2.42686792604443       -1.76100617456388        0.97846712823867
C           -3.79087199279040       -1.81454035412899        0.93192043358619
C           -5.98892744670676       -5.12928371982493        0.09583439901265
C           -6.61725271948906       -6.30893946357769       -0.25213762952765
H           -8.22169103740849       -7.21788178656591       -1.34377458674772
H           -9.08620703416972       -5.06567433619021       -2.19347759102447
H           -7.96911020835452       -2.95855057576118       -1.58867749708594
H           -8.17397910191065       -2.69034341733560        1.21117919264513
H           -9.53617434970655       -0.70584959475631        1.70363818855790
H           -8.74534422118060        1.54050041358372        1.04679429014461
H           -6.57796970048294        1.77991072713427       -0.12425252070194
H           -5.22840185682134       -0.19626601784707       -0.64188456667164
H           -4.14897104079935       -4.07528993995993       -1.56996631115921
H           -1.73696415094602       -3.98028869948578       -1.49747254934603
H            0.18841690555716       -3.42986795084148       -1.75818809253974
H            2.59080362040367       -3.08046480888850       -1.75134261588852
H            6.30220208825036       -3.90939200362143       -2.40032935868164
H            8.42306159856343       -4.71586876175024       -3.43007830747418
H           10.53569247775541       -3.54788553699595       -2.89873013034638
H           10.55734891851918       -1.62508322906387       -1.43451014103626
H           10.47576738729087        0.05937210945369       -0.44447239599194
H           10.41572734826252        2.07250676746545        0.90240955406333
H            8.27993705997477        2.85523028844916        1.88676683160099
H            6.23881722255685        1.55911961332836        1.55000718341434
H            5.37343114546062       -0.16670208544535        3.15833391543431
H            4.21045630377459        1.45214768040850        4.61538300836169
H            2.26851080649281        2.70534227368017        3.77759990058702
H            1.63434398602475        4.42924139649898        2.24027709032654
H           -0.37076949754490        5.60290961948055        1.44176767797516
H            0.44417163163138        0.83900507953759        0.23393258306660
H           -1.61532989889448        0.08310354751560       -1.39336269593447
H           -3.65919928097953       -0.00235438288422       -2.78491653549370
H           -5.14940254635478        1.93662558852755       -2.93761554702763
H           -4.62935323241851        4.03879769514152       -1.75898012053483
H           -2.80459875706775        5.56443505413443        2.06327570528119
H           -3.76220846635325        7.82729519616085        2.27060348568040
H           -4.36729222050877        9.10440336656958        0.24734285894011
H           -3.99212642366344        8.11978336814247       -1.98462241838847
H           -2.99593222380117        5.87384328350412       -2.19287022134977
H            2.75443242456530        0.86778464638163       -0.05343838621441
H            2.32303682003989       -1.25669716408903        2.11813595759034
H           -0.04653623107812       -1.59049360349960        2.12905904335707
H           -1.96633130185710       -1.09544759638197        1.69076447622872
H           -4.37535834658132       -1.21963602537784        1.61853053648606
H           -5.12730176921359       -5.13887465506998        0.74712220288055
H           -6.23746161307072       -7.24598252419085        0.12741112667234

          :  Hamiltonian                  GFN2-xTB          :
         :: gradient norm              0.000043144599 Eh/a0 ::
         :: HOMO-LUMO gap              0.611342280508 eV    ::
         :: SCC energy              -171.270440164456 Eh    ::
         :: -> dispersion             -0.166025932709 Eh    ::
         :: -> Gsolv                  -0.068326973543 Eh    ::
         :: repulsion energy           3.168540892755 Eh    ::

    * Orbital Energies and Occupations

         #    Occupation            Energy/Eh            Energy/eV
      -------------------------------------------------------------
         1        2.0000           -0.6782204             -18.4553
       ...           ...                  ...                  ...
       146        2.0000           -0.4067421             -11.0680
       147        2.0000           -0.4031442             -10.9701
       148        2.0000           -0.4004389             -10.8965
       149        2.0000           -0.3966726             -10.7940
       150        2.0000           -0.3922699             -10.6742
       151        2.0000           -0.3861152             -10.5067
       152        2.0000           -0.3798867             -10.3372
       153        2.0000           -0.3791032             -10.3159
       154        2.0000           -0.3730268             -10.1506
       155        1.9998           -0.3619779              -9.8499
       156        1.9997           -0.3615530              -9.8384
       157        1.0005           -0.3465114              -9.4291
       158        1.0000           -0.2728521              -7.4247 (HOMO)
       159        0.0000           -0.2503855              -6.8133 (LUMO)
       160        0.0000           -0.2477469              -6.7415
       161        0.0000           -0.2467638              -6.7148
       162                         -0.2452912              -6.6747
       163                         -0.2385746              -6.4919
       164                         -0.2331731              -6.3450
       165                         -0.2330358              -6.3412
       166                         -0.2329431              -6.3387
       167                         -0.2315794              -6.3016
       168                         -0.2284188              -6.2156
       169                         -0.2253509              -6.1321
       ...                                ...                  ...
       310                          0.7454732              20.2854
      -------------------------------------------------------------
                  HL-Gap            0.0224666 Eh            0.6113 eV

     #   Z          covCN         q      C6AA      α(0)
     1   6 C        2.919    -0.033    28.814     8.803
     2   6 C        2.919    -0.027    28.680     8.782
     3   6 C        2.921    -0.042    29.050     8.839
     4   6 C        2.927     0.063    26.591     8.457
     5   7 N        2.751    -0.036    21.942     6.957
     6   6 C        2.926     0.063    26.587     8.456
     7   6 C        2.921    -0.044    29.083     8.844
     8   6 C        2.919    -0.028    28.694     8.784
     9   6 C        2.919    -0.033    28.824     8.804
    10   6 C        2.919    -0.027    28.675     8.781
    11   6 C        2.921    -0.043    29.070     8.842
    12   6 C        2.924     0.053    26.819     8.493
    13   6 C        2.914    -0.044    29.104     8.846
    14   6 C        2.919    -0.039    28.960     8.825
    15   6 C        2.967     0.007    27.871     8.660
    16   6 C        2.968    -0.006    28.157     8.704
    17   6 C        2.914    -0.040    28.990     8.829
    18   6 C        2.919    -0.037    28.931     8.820
    19   6 C        2.968    -0.017    28.433     8.746
    20   6 C        3.148     0.131    24.887     8.161
    21   7 N        1.881    -0.331    29.441     8.043
    22   6 C        3.177     0.078    25.883     8.307
    23   6 C        2.984    -0.008    28.211     8.713
    24   6 C        2.922    -0.031    28.770     8.796
    25   6 C        2.916    -0.034    28.853     8.808
    26   6 C        2.917    -0.032    28.801     8.800
    27   6 C        2.921    -0.037    28.931     8.821
    28   6 C        2.977    -0.004    28.118     8.698
    29   6 C        2.977    -0.006    28.173     8.707
    30   6 C        2.920    -0.035    28.873     8.812
    31   6 C        2.916    -0.037    28.925     8.819
    32   6 C        2.915    -0.034    28.856     8.809
    33   6 C        2.918    -0.041    29.020     8.834
    34   6 C        2.974    -0.013    28.342     8.733
    35   6 C        3.039     0.034    27.214     8.556
    36   7 N        2.821    -0.073    22.646     7.068
    37   6 C        2.909     0.066    26.533     8.446
    38   6 C        2.919    -0.046    29.130     8.851
    39   6 C        2.918    -0.031    28.778     8.797
    40   6 C        2.923    -0.041    29.012     8.833
    41   6 C        2.976     0.013    27.709     8.635
    42   6 C        2.977    -0.003    28.104     8.696
    43   6 C        2.927    -0.039    28.959     8.825
    44   6 C        2.908    -0.052    29.293     8.875
    45   6 C        3.076     0.047    26.867     8.498
    46   6 C        3.066    -0.018    28.390     8.737
    47   6 C        2.918    -0.037    28.923     8.819
    48   6 C        3.067    -0.018    28.378     8.735
    49   6 C        2.912    -0.033    28.811     8.802
    50   6 C        2.920    -0.041    29.028     8.835
    51   6 C        2.923    -0.034    28.845     8.808
    52   6 C        2.909    -0.052    29.280     8.873
    53   6 C        3.077     0.048    26.848     8.495
    54   7 N        2.802    -0.044    22.087     6.980
    55   6 C        2.913     0.064    26.572     8.453
    56   6 C        2.922    -0.042    29.042     8.837
    57   6 C        2.920    -0.028    28.695     8.784
    58   6 C        2.919    -0.033    28.811     8.802
    59   6 C        2.920    -0.028    28.694     8.784
    60   6 C        2.922    -0.042    29.040     8.837
    61   6 C        2.929    -0.045    29.121     8.850
    62   6 C        2.911    -0.043    29.068     8.841
    63   6 C        2.916    -0.038    28.937     8.821
    64   6 C        2.920    -0.037    28.926     8.820
    65   6 C        2.914    -0.044    29.090     8.844
    66   6 C        2.921    -0.041    29.027     8.835
    67   6 C        2.919    -0.027    28.678     8.782
    68   1 H        0.926     0.040     2.449     2.447
    69   1 H        0.926     0.042     2.428     2.436
    70   1 H        0.926     0.040     2.443     2.444
    71   1 H        0.926     0.039     2.456     2.451
    72   1 H        0.926     0.041     2.439     2.442
    73   1 H        0.926     0.039     2.461     2.453
    74   1 H        0.926     0.039     2.457     2.451
    75   1 H        0.926     0.043     2.406     2.426
    76   1 H        0.926     0.034     2.527     2.486
    77   1 H        0.926     0.035     2.510     2.478
    78   1 H        0.926     0.030     2.582     2.513
    79   1 H        0.926     0.036     2.499     2.472
    80   1 H        0.926     0.043     2.410     2.428
    81   1 H        0.926     0.033     2.547     2.495
    82   1 H        0.926     0.033     2.541     2.493
    83   1 H        0.926     0.034     2.525     2.485
    84   1 H        0.926     0.034     2.525     2.485
    85   1 H        0.926     0.030     2.588     2.516
    86   1 H        0.926     0.029     2.607     2.525
    87   1 H        0.926     0.028     2.610     2.526
    88   1 H        0.926     0.034     2.526     2.485
    89   1 H        0.926     0.039     2.458     2.452
    90   1 H        0.926     0.041     2.439     2.442
    91   1 H        0.926     0.035     2.519     2.482
    92   1 H        0.926     0.034     2.534     2.489
    93   1 H        0.926     0.030     2.581     2.512
    94   1 H        0.926     0.027     2.626     2.534
    95   1 H        0.926     0.026     2.644     2.543
    96   1 H        0.926     0.033     2.545     2.495
    97   1 H        0.926     0.032     2.562     2.503
    98   1 H        0.926     0.042     2.423     2.434
    99   1 H        0.926     0.041     2.441     2.443
   100   1 H        0.926     0.040     2.455     2.450
   101   1 H        0.926     0.040     2.444     2.445
   102   1 H        0.926     0.041     2.430     2.438
   103   1 H        0.926     0.031     2.573     2.509
   104   1 H        0.926     0.016     2.800     2.617
   105   1 H        0.926     0.027     2.625     2.534
   106   1 H        0.926     0.035     2.520     2.482
   107   1 H        0.926     0.034     2.536     2.490
   108   1 H        0.926     0.041     2.441     2.443
   109   1 H        0.926     0.041     2.435     2.440

molecular dipole:
                 x           y           z       tot (Debye)
 q only:       -4.612       1.037       0.444
   full:       -4.368       1.330       0.677      11.733

 projected vibrational frequencies (cm⁻¹)
eigval :       -0.00    -0.00     0.00     0.00     0.00     0.00
eigval :        7.55    11.82    12.50    16.11    21.35    28.40
eigval :       30.91    33.34    44.09    46.80    52.03    52.48
eigval :       59.86    62.00    67.25    68.83    74.45    76.82
eigval :       82.23    86.06   100.51   104.36   108.28   111.41
eigval :      119.48   129.38   142.90   158.42   170.03   180.86
eigval :      200.32   201.42   215.89   218.87   226.00   234.87
eigval :      242.27   251.97   256.79   260.69   265.50   272.53
eigval :      285.21   291.08   303.90   316.92   323.96   337.79
eigval :      345.76   352.87   375.19   378.91   380.36   381.11
eigval :      385.45   389.84   392.14   392.27   399.79   403.25
eigval :      416.58   418.96   424.63   428.03   433.71   439.66
eigval :      445.95   453.75   457.45   478.23   479.94   484.73
eigval :      494.26   503.71   509.36   526.81   530.04   535.67
eigval :      540.56   563.15   578.41   581.33   582.82   585.18
eigval :      588.90   591.98   592.77   601.02   606.34   609.42
eigval :      610.68   612.23   615.54   635.84   648.63   658.07
eigval :      658.87   661.02   662.16   663.97   670.14   670.99
eigval :      673.52   675.34   682.30   684.51   705.10   708.99
eigval :      719.41   727.42   741.52   750.87   756.39   758.04
eigval :      761.75   764.14   773.92   780.82   787.23   793.79
eigval :      797.09   803.69   810.23   825.26   827.51   842.56
eigval :      854.87   867.77   872.05   874.11   876.18   877.84
eigval :      882.77   891.80   894.31   895.03   897.63   897.97
eigval :      899.89   903.22   904.05   906.26   907.43   909.63
eigval :      910.36   911.76   912.90   913.58   914.82   915.09
eigval :      919.12   923.79   925.48   926.51   927.09   929.04
eigval :      929.84   931.40   933.52   934.18   936.64   945.40
eigval :      960.89   976.03   988.50   997.64   998.35  1000.74
eigval :     1007.63  1022.98  1027.18  1062.97  1070.29  1078.93
eigval :     1079.25  1080.39  1083.16  1084.88  1097.93  1103.91
eigval :     1117.16  1120.30  1120.69  1123.17  1125.60  1133.69
eigval :     1138.84  1153.97  1156.67  1159.33  1171.18  1176.14
eigval :     1177.14  1178.07  1179.05  1180.90  1181.13  1182.79
eigval :     1185.61  1189.91  1191.61  1197.83  1200.35  1205.97
eigval :     1221.33  1226.44  1240.55  1245.35  1251.02  1253.39
eigval :     1256.35  1263.45  1267.10  1272.80  1273.81  1274.91
eigval :     1278.70  1281.63  1287.22  1288.26  1292.40  1306.36
eigval :     1311.25  1315.29  1316.25  1316.74  1317.54  1324.68
eigval :     1332.61  1334.32  1338.75  1341.59  1347.88  1357.32
eigval :     1360.73  1365.11  1389.76  1394.84  1408.66  1410.23
eigval :     1415.16  1421.46  1427.39  1429.40  1432.07  1435.12
eigval :     1437.15  1437.93  1446.55  1452.69  1457.13  1458.31
eigval :     1460.57  1467.68  1470.17  1479.47  1481.05  1488.88
eigval :     1490.65  1496.14  1515.44  1539.19  1542.06  1556.61
eigval :     1564.19  1565.15  1565.48  1568.70  1570.27  1577.46
eigval :     1577.81  1581.67  1581.95  1582.81  1585.51  1593.21
eigval :     1593.46  1596.60  1613.15  3069.07  3070.70  3071.94
eigval :     3075.53  3075.92  3076.31  3077.48  3077.57  3077.64
eigval :     3078.01  3078.18  3078.48  3079.05  3079.89  3080.43
eigval :     3082.28  3082.40  3083.42  3085.32  3085.52  3086.22
eigval :     3086.64  3087.18  3087.41  3088.65  3089.64  3090.37
eigval :     3090.61  3092.66  3093.88  3094.47  3094.66  3095.48
eigval :     3096.98  3098.22  3098.25  3098.70  3099.44  3103.28
eigval :     3105.41  3106.40  3118.16

   temp. (K)  partition function   enthalpy   heat capacity  entropy
                                   cal/mol     cal/K/mol   cal/K/mol   J/K/mol
 298.15  VIB  0.414E+25            31359.446    199.282    195.909
         ROT  0.245E+09              888.752      2.981     41.364
         INT  0.101E+34            32248.199    202.263    237.274
         TR   0.242E+29             1481.254      4.968     46.094
         TOT                       33729.4527   207.2309   283.3677  1185.6103

       T/K    H(0)-H(T)+PV         H(T)/Eh          T*S/Eh         G(T)/Eh
   ------------------------------------------------------------------------
    298.15    0.537513E-01    0.892018E+00    0.134637E+00    0.757381E+00
   ------------------------------------------------------------------------

         :::::::::::::::::::::::::::::::::::::::::::::::::::::
         ::                  THERMODYNAMIC                  ::
         :::::::::::::::::::::::::::::::::::::::::::::::::::::
         :: total free energy        -167.344518365275 Eh   ::
         ::.................................................::
         :: total energy             -168.101899273484 Eh   ::
         :: zero point energy           0.838266719153 Eh   ::
         :: G(RRHO) w/o ZPVE           -0.080885810944 Eh   ::
         :: G(RRHO) contrib.            0.757380908208 Eh   ::
         :::::::::::::::::::::::::::::::::::::::::::::::::::::

           -------------------------------------------------
          | TOTAL ENERGY             -168.101899273484 Eh   |
          | TOTAL ENTHALPY           -167.209881250071 Eh   |
          | TOTAL FREE ENERGY        -167.344518365275 Eh   |
          | GRADIENT NORM               0.000044131893 Eh/α |
          | HOMO-LUMO GAP               0.611346278723 eV   |
           -------------------------------------------------

 * finished run on 2025/08/25 at 23:34:34.407
