   * xtb version 6.7.1 (edcfbbe) compiled by 'albert@albert-system' on 2024-07-22

   ID    Z sym.   atoms
    1    6 C      1-4, 6-20, 22-35, 37-53, 55-67
    2    7 N      5, 21, 36, 54
    3    1 H      68-109

          program call               : xtb data2507/toluene/TPACzPI/TPACzPI_toluene_S0_crest.xyz --gfn 2 --gbsa toluene --ohess vtight --parallel 40 --molden --ceasefiles --namespace data2507/toluene/TPACzPI/TPACzPI_toluene_S0_finalOpt
      * Solvation model:               GBSA
        Solvent                        toluene
        Solvent mass                       9.2140E+01 g/mol
          :  Hamiltonian                  GFN2-xTB          :
 * total energy  :  -168.1826165 Eh     change       -0.2631793E-08 Eh
 * total energy  :  -168.1826937 Eh     change       -0.7727492E-04 Eh
 * total energy  :  -168.1827769 Eh     change       -0.8314672E-04 Eh
 * total energy  :  -168.1828238 Eh     change       -0.4696215E-04 Eh
 * total energy  :  -168.1828568 Eh     change       -0.3297343E-04 Eh
 * total energy  :  -168.1828997 Eh     change       -0.4284078E-04 Eh
 * total energy  :  -168.1829193 Eh     change       -0.1967439E-04 Eh
 * total energy  :  -168.1829606 Eh     change       -0.4123287E-04 Eh
 * total energy  :  -168.1829966 Eh     change       -0.3603077E-04 Eh
 * total energy  :  -168.1830259 Eh     change       -0.2929681E-04 Eh
 * total energy  :  -168.1851661 Eh     change       -0.9203995E-06 Eh
 * total energy  :  -168.1851670 Eh     change       -0.9183041E-06 Eh
 * total energy  :  -168.1851680 Eh     change       -0.9229189E-06 Eh
 * total energy  :  -168.1851689 Eh     change       -0.9147677E-06 Eh
 * total energy  :  -168.1851698 Eh     change       -0.9179491E-06 Eh
 * total energy  :  -168.1851707 Eh     change       -0.9112871E-06 Eh
 * total energy  :  -168.1851716 Eh     change       -0.9196233E-06 Eh
 * total energy  :  -168.1851725 Eh     change       -0.9153306E-06 Eh
 * total energy  :  -168.1851725 Eh     change       -0.5744226E-08 Eh
   *** GEOMETRY OPTIMIZATION CONVERGED AFTER 260 ITERATIONS ***

 final structure:
================
109
 xtb: 6.7.1 (edcfbbe)
C           -7.56831792845299       -6.46588619299254       -0.44799571091122
C           -8.13230560150735       -5.35487929143096       -1.05440626434768
C           -7.55962751243521       -4.10679211009750       -0.89990375067293
C           -6.41139471321336       -3.95210364554345       -0.12393672485942
N           -5.82807403899085       -2.68666013862310        0.04268423241760
C           -6.64394255557358       -1.56522299861146        0.23053286268086
C           -7.84334654820207       -1.67553207300353        0.93555026419639
C           -8.65652666116301       -0.57177949158531        1.10641632869500
C           -8.28613075418883        0.66029834856983        0.59172030592291
C           -7.09153498052114        0.77758710064062       -0.10029834272829
C           -6.27759138931871       -0.32272295275782       -0.28762430024729
C           -4.43700457942097       -2.56246632420477        0.01488423720618
C           -3.67346494260493       -3.36774717641386       -0.83249873217717
C           -2.30010285213202       -3.25298882240056       -0.86028418734272
C           -1.63837514640520       -2.33534837225801       -0.04490201639282
C           -0.17612673307829       -2.20865362532539       -0.07911268236342
C            0.52488382633156       -2.29760548503914       -1.28232241149611
C            1.89542013294819       -2.14363082382788       -1.31653023348581
C            2.60966798931608       -1.89099494668712       -0.14626703116791
C            4.04971824918733       -1.68698123034600       -0.22969041078444
N            4.85239231823383       -2.42646066167803       -0.95269404166498
C            6.10003437672990       -1.91396890939097       -0.76358539073943
C            7.32944383322378       -2.39545169830373       -1.29382258541568
C            7.37383243767986       -3.52705088813899       -2.11621661336873
C            8.57481536702341       -3.99985067749969       -2.58337425418030
C            9.75294938033737       -3.34593900082527       -2.22654143791850
C            9.72105396485199       -2.22822995085479       -1.42546166961661
C            8.51219353389878       -1.70576138495554       -0.93930406979781
C            8.44149783042467       -0.49887790726415       -0.13310113734417
C            9.58336299906998        0.26535427170218        0.14958703856253
C            9.51725453235859        1.44213792901325        0.85775889552558
C            8.28872233848830        1.92128031321091        1.30260706156144
C            7.14815806205622        1.19676391560088        1.05798857968329
C            7.19826237816610       -0.02344983138739        0.36806778279173
C            6.04637965516911       -0.81239638150547        0.08827106658465
N            4.72013953429001       -0.68479584704050        0.43689706161016
C            4.09400976069799        0.22365471873981        1.31516044111930
C            4.49675771857412        0.31775500530127        2.64362768821018
C            3.81664031165395        1.17051447811373        3.49555531396154
C            2.72693790047223        1.89398851072463        3.04493907925470
C            2.30370762624061        1.79086776837166        1.72085527294401
C            1.10934192937973        2.49927396612779        1.23936340023314
C            0.85933385855294        3.82382055611575        1.62457744456040
C           -0.25778029580442        4.51119435458170        1.19627074944374
C           -1.15707371333314        3.84768478378250        0.37172199566559
C           -0.91350897544597        2.51571030890092       -0.03952382629569
C            0.21833185383469        1.84565390430256        0.39627103453967
C           -1.99443535631408        2.15440127738120       -0.91314209619173
C           -2.30646768236264        0.99864300807204       -1.61682948285944
C           -3.45372599720284        0.98432900042897       -2.38474177659250
C           -4.29257265537284        2.09640880488152       -2.44182192276727
C           -4.00242310091597        3.25656783314664       -1.74928388818127
C           -2.83683720106874        3.28715982407092       -0.99633069050169
N           -2.32120046635459        4.29991907713079       -0.21122786524107
C           -2.86995711491374        5.58459957355894       -0.05841863211534
C           -3.08744571664535        6.10504306784304        1.21381003143584
C           -3.61778548806722        7.37428410377621        1.35858437369609
C           -3.94371160475485        8.12698836996459        0.24216287421192
C           -3.73237673827834        7.60767066283404       -1.02473815023241
C           -3.19290874381865        6.34358771830415       -1.17941274160376
C            3.01475878773198        0.96444400011145        0.85595555589900
C            1.91994869833163       -1.84219429385009        1.06436480786065
C            0.54901298397310       -1.99366938625852        1.09321976811769
C           -2.40569181056185       -1.53337893498038        0.80011381284805
C           -3.77949197157896       -1.64159675586049        0.83212474042801
C           -5.84926655273457       -5.07311764981163        0.48655516173444
C           -6.42448545498939       -6.31836090529988        0.32016806870848
H           -8.01708395372751       -7.43990560653435       -0.57317924997461
H           -9.02066384183149       -5.46166301327065       -1.65994598791654
H           -7.99610097025083       -3.24266753556103       -1.37959556556166
H           -8.13199390434473       -2.63109214912386        1.34880078732653
H           -9.58267886768911       -0.67407173765105        1.65342542730573
H           -8.92253175870326        1.52152045139925        0.73030181144950
H           -6.79060230290668        1.73145503061610       -0.50795146066498
H           -5.35326329915860       -0.22210954038052       -0.83675725199539
H           -4.16784244657072       -4.08446321990274       -1.47208598034601
H           -1.72962493349986       -3.89654590968459       -1.51384071844264
H           -0.01376465628434       -2.46140778136473       -2.20420211664410
H            2.43262556732228       -2.20040912641025       -2.25149772610231
H            6.44003698260764       -4.01147663345238       -2.35857501460534
H            8.61177660091944       -4.87413117536948       -3.21678713002485
H           10.70184171675085       -3.72025549262821       -2.58325305586794
H           10.65775724967101       -1.75716068406204       -1.17300277263192
H           10.54755897675618       -0.06176280012828       -0.20451125926312
H           10.41897237194783        2.00342996739047        1.05468042877392
H            8.23037689518730        2.86022062685384        1.83322405540010
H            6.19456482560952        1.57998396090676        1.38526439276735
H            5.32973277037284       -0.27264323440708        2.99631554684985
H            4.12938288216730        1.25192911697825        4.52599242488909
H            2.18174442710109        2.52471340452149        3.73064607949118
H            1.57805906637384        4.32798079274028        2.25366454342769
H           -0.41686505264719        5.53910121989643        1.48509566870551
H            0.39184216627570        0.82160543941853        0.10002331298304
H           -1.66523792224431        0.13275813100287       -1.55668690648852
H           -3.71073898000042        0.09912476345964       -2.94857488218736
H           -5.19116298388495        2.04839425217906       -3.03987331213407
H           -4.66517043634960        4.10793068884486       -1.78995570374366
H           -2.85004308657398        5.50744491254189        2.08141236904270
H           -3.78398243173705        7.77398443289962        2.34820624471448
H           -4.36078951385693        9.11600376289494        0.35875708563210
H           -3.98068396664926        8.19272384276915       -1.89806250779454
H           -3.00725677935250        5.94303320890597       -2.16509005042218
H            2.72678931224438        0.89196941631561       -0.18242297701065
H            2.45861236912157       -1.69941146940432        1.98958700066596
H            0.03264649666083       -1.96149126011640        2.04115710093954
H           -1.91969939548235       -0.80178362418447        1.42855164497424
H           -4.35448168213906       -1.01200228198709        1.49513506368423
H           -4.96170625261258       -4.95843511894061        1.09196598491740
H           -5.98066970764073       -7.17828720484072        0.80065743936258

          :  Hamiltonian                  GFN2-xTB          :
         :: gradient norm              0.000072195774 Eh/a0 ::
         :: HOMO-LUMO gap              2.312013141283 eV    ::
         :: SCC energy              -171.371683301174 Eh    ::
         :: -> dispersion             -0.166651736058 Eh    ::
         :: -> Gsolv                  -0.065670070551 Eh    ::
         :: repulsion energy           3.186510757633 Eh    ::

    * Orbital Energies and Occupations

         #    Occupation            Energy/Eh            Energy/eV
      -------------------------------------------------------------
         1        2.0000           -0.6875073             -18.7080
       ...           ...                  ...                  ...
       145        2.0000           -0.4074257             -11.0866
       146        2.0000           -0.4066821             -11.0664
       147        2.0000           -0.4039398             -10.9918
       148        2.0000           -0.4026422             -10.9565
       149        2.0000           -0.4011665             -10.9163
       150        2.0000           -0.3965005             -10.7893
       151        2.0000           -0.3923435             -10.6762
       152        2.0000           -0.3824383             -10.4067
       153        2.0000           -0.3804757             -10.3533
       154        2.0000           -0.3794181             -10.3245
       155        2.0000           -0.3649348              -9.9304
       156        2.0000           -0.3626656              -9.8686
       157        2.0000           -0.3479432              -9.4680 (HOMO)
       158                         -0.2629783              -7.1560 (LUMO)
       159                         -0.2522581              -6.8643
       160                         -0.2490885              -6.7780
       161                         -0.2476273              -6.7383
       162                         -0.2473970              -6.7320
       163                         -0.2354819              -6.4078
       164                         -0.2334133              -6.3515
       165                         -0.2317697              -6.3068
       166                         -0.2296741              -6.2498
       167                         -0.2269878              -6.1767
       168                         -0.2266329              -6.1670
       ...                                ...                  ...
       310                          0.7446932              20.2641
      -------------------------------------------------------------
                  HL-Gap            0.0849649 Eh            2.3120 eV

     #   Z          covCN         q      C6AA      α(0)
     1   6 C        2.919    -0.038    28.956     8.824
     2   6 C        2.919    -0.030    28.751     8.793
     3   6 C        2.922    -0.047    29.161     8.855
     4   6 C        2.925     0.066    26.530     8.447
     5   7 N        2.752    -0.078    22.749     7.084
     6   6 C        2.922     0.066    26.533     8.447
     7   6 C        2.922    -0.049    29.222     8.865
     8   6 C        2.919    -0.031    28.770     8.796
     9   6 C        2.918    -0.040    28.995     8.830
    10   6 C        2.919    -0.030    28.755     8.794
    11   6 C        2.922    -0.049    29.229     8.866
    12   6 C        2.923     0.066    26.529     8.446
    13   6 C        2.921    -0.049    29.212     8.863
    14   6 C        2.923    -0.034    28.852     8.809
    15   6 C        2.975     0.001    28.004     8.680
    16   6 C        2.975     0.013    27.718     8.636
    17   6 C        2.923    -0.034    28.850     8.808
    18   6 C        2.924    -0.030    28.745     8.792
    19   6 C        2.974    -0.004    28.108     8.697
    20   6 C        3.196     0.139    24.491     8.068
    21   7 N        1.892    -0.321    29.181     8.008
    22   6 C        3.208     0.060    26.065     8.313
    23   6 C        2.985    -0.003    28.102     8.696
    24   6 C        2.921    -0.034    28.837     8.806
    25   6 C        2.917    -0.032    28.798     8.800
    26   6 C        2.917    -0.035    28.861     8.810
    27   6 C        2.921    -0.037    28.911     8.818
    28   6 C        2.979    -0.005    28.147     8.703
    29   6 C        2.979    -0.002    28.073     8.691
    30   6 C        2.922    -0.035    28.879     8.813
    31   6 C        2.916    -0.034    28.857     8.809
    32   6 C        2.917    -0.033    28.814     8.802
    33   6 C        2.919    -0.041    29.018     8.834
    34   6 C        2.978    -0.005    28.147     8.703
    35   6 C        3.073     0.022    27.437     8.588
    36   7 N        2.840    -0.055    22.297     7.013
    37   6 C        2.911     0.064    26.560     8.451
    38   6 C        2.920    -0.043    29.062     8.840
    39   6 C        2.918    -0.029    28.723     8.789
    40   6 C        2.924    -0.037    28.919     8.819
    41   6 C        2.977     0.016    27.654     8.626
    42   6 C        2.977    -0.004    28.110     8.697
    43   6 C        2.927    -0.038    28.955     8.824
    44   6 C        2.908    -0.052    29.281     8.873
    45   6 C        3.076     0.047    26.859     8.497
    46   6 C        3.066    -0.018    28.384     8.736
    47   6 C        2.918    -0.037    28.925     8.819
    48   6 C        3.068    -0.018    28.382     8.736
    49   6 C        2.912    -0.033    28.825     8.804
    50   6 C        2.920    -0.041    29.009     8.832
    51   6 C        2.924    -0.033    28.823     8.804
    52   6 C        2.909    -0.051    29.263     8.870
    53   6 C        3.077     0.048    26.844     8.494
    54   7 N        2.802    -0.043    22.074     6.978
    55   6 C        2.913     0.064    26.574     8.453
    56   6 C        2.922    -0.042    29.041     8.837
    57   6 C        2.920    -0.028    28.694     8.784
    58   6 C        2.919    -0.032    28.809     8.802
    59   6 C        2.920    -0.028    28.693     8.784
    60   6 C        2.922    -0.042    29.037     8.837
    61   6 C        2.929    -0.046    29.131     8.851
    62   6 C        2.920    -0.034    28.836     8.806
    63   6 C        2.924    -0.035    28.860     8.810
    64   6 C        2.924    -0.032    28.799     8.801
    65   6 C        2.920    -0.048    29.192     8.860
    66   6 C        2.922    -0.047    29.165     8.856
    67   6 C        2.919    -0.030    28.749     8.793
    68   1 H        0.926     0.033     2.549     2.496
    69   1 H        0.926     0.034     2.529     2.487
    70   1 H        0.926     0.033     2.550     2.497
    71   1 H        0.926     0.030     2.581     2.512
    72   1 H        0.926     0.032     2.556     2.500
    73   1 H        0.926     0.031     2.578     2.511
    74   1 H        0.926     0.032     2.558     2.501
    75   1 H        0.926     0.034     2.532     2.488
    76   1 H        0.926     0.033     2.549     2.497
    77   1 H        0.926     0.036     2.499     2.472
    78   1 H        0.926     0.040     2.446     2.446
    79   1 H        0.926     0.039     2.458     2.452
    80   1 H        0.926     0.043     2.414     2.430
    81   1 H        0.926     0.032     2.555     2.500
    82   1 H        0.926     0.032     2.560     2.502
    83   1 H        0.926     0.034     2.524     2.484
    84   1 H        0.926     0.037     2.494     2.469
    85   1 H        0.926     0.032     2.552     2.498
    86   1 H        0.926     0.032     2.564     2.504
    87   1 H        0.926     0.030     2.591     2.517
    88   1 H        0.926     0.039     2.466     2.456
    89   1 H        0.926     0.044     2.393     2.419
    90   1 H        0.926     0.045     2.377     2.411
    91   1 H        0.926     0.036     2.499     2.472
    92   1 H        0.926     0.035     2.522     2.483
    93   1 H        0.926     0.030     2.588     2.516
    94   1 H        0.926     0.029     2.597     2.520
    95   1 H        0.926     0.026     2.649     2.545
    96   1 H        0.926     0.032     2.562     2.503
    97   1 H        0.926     0.031     2.571     2.507
    98   1 H        0.926     0.042     2.419     2.432
    99   1 H        0.926     0.041     2.439     2.442
   100   1 H        0.926     0.040     2.455     2.450
   101   1 H        0.926     0.040     2.444     2.445
   102   1 H        0.926     0.041     2.430     2.438
   103   1 H        0.926     0.035     2.521     2.483
   104   1 H        0.926     0.026     2.648     2.545
   105   1 H        0.926     0.038     2.471     2.458
   106   1 H        0.926     0.036     2.503     2.474
   107   1 H        0.926     0.032     2.551     2.498
   108   1 H        0.926     0.032     2.557     2.500
   109   1 H        0.926     0.034     2.530     2.488

molecular dipole:
                 x           y           z       tot (Debye)
 q only:       -1.769       1.637       0.753
   full:       -1.632       1.914       0.955       6.838

 projected vibrational frequencies (cm⁻¹)
eigval :       -0.00    -0.00    -0.00     0.00     0.00     0.00
eigval :        8.13    11.29    14.12    18.77    21.74    29.70
eigval :       32.44    37.19    40.89    48.28    50.36    53.01
eigval :       58.38    62.80    65.97    71.52    73.38    80.90
eigval :       84.47    85.61    92.42   101.95   111.17   113.65
eigval :      120.57   129.97   136.72   158.82   177.17   178.61
eigval :      198.24   201.92   215.59   218.18   224.88   234.97
eigval :      241.64   251.78   255.58   263.78   269.02   272.98
eigval :      286.32   300.38   313.71   316.77   336.02   341.01
eigval :      347.60   369.07   374.75   378.75   379.32   379.76
eigval :      383.69   388.87   394.41   397.48   401.07   414.55
eigval :      415.12   422.79   429.71   435.71   436.49   445.72
eigval :      454.02   460.71   479.25   480.91   489.74   491.94
eigval :      503.69   519.69   525.32   535.04   536.19   540.17
eigval :      545.07   565.07   581.18   584.15   585.11   586.12
eigval :      591.73   592.46   601.10   602.32   611.63   612.60
eigval :      615.03   617.52   639.66   646.24   659.48   660.48
eigval :      664.77   666.42   669.52   674.46   678.46   680.52
eigval :      684.34   685.07   689.81   706.51   708.39   712.64
eigval :      721.60   734.22   749.32   756.51   757.50   763.67
eigval :      764.33   765.87   780.69   781.04   794.10   801.76
eigval :      805.37   829.54   832.02   847.31   861.57   867.43
eigval :      872.48   873.31   873.51   876.18   877.38   880.85
eigval :      883.27   893.08   894.15   897.99   899.26   902.08
eigval :      906.66   907.66   909.16   910.86   913.51   914.43
eigval :      915.81   916.39   921.16   922.30   924.24   925.11
eigval :      926.49   926.66   926.81   929.78   929.88   930.68
eigval :      931.13   932.46   934.03   935.89   940.00   964.23
eigval :      977.85   987.64   997.46  1003.66  1008.75  1017.95
eigval :     1022.14  1033.57  1070.20  1071.31  1079.00  1080.13
eigval :     1081.27  1083.58  1084.08  1087.30  1106.21  1115.95
eigval :     1119.55  1121.37  1123.65  1125.34  1133.99  1137.52
eigval :     1147.94  1151.65  1155.48  1173.66  1176.80  1177.63
eigval :     1178.06  1179.01  1180.45  1181.94  1183.72  1185.40
eigval :     1186.66  1193.20  1195.16  1199.67  1201.98  1203.02
eigval :     1215.72  1225.81  1241.60  1247.64  1254.38  1261.14
eigval :     1266.65  1269.12  1273.54  1273.89  1277.06  1277.82
eigval :     1281.33  1285.87  1289.01  1303.34  1307.06  1313.03
eigval :     1314.79  1315.11  1315.32  1317.01  1323.75  1325.22
eigval :     1326.32  1333.22  1337.50  1346.48  1348.74  1360.68
eigval :     1364.44  1370.59  1394.93  1406.59  1410.18  1414.55
eigval :     1419.74  1425.61  1428.98  1433.01  1434.05  1434.61
eigval :     1440.47  1446.95  1458.37  1464.54  1469.41  1472.67
eigval :     1479.39  1482.10  1491.51  1496.23  1512.96  1516.23
eigval :     1544.33  1551.82  1559.30  1563.18  1564.00  1568.74
eigval :     1573.32  1575.56  1579.28  1581.58  1582.05  1586.02
eigval :     1586.37  1591.08  1593.30  1593.33  1596.67  1597.63
eigval :     1602.88  1604.07  1613.83  3068.78  3070.53  3070.81
eigval :     3071.36  3072.31  3072.64  3075.22  3075.63  3076.33
eigval :     3077.70  3077.76  3078.47  3078.88  3078.91  3079.58
eigval :     3079.76  3080.49  3081.19  3082.99  3083.13  3083.76
eigval :     3084.51  3087.01  3087.22  3088.10  3088.76  3089.02
eigval :     3089.40  3090.06  3090.56  3091.38  3091.75  3093.03
eigval :     3093.80  3095.00  3095.62  3096.93  3097.28  3097.66
eigval :     3097.77  3107.74  3109.72

   temp. (K)  partition function   enthalpy   heat capacity  entropy
                                   cal/mol     cal/K/mol   cal/K/mol   J/K/mol
 298.15  VIB  0.211E+25            31088.903    197.532    194.233
         ROT  0.244E+09              888.752      2.981     41.362
         INT  0.515E+33            31977.655    200.513    235.594
         TR   0.242E+29             1481.254      4.968     46.094
         TOT                       33458.9089   205.4812   281.6882  1178.5836

       T/K    H(0)-H(T)+PV         H(T)/Eh          T*S/Eh         G(T)/Eh
   ------------------------------------------------------------------------
    298.15    0.533202E-01    0.895283E+00    0.133839E+00    0.761444E+00
   ------------------------------------------------------------------------

         :::::::::::::::::::::::::::::::::::::::::::::::::::::
         ::                  THERMODYNAMIC                  ::
         :::::::::::::::::::::::::::::::::::::::::::::::::::::
         :: total free energy        -167.423728713332 Eh   ::
         ::.................................................::
         :: total energy             -168.185172543140 Eh   ::
         :: zero point energy           0.841962836702 Eh   ::
         :: G(RRHO) w/o ZPVE           -0.080519006895 Eh   ::
         :: G(RRHO) contrib.            0.761443829807 Eh   ::
         :::::::::::::::::::::::::::::::::::::::::::::::::::::

           -------------------------------------------------
          | TOTAL ENERGY             -168.185172543140 Eh   |
          | TOTAL ENTHALPY           -167.289889541102 Eh   |
          | TOTAL FREE ENERGY        -167.423728713332 Eh   |
          | GRADIENT NORM               0.000072196050 Eh/α |
          | HOMO-LUMO GAP               2.312013123934 eV   |
           -------------------------------------------------

 * finished run on 2025/08/25 at 23:34:13.819
