   * xtb version 6.7.1 (edcfbbe) compiled by 'albert@albert-system' on 2024-07-22

   ID    Z sym.   atoms
    1    6 C      1-4, 6-20, 22-35, 37-53, 55-67
    2    7 N      5, 21, 36, 54
    3    1 H      68-109

          program call               : xtb data2507/toluene/TPACzPI/TPACzPI_toluene_T1_crest.xyz --gfn 2 --uhf 2 --gbsa toluene --ohess vtight --parallel 40 --molden --ceasefiles --namespace data2507/toluene/TPACzPI/TPACzPI_toluene_T1_finalOpt
      * Solvation model:               GBSA
        Solvent                        toluene
        Solvent mass                       9.2140E+01 g/mol
          :  Hamiltonian                  GFN2-xTB          :
 * total energy  :  -168.1009942 Eh     change       -0.1098229E-07 Eh
 * total energy  :  -168.1010823 Eh     change       -0.8811555E-04 Eh
 * total energy  :  -168.1011450 Eh     change       -0.6269740E-04 Eh
 * total energy  :  -168.1011746 Eh     change       -0.2955135E-04 Eh
 * total energy  :  -168.1012033 Eh     change       -0.2869181E-04 Eh
 * total energy  :  -168.1012371 Eh     change       -0.3380259E-04 Eh
 * total energy  :  -168.1012544 Eh     change       -0.1734717E-04 Eh
 * total energy  :  -168.1012654 Eh     change       -0.1102426E-04 Eh
 * total energy  :  -168.1012795 Eh     change       -0.1411429E-04 Eh
 * total energy  :  -168.1012892 Eh     change       -0.9610005E-05 Eh
 * total energy  :  -168.1013945 Eh     change       -0.1384131E-05 Eh
 * total energy  :  -168.1013956 Eh     change       -0.1094513E-05 Eh
 * total energy  :  -168.1013966 Eh     change       -0.9949438E-06 Eh
 * total energy  :  -168.1013976 Eh     change       -0.1062722E-05 Eh
 * total energy  :  -168.1013988 Eh     change       -0.1193939E-05 Eh
 * total energy  :  -168.1014001 Eh     change       -0.1329424E-05 Eh
 * total energy  :  -168.1014015 Eh     change       -0.1361107E-05 Eh
 * total energy  :  -168.1014029 Eh     change       -0.1372369E-05 Eh
 * total energy  :  -168.1014029 Eh     change       -0.5140237E-08 Eh
   *** GEOMETRY OPTIMIZATION CONVERGED AFTER 44 ITERATIONS ***

 final structure:
================
109
 xtb: 6.7.1 (edcfbbe)
C           -7.66472753839532       -5.78216701856552       -0.02055756726803
C           -8.05247549545552       -4.60175342757983       -0.63634658427774
C           -7.33748220405077       -3.43816052097208       -0.43050173145279
C           -6.21790791287686       -3.44252213248059        0.40352880013783
N           -5.48868861181393       -2.26537752241277        0.61501674216590
C           -6.17137915566713       -1.05363772310418        0.76505972104312
C           -7.39430216439617       -1.00898052300209        1.43846261078980
C           -8.06216980485697        0.19140898107816        1.58274647222809
C           -7.52560146699811        1.36127884982243        1.06633960069931
C           -6.31109472725197        1.32139378175295        0.39839981947460
C           -5.63595734769881        0.12694696277006        0.24591951494536
C           -4.10451486177808       -2.30472176120689        0.67326403971496
C           -3.37023127926927       -3.24469517407826       -0.07353050731271
C           -2.00462602029237       -3.26811246663355       -0.02978360172714
C           -1.26045872843782       -2.36212405750475        0.77247585188818
C            0.16108472224819       -2.32895893167863        0.78771176990940
C            0.96678888416412       -2.96838229521946       -0.20562102733585
C            2.30378376931316       -2.74770319488575       -0.29891683370115
C            2.96791797332794       -1.83940977666590        0.57898409131132
C            4.28118843053052       -1.43203217438733        0.29502022883061
N            5.15033039301203       -2.14324920791572       -0.43470497678769
C            6.29297652079884       -1.45124717878866       -0.43575814262422
C            7.53445713612266       -1.83222683082097       -1.02467243504727
C            7.67418713749981       -3.06446796382693       -1.66940483084611
C            8.88527764767654       -3.44091285172899       -2.20221849742086
C            9.97484760931615       -2.58258577881876       -2.08553358042978
C            9.84735350036589       -1.36281240654925       -1.45759675116229
C            8.62567246472760       -0.93834311441050       -0.91352677365311
C            8.44900758754200        0.35649282288812       -0.28105435702153
C            9.48169862740446        1.29970088781293       -0.23897848724335
C            9.31649006046895        2.54758238245862        0.31954747769363
C            8.07958557888422        2.91588095603829        0.84845026618124
C            7.04131915032935        2.02203564164919        0.83514459283925
C            7.19411539005000        0.72612838268291        0.30093892438329
C            6.15540330779840       -0.22873784338823        0.26758879987036
N            4.86708992723271       -0.23165976526593        0.74495192826386
C            4.11295645934031        0.78121723139132        1.36148885761537
C            4.45206308840059        1.28842202629386        2.61405736196073
C            3.60873154252287        2.20204926681589        3.22109904942992
C            2.42157990601165        2.58194736674395        2.61844580031238
C            2.06610514254181        2.07800375643326        1.36692444450830
C            0.77902419399960        2.40475686698853        0.73601012774741
C            0.21021868574088        3.67996718713628        0.87043691912175
C           -1.00562404651114        4.00493308358794        0.30407896363711
C           -1.67419539364291        3.02514741638040       -0.41820600216690
C           -1.10610621127988        1.74110925783334       -0.58614848286486
C            0.11033392813674        1.43231272219135       -0.00027086935063
C           -2.00421469123831        1.00502142013929       -1.43116787302941
C           -1.99204344392537       -0.28688047648155       -1.93943112814323
C           -3.03952918737291       -0.68991833544100       -2.74384696772046
C           -4.09061890971157        0.17615926729974       -3.03926754161437
C           -4.12306299916143        1.46779354728451       -2.54710943380167
C           -3.06778440311061        1.88284558618739       -1.74621553271642
N           -2.86219992573590        3.09430927012568       -1.11454456942766
C           -3.73639603140321        4.19375486284386       -1.13986059114562
C           -4.15852957959541        4.77131348607668        0.05444095818141
C           -5.02245766092702        5.85108196576206        0.03148327626050
C           -5.47743343476052        6.35556012192807       -1.17601941046220
C           -5.06031898951705        5.77934523580820       -2.36496941920750
C           -4.18894174875020        4.70504446884351       -2.35239006613455
C            2.94259183594948        1.20105547128761        0.73688452950301
C            2.21280576679815       -1.38044455975387        1.69947371517148
C            0.88039164750831       -1.61634074844661        1.79348698335647
C           -2.02443399672790       -1.43547993141392        1.53275238236160
C           -3.38789009206294       -1.40318404003915        1.48182259496320
C           -5.83330685970041       -4.63241012583845        1.02456061718199
C           -6.55388768926184       -5.79081984500321        0.80935000733312
H           -8.22505033251390       -6.68983296289300       -0.18586827157909
H           -8.91373706820067       -4.58956073253962       -1.28782916895181
H           -7.63096021566652       -2.52099563033176       -0.91951295188860
H           -7.80761376045698       -1.91643689478675        1.85347286622764
H           -9.00488455533895        0.21507262456553        2.10920481229299
H           -8.05037893248035        2.29744331862253        1.18193682768399
H           -5.89049007399636        2.22557125083229       -0.01591747533813
H           -4.70013391458690        0.09131295232722       -0.28968206650180
H           -3.89954615896996       -3.94103448165735       -0.70777054026605
H           -1.48458193540730       -4.00460346933548       -0.62187694013370
H            0.49688579168908       -3.60488817250984       -0.93952638580614
H            2.89131854024807       -3.19835208976555       -1.08447619033725
H            6.80639938194156       -3.70401953825637       -1.72649332947449
H            8.99412233725127       -4.39339399394923       -2.69949928749738
H           10.93284742491973       -2.87421232700051       -2.49177162686054
H           10.72133102631991       -0.73480013607305       -1.38809733233792
H           10.44300404228443        1.05930272285531       -0.66413583271020
H           10.14005207815733        3.24607743952052        0.33368153604447
H            7.93857186205266        3.90387118954887        1.26193451103066
H            6.08045579409224        2.31897918664807        1.22312426750501
H            5.35160167285687        0.95005845088214        3.10774246054687
H            3.86694747691299        2.59593586782289        4.19329120791467
H            1.75212766738188        3.25112912862523        3.13705531543622
H            0.75317122422302        4.43970385297746        1.41282993200507
H           -1.41284596404224        4.99963823531037        0.40698624899516
H            0.51864961296361        0.43848287716583       -0.10099600971251
H           -1.18043538203762       -0.95727712305238       -1.70259588820421
H           -3.04895294377851       -1.69082284951559       -3.14894110867689
H           -4.90081378779487       -0.16993220261245       -3.66433372198568
H           -4.95000167191823        2.12375487943460       -2.77184428388580
H           -3.81480655769396        4.36222463412840        0.99315463734236
H           -5.34734954254902        6.29465655913125        0.96116933879726
H           -6.15477736944625        7.19622159723110       -1.19061187210619
H           -5.40869868078773        6.17273574103376       -3.30861087708593
H           -3.84474062870253        4.26652516577307       -3.27723108716706
H            2.71592454001062        0.82209820240931       -0.24880446499439
H            2.72223900740278       -0.88273637297122        2.51064287724628
H            0.35990135907483       -1.28132050985021        2.67766635412658
H           -1.51752557399029       -0.71144240636229        2.15008477507941
H           -3.93070862891966       -0.68662533223941        2.08093726021130
H           -4.97620368548800       -4.63391026659069        1.68185858386400
H           -6.25077856184061       -6.70472203197437        1.29851155573677

          :  Hamiltonian                  GFN2-xTB          :
         :: gradient norm              0.000057666547 Eh/a0 ::
         :: HOMO-LUMO gap              0.601540287966 eV    ::
         :: SCC energy              -171.270587247972 Eh    ::
         :: -> dispersion             -0.172910721507 Eh    ::
         :: -> Gsolv                  -0.065849017031 Eh    ::
         :: repulsion energy           3.169184368881 Eh    ::

    * Orbital Energies and Occupations

         #    Occupation            Energy/Eh            Energy/eV
      -------------------------------------------------------------
         1        2.0000           -0.6782415             -18.4559
       ...           ...                  ...                  ...
       146        2.0000           -0.4065856             -11.0638
       147        2.0000           -0.4038628             -10.9897
       148        2.0000           -0.4002688             -10.8919
       149        2.0000           -0.3962540             -10.7826
       150        2.0000           -0.3922251             -10.6730
       151        2.0000           -0.3852575             -10.4834
       152        2.0000           -0.3800789             -10.3425
       153        2.0000           -0.3792446             -10.3198
       154        2.0000           -0.3735733             -10.1654
       155        1.9998           -0.3619371              -9.8488
       156        1.9998           -0.3617211              -9.8429
       157        1.0004           -0.3461274              -9.4186
       158        1.0000           -0.2727613              -7.4222 (HOMO)
       159        0.0000           -0.2506552              -6.8207 (LUMO)
       160        0.0000           -0.2483777              -6.7587
       161        0.0000           -0.2469629              -6.7202
       162                         -0.2462053              -6.6996
       163                         -0.2387044              -6.4955
       164                         -0.2335280              -6.3546
       165                         -0.2331554              -6.3445
       166                         -0.2328865              -6.3372
       167                         -0.2322923              -6.3210
       168                         -0.2287296              -6.2240
       169                         -0.2253793              -6.1329
       ...                                ...                  ...
       310                          0.7455361              20.2871
      -------------------------------------------------------------
                  HL-Gap            0.0221061 Eh            0.6015 eV

     #   Z          covCN         q      C6AA      α(0)
     1   6 C        2.919    -0.033    28.816     8.803
     2   6 C        2.919    -0.027    28.678     8.782
     3   6 C        2.921    -0.042    29.045     8.838
     4   6 C        2.927     0.063    26.589     8.456
     5   7 N        2.752    -0.036    21.943     6.957
     6   6 C        2.926     0.063    26.591     8.457
     7   6 C        2.921    -0.043    29.078     8.843
     8   6 C        2.919    -0.028    28.691     8.784
     9   6 C        2.919    -0.033    28.826     8.804
    10   6 C        2.919    -0.026    28.659     8.779
    11   6 C        2.921    -0.043    29.056     8.840
    12   6 C        2.924     0.053    26.818     8.492
    13   6 C        2.914    -0.044    29.083     8.843
    14   6 C        2.919    -0.037    28.930     8.820
    15   6 C        2.967     0.008    27.844     8.655
    16   6 C        2.969    -0.005    28.145     8.702
    17   6 C        2.914    -0.040    28.984     8.828
    18   6 C        2.916    -0.038    28.936     8.821
    19   6 C        2.968    -0.017    28.441     8.748
    20   6 C        3.154     0.133    24.837     8.150
    21   7 N        1.879    -0.332    29.460     8.046
    22   6 C        3.182     0.077    25.868     8.302
    23   6 C        2.984    -0.008    28.210     8.712
    24   6 C        2.922    -0.031    28.774     8.797
    25   6 C        2.916    -0.034    28.854     8.808
    26   6 C        2.917    -0.032    28.804     8.801
    27   6 C        2.921    -0.037    28.932     8.821
    28   6 C        2.977    -0.004    28.121     8.699
    29   6 C        2.977    -0.006    28.173     8.707
    30   6 C        2.920    -0.035    28.873     8.812
    31   6 C        2.916    -0.037    28.926     8.819
    32   6 C        2.915    -0.034    28.858     8.809
    33   6 C        2.918    -0.041    29.027     8.835
    34   6 C        2.974    -0.013    28.342     8.733
    35   6 C        3.039     0.034    27.214     8.556
    36   7 N        2.821    -0.074    22.672     7.072
    37   6 C        2.909     0.066    26.521     8.445
    38   6 C        2.919    -0.046    29.139     8.852
    39   6 C        2.918    -0.031    28.782     8.798
    40   6 C        2.924    -0.041    29.009     8.833
    41   6 C        2.975     0.013    27.711     8.635
    42   6 C        2.976    -0.003    28.102     8.696
    43   6 C        2.927    -0.038    28.957     8.825
    44   6 C        2.908    -0.052    29.289     8.874
    45   6 C        3.076     0.047    26.861     8.497
    46   6 C        3.065    -0.018    28.390     8.737
    47   6 C        2.919    -0.036    28.907     8.817
    48   6 C        3.068    -0.018    28.394     8.737
    49   6 C        2.912    -0.033    28.818     8.803
    50   6 C        2.920    -0.042    29.033     8.836
    51   6 C        2.923    -0.034    28.852     8.809
    52   6 C        2.909    -0.051    29.267     8.871
    53   6 C        3.076     0.048    26.846     8.495
    54   7 N        2.802    -0.044    22.090     6.981
    55   6 C        2.913     0.064    26.577     8.454
    56   6 C        2.922    -0.042    29.040     8.837
    57   6 C        2.919    -0.028    28.690     8.784
    58   6 C        2.919    -0.032    28.805     8.801
    59   6 C        2.920    -0.027    28.688     8.783
    60   6 C        2.922    -0.042    29.041     8.837
    61   6 C        2.931    -0.045    29.115     8.849
    62   6 C        2.912    -0.042    29.040     8.837
    63   6 C        2.916    -0.038    28.939     8.821
    64   6 C        2.921    -0.037    28.927     8.820
    65   6 C        2.914    -0.044    29.102     8.846
    66   6 C        2.921    -0.041    29.028     8.835
    67   6 C        2.919    -0.027    28.678     8.782
    68   1 H        0.926     0.040     2.447     2.446
    69   1 H        0.926     0.042     2.426     2.435
    70   1 H        0.926     0.040     2.446     2.446
    71   1 H        0.926     0.040     2.450     2.448
    72   1 H        0.926     0.042     2.428     2.437
    73   1 H        0.926     0.040     2.451     2.448
    74   1 H        0.926     0.037     2.490     2.468
    75   1 H        0.926     0.040     2.449     2.447
    76   1 H        0.926     0.035     2.521     2.483
    77   1 H        0.926     0.035     2.513     2.479
    78   1 H        0.926     0.030     2.586     2.515
    79   1 H        0.926     0.034     2.526     2.485
    80   1 H        0.926     0.043     2.412     2.428
    81   1 H        0.926     0.033     2.549     2.496
    82   1 H        0.926     0.033     2.543     2.494
    83   1 H        0.926     0.034     2.526     2.485
    84   1 H        0.926     0.034     2.527     2.486
    85   1 H        0.926     0.030     2.590     2.516
    86   1 H        0.926     0.029     2.606     2.524
    87   1 H        0.926     0.029     2.601     2.522
    88   1 H        0.926     0.035     2.516     2.480
    89   1 H        0.926     0.040     2.455     2.450
    90   1 H        0.926     0.041     2.430     2.438
    91   1 H        0.926     0.036     2.508     2.476
    92   1 H        0.926     0.034     2.531     2.488
    93   1 H        0.926     0.030     2.588     2.516
    94   1 H        0.926     0.027     2.623     2.533
    95   1 H        0.926     0.027     2.628     2.535
    96   1 H        0.926     0.031     2.565     2.505
    97   1 H        0.926     0.033     2.540     2.492
    98   1 H        0.926     0.042     2.422     2.434
    99   1 H        0.926     0.041     2.436     2.441
   100   1 H        0.926     0.040     2.455     2.450
   101   1 H        0.926     0.040     2.445     2.445
   102   1 H        0.926     0.042     2.428     2.437
   103   1 H        0.926     0.030     2.587     2.515
   104   1 H        0.926     0.015     2.811     2.622
   105   1 H        0.926     0.027     2.632     2.537
   106   1 H        0.926     0.034     2.526     2.485
   107   1 H        0.926     0.033     2.544     2.494
   108   1 H        0.926     0.041     2.439     2.442
   109   1 H        0.926     0.041     2.432     2.439

molecular dipole:
                 x           y           z       tot (Debye)
 q only:       -4.920       0.992       0.323
   full:       -4.695       1.336       0.472      12.465

 projected vibrational frequencies (cm⁻¹)
eigval :       -0.00    -0.00    -0.00    -0.00     0.00     0.00
eigval :       -3.18     9.79    10.89    15.17    18.78    27.48
eigval :       32.52    35.77    42.98    48.97    51.56    55.58
eigval :       61.37    63.79    65.68    66.88    75.57    78.42
eigval :       84.94    87.96   101.56   108.90   109.81   114.88
eigval :      120.78   125.66   146.83   158.53   172.51   181.99
eigval :      200.83   203.58   215.39   220.51   225.88   234.47
eigval :      242.34   250.26   255.85   261.78   264.40   271.71
eigval :      284.95   292.91   305.64   317.57   325.35   335.12
eigval :      345.97   352.79   373.66   379.18   381.86   382.51
eigval :      385.32   389.26   391.64   395.13   399.74   402.26
eigval :      417.74   418.73   423.47   429.05   434.04   439.70
eigval :      445.39   454.31   458.46   478.33   478.72   483.80
eigval :      495.19   504.36   510.97   526.43   529.76   534.48
eigval :      541.00   560.65   578.32   581.37   582.84   585.24
eigval :      588.11   591.64   592.29   601.32   606.22   608.65
eigval :      610.90   613.48   616.22   635.46   646.76   657.67
eigval :      659.19   661.18   662.05   663.50   669.74   670.57
eigval :      672.87   675.16   682.83   683.60   704.85   708.64
eigval :      719.62   727.51   741.36   750.91   758.77   758.96
eigval :      761.44   762.18   774.35   775.58   787.86   792.77
eigval :      797.40   801.03   812.79   822.94   825.43   842.55
eigval :      852.72   866.90   871.66   873.37   874.76   875.98
eigval :      882.42   892.08   893.93   894.63   897.09   897.64
eigval :      899.82   901.23   902.90   905.54   905.93   908.07
eigval :      909.31   910.50   911.14   913.04   914.24   917.18
eigval :      921.86   922.84   924.12   925.44   927.24   930.14
eigval :      930.38   931.53   931.70   933.93   937.66   944.81
eigval :      960.48   976.15   988.58   997.67   998.36  1001.80
eigval :     1007.62  1023.52  1027.09  1062.97  1071.56  1078.70
eigval :     1078.98  1080.82  1082.41  1084.12  1097.74  1103.14
eigval :     1115.76  1119.93  1120.48  1122.50  1126.04  1130.76
eigval :     1139.73  1154.48  1155.28  1160.19  1170.93  1176.20
eigval :     1176.44  1178.10  1178.20  1180.45  1181.00  1183.56
eigval :     1187.01  1190.87  1192.30  1197.65  1201.16  1204.08
eigval :     1221.60  1228.43  1239.72  1245.40  1249.55  1252.83
eigval :     1256.84  1264.20  1268.19  1272.06  1273.28  1274.61
eigval :     1279.61  1280.74  1286.19  1287.92  1292.76  1305.84
eigval :     1310.24  1315.02  1316.33  1316.78  1318.04  1324.92
eigval :     1332.59  1335.52  1339.08  1341.28  1346.78  1356.23
eigval :     1360.63  1364.81  1389.98  1393.10  1407.66  1409.84
eigval :     1414.50  1421.54  1427.61  1429.85  1431.45  1435.03
eigval :     1437.44  1438.27  1445.76  1452.72  1457.48  1458.83
eigval :     1459.74  1468.64  1471.80  1479.01  1481.04  1489.24
eigval :     1491.20  1496.02  1516.75  1539.48  1542.01  1556.09
eigval :     1564.23  1565.13  1565.90  1568.80  1569.24  1577.64
eigval :     1578.83  1581.41  1582.12  1582.75  1585.86  1592.88
eigval :     1593.64  1596.74  1613.58  3070.27  3072.35  3075.02
eigval :     3075.69  3075.83  3075.89  3077.19  3077.39  3078.02
eigval :     3078.71  3078.83  3079.01  3080.14  3080.53  3080.81
eigval :     3081.94  3082.36  3083.74  3084.66  3085.74  3087.01
eigval :     3087.34  3088.14  3089.77  3090.53  3090.66  3091.51
eigval :     3093.02  3093.94  3094.67  3096.07  3096.19  3096.62
eigval :     3097.00  3097.80  3098.97  3099.40  3100.72  3105.61
eigval :     3106.17  3111.18  3116.17

   temp. (K)  partition function   enthalpy   heat capacity  entropy
                                   cal/mol     cal/K/mol   cal/K/mol   J/K/mol
 298.15  VIB  0.117E+26            31341.553    199.476    196.842
         ROT  0.209E+09              888.752      2.981     41.050
         INT  0.244E+34            32230.306    202.457    237.892
         TR   0.242E+29             1481.254      4.968     46.094
         TOT                       33711.5596   207.4252   283.9857  1188.1963

       T/K    H(0)-H(T)+PV         H(T)/Eh          T*S/Eh         G(T)/Eh
   ------------------------------------------------------------------------
    298.15    0.537228E-01    0.892032E+00    0.134931E+00    0.757101E+00
   ------------------------------------------------------------------------

         :::::::::::::::::::::::::::::::::::::::::::::::::::::
         ::                  THERMODYNAMIC                  ::
         :::::::::::::::::::::::::::::::::::::::::::::::::::::
         :: total free energy        -167.344301491787 Eh   ::
         ::.................................................::
         :: total energy             -168.101402877812 Eh   ::
         :: zero point energy           0.838309379753 Eh   ::
         :: G(RRHO) w/o ZPVE           -0.081207993728 Eh   ::
         :: G(RRHO) contrib.            0.757101386025 Eh   ::
         :::::::::::::::::::::::::::::::::::::::::::::::::::::

           -------------------------------------------------
          | TOTAL ENERGY             -168.101402877812 Eh   |
          | TOTAL ENTHALPY           -167.209370708191 Eh   |
          | TOTAL FREE ENERGY        -167.344301491787 Eh   |
          | GRADIENT NORM               0.000057431883 Eh/α |
          | HOMO-LUMO GAP               0.601537249001 eV   |
           -------------------------------------------------

 * finished run on 2025/08/25 at 23:47:06.053
