   * xtb version 6.7.1 (edcfbbe) compiled by 'albert@albert-system' on 2024-07-22

   ID    Z sym.   atoms
    1    6 C      1-8, 10-26, 28-43
    2    7 N      9, 27
    3    1 H      44-75

          program call               : xtb data2507/gas/PtB/PtB_gas_S0_crest.xyz --gfn 2 --ohess vtight --parallel 40 --molden --ceasefiles --namespace data2507/gas/PtB/PtB_gas_S0_finalOpt
          :  Hamiltonian                  GFN2-xTB          :
 * total energy  :  -110.0298893 Eh     change       -0.1431758E-08 Eh
 * total energy  :  -110.0298901 Eh     change       -0.7888461E-06 Eh
 * total energy  :  -110.0298905 Eh     change       -0.3870034E-06 Eh
 * total energy  :  -110.0298906 Eh     change       -0.1531563E-06 Eh
 * total energy  :  -110.0298908 Eh     change       -0.1716995E-06 Eh
 * total energy  :  -110.0298908 Eh     change       -0.5900972E-08 Eh
   *** GEOMETRY OPTIMIZATION CONVERGED AFTER 6 ITERATIONS ***

 final structure:
================
75
 xtb: 6.7.1 (edcfbbe)
C           -1.78080587200229        6.15247695710204        1.01483644643842
C           -2.02177748246865        5.48570814338751       -0.34692933670485
C           -1.10581661915199        6.15515007265155       -1.37488808170384
C           -3.47643232104420        5.70627692091765       -0.78565506733395
C           -1.76645591625617        3.99272586495400       -0.21860232742375
C           -0.80107715596392        3.32319928442524       -0.96166635958577
C           -0.60256986000327        1.96167707454299       -0.82459923597854
C           -1.36706880374007        1.23335011842944        0.07627192003495
N           -1.16893756346731       -0.15158324555583        0.21283069944837
C            0.01997830311991       -0.80543887293725        0.42303245233459
C            1.28323698094176       -0.12231014373114        0.65300059321006
C            1.29993058275606        1.03176017441381        1.43734609559220
C            2.46837881338150        1.72016439534125        1.67572650937105
C            3.67978464415719        1.27881975276885        1.14045561773214
C            4.90273471704367        1.97336082548732        1.36661594247598
C            6.07102964262426        1.52310774682216        0.85383920114487
C            6.12061490541305        0.33496356693703        0.06772628114910
C            7.31537372637684       -0.14872590963769       -0.46797130943884
C            7.33298899752837       -1.30508035724781       -1.22600871987367
C            6.16492257659646       -2.00389824567331       -1.46808334608103
C            4.94691639038257       -1.55668948206238       -0.95308009546628
C            3.72272062577747       -2.24770997116953       -1.18348512598031
C            2.55096587570577       -1.79930650224422       -0.67572540248141
C            2.49011499311207       -0.61681493619213        0.11820459465436
C            3.69211288489017        0.09603497327992        0.36035489108125
C            4.91744088936232       -0.37409641613804       -0.17438405842470
N           -0.16240369439812       -2.10233213290046        0.45031905251189
C           -1.49021097326698       -2.32942298719260        0.25631555251176
C           -2.00059748318586       -3.68993794497090        0.18915372674528
C           -1.28724386517450       -4.70721187162144        0.82233428154168
C           -1.73689658627748       -6.01208320491023        0.77464786910618
C           -2.90121746306229       -6.32269008082733        0.09083854764507
C           -3.60502759755498       -5.32067476501949       -0.55694863862111
C           -3.15927031895849       -4.01316586174716       -0.51446223780203
C           -2.14566750295695       -1.11714193790422        0.11212373964568
C           -3.55224059909716       -0.79868967627891       -0.09352406082184
C           -4.52114023634544       -1.37599289248275        0.72674545341681
C           -5.85675627293996       -1.07167772473990        0.54939965160835
C           -6.24454226147397       -0.18620236968610       -0.44363909049071
C           -5.28885303270253        0.38783494688959       -1.26485646757538
C           -3.95078193895682        0.08544682395932       -1.09445025194786
C           -2.33334098365937        1.88560371473865        0.83272675724051
C           -2.52479054271899        3.24324543226681        0.67841762039696
H           -2.45446957094052        5.76326661404050        1.77308810188717
H           -0.75853718627673        5.97667478083001        1.34332987148020
H           -1.93885298480558        7.22604714590344        0.93847270782608
H           -1.25760367519196        5.73629918287679       -2.36697733551123
H           -1.33189250342557        7.21840438492710       -1.42215424121668
H           -0.05992336168571        6.04702410093075       -1.09729505224264
H           -4.17645079073747        5.30451320227456       -0.05843854785015
H           -3.67568169116622        6.76971540671325       -0.89868163029285
H           -3.65905610841971        5.21749839255123       -1.74046986185062
H           -0.18633583446768        3.85307616413482       -1.67007543005526
H            0.14804832931635        1.45908192758996       -1.41708954337253
H            0.38202532118891        1.38306530513740        1.88592657192716
H            2.45359994647646        2.60895241958907        2.29030378615241
H            4.87139672319845        2.87407044352634        1.96377489825075
H            6.99488212658618        2.05571536501205        1.03112511658509
H            8.23242539812280        0.39233214807170       -0.28250655732067
H            8.26748048981152       -1.66530440463549       -1.63177473296245
H            6.18546570368307       -2.90742733256159       -2.06063096315997
H            3.75176737760199       -3.14864729036827       -1.77996452687036
H            1.63521796562836       -2.34352310322488       -0.84284595092054
H           -0.37948703463123       -4.45001092201351        1.34611055349859
H           -1.17854121443577       -6.79212248441583        1.27212927548979
H           -3.25536859706475       -7.34275774134816        0.05580835688909
H           -4.50564669466336       -5.56047020556094       -1.10406860797053
H           -3.70394765962845       -3.24223340051710       -1.03904289386670
H           -4.21437999766888       -2.06305885058133        1.50193121762304
H           -6.59889228991314       -1.52382088215545        1.19093689799230
H           -7.28899845172737        0.05293191399136       -0.57851448419105
H           -5.58646266936642        1.07351542945599       -2.04479840515258
H           -3.21150346573503        0.52616384911379       -1.74795822652470
H           -2.92807220271388        1.32785457742282        1.54098556584594
H           -3.28343334949036        3.72116589154538        1.27882692998227

          :  Hamiltonian                  GFN2-xTB          :
         :: gradient norm              0.000115333088 Eh/a0 ::
         :: HOMO-LUMO gap              2.065680950086 eV    ::
         :: SCC energy              -112.080691016033 Eh    ::
         :: -> dispersion             -0.104883498083 Eh    ::
         :: repulsion energy           2.050800217704 Eh    ::

    * Orbital Energies and Occupations

         #    Occupation            Energy/Eh            Energy/eV
      -------------------------------------------------------------
         1        2.0000           -0.6822452             -18.5648
       ...           ...                  ...                  ...
        91        2.0000           -0.4108692             -11.1803
        92        2.0000           -0.4083543             -11.1119
        93        2.0000           -0.4076197             -11.0919
        94        2.0000           -0.4057666             -11.0415
        95        2.0000           -0.4023343             -10.9481
        96        2.0000           -0.4014935             -10.9252
        97        2.0000           -0.3996685             -10.8755
        98        2.0000           -0.3929761             -10.6934
        99        2.0000           -0.3898166             -10.6074
       100        2.0000           -0.3885774             -10.5737
       101        2.0000           -0.3711233             -10.0988
       102        2.0000           -0.3675030             -10.0003
       103        2.0000           -0.3528206              -9.6007 (HOMO)
       104                         -0.2769082              -7.5351 (LUMO)
       105                         -0.2468500              -6.7171
       106                         -0.2401621              -6.5351
       107                         -0.2342254              -6.3736
       108                         -0.2331390              -6.3440
       109                         -0.2244338              -6.1072
       110                         -0.2182166              -5.9380
       111                         -0.2167205              -5.8973
       112                         -0.2102774              -5.7219
       113                         -0.2057250              -5.5981
       114                         -0.1871716              -5.0932
       ...                                ...                  ...
       204                          0.7347220              19.9928
      -------------------------------------------------------------
                  HL-Gap            0.0759124 Eh            2.0657 eV

     #   Z          covCN         q      C6AA      α(0)
     1   6 C        3.762    -0.106    22.577     6.773
     2   6 C        3.903     0.026    20.080     6.370
     3   6 C        3.761    -0.109    22.626     6.781
     4   6 C        3.762    -0.106    22.576     6.773
     5   6 C        2.973     0.010    27.800     8.649
     6   6 C        2.926    -0.037    28.928     8.820
     7   6 C        2.921    -0.041    29.030     8.836
     8   6 C        2.914     0.062    26.608     8.459
     9   7 N        2.853    -0.037    21.956     6.959
    10   6 C        3.151     0.123    25.036     8.184
    11   6 C        2.971    -0.006    28.172     8.706
    12   6 C        2.920    -0.035    28.882     8.813
    13   6 C        2.918    -0.039    28.961     8.825
    14   6 C        2.983     0.011    27.775     8.645
    15   6 C        2.913    -0.036    28.906     8.816
    16   6 C        2.914    -0.036    28.890     8.814
    17   6 C        2.982     0.011    27.754     8.642
    18   6 C        2.921    -0.037    28.931     8.821
    19   6 C        2.913    -0.030    28.758     8.794
    20   6 C        2.920    -0.037    28.911     8.817
    21   6 C        2.982     0.013    27.729     8.638
    22   6 C        2.914    -0.035    28.881     8.812
    23   6 C        2.912    -0.036    28.895     8.814
    24   6 C        2.983     0.013    27.716     8.636
    25   6 C        2.995     0.003    27.939     8.671
    26   6 C        2.997     0.003    27.940     8.671
    27   7 N        1.914    -0.292    28.422     7.904
    28   6 C        3.163     0.051    26.531     8.419
    29   6 C        2.974     0.010    27.789     8.647
    30   6 C        2.927    -0.030    28.757     8.794
    31   6 C        2.918    -0.030    28.748     8.792
    32   6 C        2.920    -0.033    28.811     8.802
    33   6 C        2.919    -0.031    28.763     8.795
    34   6 C        2.923    -0.038    28.934     8.821
    35   6 C        3.067     0.014    27.640     8.621
    36   6 C        2.972     0.009    27.802     8.649
    37   6 C        2.925    -0.032    28.806     8.802
    38   6 C        2.919    -0.028    28.712     8.787
    39   6 C        2.920    -0.031    28.780     8.797
    40   6 C        2.919    -0.029    28.734     8.790
    41   6 C        2.924    -0.033    28.830     8.805
    42   6 C        2.920    -0.041    29.018     8.834
    43   6 C        2.928    -0.033    28.834     8.806
    44   1 H        0.925     0.037     2.485     2.465
    45   1 H        0.925     0.035     2.516     2.481
    46   1 H        0.925     0.040     2.450     2.448
    47   1 H        0.925     0.037     2.492     2.469
    48   1 H        0.925     0.039     2.463     2.454
    49   1 H        0.925     0.037     2.487     2.466
    50   1 H        0.925     0.037     2.483     2.464
    51   1 H        0.925     0.040     2.450     2.448
    52   1 H        0.925     0.035     2.521     2.483
    53   1 H        0.926     0.044     2.391     2.418
    54   1 H        0.926     0.036     2.506     2.475
    55   1 H        0.926     0.025     2.655     2.548
    56   1 H        0.926     0.030     2.591     2.517
    57   1 H        0.926     0.030     2.592     2.517
    58   1 H        0.926     0.030     2.580     2.512
    59   1 H        0.926     0.030     2.592     2.517
    60   1 H        0.926     0.029     2.598     2.521
    61   1 H        0.926     0.031     2.570     2.507
    62   1 H        0.926     0.033     2.545     2.495
    63   1 H        0.926     0.058     2.226     2.333
    64   1 H        0.926     0.049     2.327     2.385
    65   1 H        0.926     0.028     2.611     2.527
    66   1 H        0.926     0.026     2.642     2.542
    67   1 H        0.926     0.025     2.654     2.548
    68   1 H        0.926     0.025     2.661     2.551
    69   1 H        0.926     0.033     2.540     2.492
    70   1 H        0.926     0.032     2.565     2.504
    71   1 H        0.926     0.030     2.586     2.515
    72   1 H        0.926     0.029     2.603     2.523
    73   1 H        0.926     0.025     2.659     2.550
    74   1 H        0.926     0.036     2.498     2.472
    75   1 H        0.926     0.037     2.487     2.466

molecular dipole:
                 x           y           z       tot (Debye)
 q only:       -0.244       1.318      -0.161
   full:       -0.537       1.628      -0.188       4.382

 projected vibrational frequencies (cm⁻¹)
eigval :       -0.00    -0.00    -0.00    -0.00    -0.00     0.00
eigval :       13.53    18.79    22.21    26.14    29.11    31.82
eigval :       33.97    53.68    66.56    68.67    81.62    94.25
eigval :      105.17   114.60   118.51   151.92   168.69   174.75
eigval :      179.25   196.50   203.25   206.14   222.37   225.34
eigval :      239.09   245.80   258.41   268.25   293.81   314.78
eigval :      316.62   337.89   345.28   358.45   371.01   372.55
eigval :      376.44   384.59   389.40   400.62   411.72   438.31
eigval :      443.79   454.58   457.75   470.61   476.52   478.52
eigval :      482.12   497.20   502.85   514.39   523.62   543.90
eigval :      570.36   576.48   587.37   588.54   607.05   609.44
eigval :      629.04   646.14   652.64   656.31   667.99   671.22
eigval :      675.48   681.15   684.56   695.87   700.08   719.15
eigval :      741.81   755.94   757.46   764.30   770.43   774.29
eigval :      802.09   817.03   819.78   835.75   837.52   850.60
eigval :      870.26   878.24   878.63   884.74   885.60   901.86
eigval :      902.16   913.22   916.73   920.07   921.82   926.35
eigval :      927.39   929.72   930.30   931.51   932.26   943.85
eigval :      960.93   962.65   963.99   967.56   978.42   996.89
eigval :     1008.07  1025.75  1035.48  1035.80  1076.27  1082.68
eigval :     1083.95  1112.57  1119.27  1121.48  1122.06  1135.18
eigval :     1142.98  1150.24  1161.61  1174.60  1181.81  1182.02
eigval :     1186.02  1196.17  1198.77  1201.76  1204.59  1215.19
eigval :     1221.06  1228.12  1228.65  1234.38  1239.70  1263.39
eigval :     1274.57  1278.32  1282.50  1285.15  1291.18  1309.30
eigval :     1315.64  1316.75  1319.33  1322.71  1332.39  1358.91
eigval :     1368.69  1388.54  1391.77  1400.68  1406.31  1406.44
eigval :     1412.21  1413.41  1417.99  1430.02  1430.96  1435.79
eigval :     1450.05  1454.69  1484.27  1488.64  1491.40  1492.21
eigval :     1493.75  1495.16  1502.93  1506.98  1514.43  1519.14
eigval :     1528.06  1546.32  1558.68  1562.70  1572.92  1578.46
eigval :     1578.74  1581.94  1597.60  1599.98  1601.71  1603.73
eigval :     1607.22  3025.06  3026.61  3028.76  3032.00  3033.64
eigval :     3037.29  3040.42  3047.73  3051.33  3063.39  3068.02
eigval :     3068.21  3071.41  3071.95  3072.28  3072.87  3075.44
eigval :     3075.59  3078.02  3082.16  3083.52  3084.06  3084.92
eigval :     3085.59  3086.94  3087.58  3091.75  3094.25  3096.78
eigval :     3102.71  3111.36  3120.17

   temp. (K)  partition function   enthalpy   heat capacity  entropy
                                   cal/mol     cal/K/mol   cal/K/mol   J/K/mol
 298.15  VIB  0.335E+16            20493.180    130.545    125.608
         ROT  0.587E+08              888.752      2.981     38.528
         INT  0.197E+24            21381.932    133.526    164.136
         TR   0.126E+29             1481.254      4.968     44.794
         TOT                       22863.1864   138.4937   208.9296   874.1616

       T/K    H(0)-H(T)+PV         H(T)/Eh          T*S/Eh         G(T)/Eh
   ------------------------------------------------------------------------
    298.15    0.364348E-01    0.632789E+00    0.992692E-01    0.533520E+00
   ------------------------------------------------------------------------

         :::::::::::::::::::::::::::::::::::::::::::::::::::::
         ::                  THERMODYNAMIC                  ::
         :::::::::::::::::::::::::::::::::::::::::::::::::::::
         :: total free energy        -109.496370520094 Eh   ::
         ::.................................................::
         :: total energy             -110.029890798329 Eh   ::
         :: zero point energy           0.596354682192 Eh   ::
         :: G(RRHO) w/o ZPVE           -0.062834403958 Eh   ::
         :: G(RRHO) contrib.            0.533520278234 Eh   ::
         :::::::::::::::::::::::::::::::::::::::::::::::::::::

           -------------------------------------------------
          | TOTAL ENERGY             -110.029890798329 Eh   |
          | TOTAL ENTHALPY           -109.397101309469 Eh   |
          | TOTAL FREE ENERGY        -109.496370520094 Eh   |
          | GRADIENT NORM               0.000115332856 Eh/α |
          | HOMO-LUMO GAP               2.065681152735 eV   |
           -------------------------------------------------

 * finished run on 2025/08/24 at 03:45:51.614
