   * xtb version 6.7.1 (edcfbbe) compiled by 'albert@albert-system' on 2024-07-22

   ID    Z sym.   atoms
    1    6 C      1-8, 10-26, 28-43
    2    7 N      9, 27
    3    1 H      44-75

          program call               : xtb data2507/gas/PtB/PtB_gas_T1_crest.xyz --gfn 2 --spinpol --tblite --uhf 2 --ohess vtight --parallel 40 --molden --ceasefiles --namespace data2507/gas/PtB/PtB_gas_T1_finalOpt
 * total energy  :  -109.9646828 Eh     change       -0.3676361E-07 Eh
 * total energy  :  -109.9647105 Eh     change       -0.2769134E-04 Eh
 * total energy  :  -109.9647262 Eh     change       -0.1568735E-04 Eh
 * total energy  :  -109.9647298 Eh     change       -0.3631997E-05 Eh
 * total energy  :  -109.9647336 Eh     change       -0.3741125E-05 Eh
 * total energy  :  -109.9647362 Eh     change       -0.2618169E-05 Eh
 * total energy  :  -109.9647395 Eh     change       -0.3335211E-05 Eh
 * total energy  :  -109.9647418 Eh     change       -0.2275671E-05 Eh
 * total energy  :  -109.9647436 Eh     change       -0.1755197E-05 Eh
 * total energy  :  -109.9647454 Eh     change       -0.1838980E-05 Eh
 * total energy  :  -109.9647520 Eh     change       -0.1431444E-05 Eh
 * total energy  :  -109.9647532 Eh     change       -0.1167126E-05 Eh
 * total energy  :  -109.9647541 Eh     change       -0.8883377E-06 Eh
 * total energy  :  -109.9647549 Eh     change       -0.7990459E-06 Eh
 * total energy  :  -109.9647556 Eh     change       -0.7490868E-06 Eh
 * total energy  :  -109.9647564 Eh     change       -0.7363962E-06 Eh
 * total energy  :  -109.9647569 Eh     change       -0.5365546E-06 Eh
 * total energy  :  -109.9647573 Eh     change       -0.3536649E-06 Eh
 * total energy  :  -109.9647573 Eh     change       -0.7056542E-08 Eh
   *** GEOMETRY OPTIMIZATION CONVERGED AFTER 22 ITERATIONS ***

 final structure:
================
75
 xtb: 6.7.1 (edcfbbe)
C            3.99520724060695        3.32959605149064        1.59945846947975
C            2.96791510089219        3.69697143813881        0.52574607251521
C            3.69073960576834        3.72538125568249       -0.82777290439304
C            2.40320161275203        5.08745388425298        0.84912105923867
C            1.82201017484999        2.70212176210738        0.44946209570319
C            0.82284782846036        2.87737508793579       -0.50587871466570
C           -0.21556454728095        1.98016278500786       -0.64395394715175
C           -0.28572963212740        0.87163389434802        0.19127275599004
N           -1.29328194135097       -0.09394839936153        0.02730129043705
C           -1.11495701897890       -1.47087404399150       -0.00368528783263
C            0.12917608661106       -2.15091256953104        0.03853135421300
C            0.17887958347729       -3.39005216869073        0.71892723961799
C            1.36278623322398       -3.92539550499343        1.11712630181096
C            2.60716842857129       -3.26421199652014        0.83473356132489
C            3.82365617559012       -3.72943956191454        1.32353414238802
C            5.01435809072772       -3.09204243403667        1.00459068471234
C            5.03327897483786       -1.99772232663384        0.13098022597699
C            6.23796793991840       -1.35200542276585       -0.24924203527063
C            6.22234185624888       -0.30138694115031       -1.14761925408657
C            5.03925759694655        0.13879241929100       -1.70380051689038
C            3.80224487202914       -0.46229369235886       -1.34512034042677
C            2.58655489790999       -0.07611080948557       -1.91571044684609
C            1.39172652967991       -0.65169463827588       -1.50692934175442
C            1.36243414125087       -1.60656915861582       -0.49466840792182
C            2.58935265152414       -2.12403056093616       -0.01108406750341
C            3.80690614589145       -1.52535016704405       -0.40524571588874
N           -2.29181429091445       -2.08387074811622       -0.02696488622641
C           -3.24270412246776       -1.13150930966718       -0.04520316564197
C           -4.65228315241235       -1.48728528558795       -0.05881703207866
C           -5.62947286995613       -0.66829130680315        0.50528030239447
C           -6.95693947749595       -1.05135234710641        0.47796797199833
C           -7.32803441706478       -2.25291905120091       -0.10350359827088
C           -6.35983663380379       -3.08173742454446       -0.64780953600663
C           -5.03158982269531       -2.70538659807476       -0.62327866216077
C           -2.64475890258039        0.13495777394617       -0.01138828069813
C           -3.23650645301921        1.46139062735721       -0.01295072747073
C           -2.83266679857307        2.43349765832656        0.90325621065393
C           -3.40631877384232        3.69029170983673        0.88301620243605
C           -4.38551660521986        3.99742005016668       -0.04748519322046
C           -4.79600914248652        3.03597013488866       -0.95780407888707
C           -4.22881649270881        1.77715022457037       -0.94329804440148
C            0.67502607367618        0.70499949074643        1.17944527978018
C            1.71662140055519        1.60556222417808        1.29619580422346
H            3.54673449102235        3.32912081641058        2.59022166238278
H            4.43091532871459        2.35260851961637        1.40195012526830
H            4.79882995772664        4.06315832338342        1.59677277697704
H            3.02646520383807        4.03658067785663       -1.62913608054788
H            4.52714181111910        4.42010026670556       -0.79020114817311
H            4.07319277701933        2.73442348186524       -1.06098736313182
H            1.70999922914342        5.42203283567629        0.08222347821931
H            1.87544912578529        5.06733099104937        1.80044671966102
H            3.21119930384385        5.81249129084702        0.91831026473925
H            0.85554007666913        3.72361089986956       -1.17483242417856
H           -0.96141196067840        2.12478860131303       -1.41171878219539
H           -0.76209712803272       -3.84648797449481        0.98632484656933
H            1.39044059888257       -4.84142771162137        1.68808677372787
H            3.83645732147868       -4.60110451220310        1.96242241991602
H            5.94629041196529       -3.45340192753058        1.41497581986118
H            7.17058356863145       -1.70394681964437        0.16610554269385
H            7.15246090750977        0.17302217024960       -1.42794045972196
H            5.03813400381775        0.93732426973679       -2.43140068084022
H            2.57825939590663        0.68879417717549       -2.67853397782262
H            0.47145158724814       -0.35454628601542       -1.98714495412087
H           -5.34754242259546        0.25934363026215        0.98061360561308
H           -7.70693614744876       -0.41017812472945        0.91834943402663
H           -8.36765689416007       -2.54547949618706       -0.12466948347466
H           -6.64420607431462       -4.02453192364098       -1.09222151034562
H           -4.26442860903917       -3.34058214517882       -1.03815366670217
H           -2.08137298940977        2.19563534630160        1.64228878695036
H           -3.08886720947455        4.43323695924198        1.59990666382558
H           -4.82980938028769        4.98143741060954       -0.06157583815935
H           -5.55978207927851        3.27035618266236       -1.68458255058324
H           -4.54324569118461        1.02757459596297       -1.65472107243990
H            0.61275578558330       -0.14024900371005        1.84909646322733
H            2.45221035548072        1.42800980399699        2.06262059547625

 projected vibrational frequencies (cm⁻¹)
eigval :       -0.00    -0.00    -0.00    -0.00     0.00     0.00
eigval :       13.35    17.82    21.46    26.08    29.93    35.31
eigval :       49.89    54.65    66.01    78.90    84.17   103.56
eigval :      104.93   111.36   130.85   145.14   163.39   176.83
eigval :      182.87   195.49   200.35   210.53   216.52   224.41
eigval :      240.29   251.43   262.02   267.40   280.33   313.66
eigval :      319.90   335.83   343.04   363.13   370.79   374.57
eigval :      376.41   382.58   386.75   391.01   400.78   426.73
eigval :      432.07   441.06   447.76   458.56   467.34   468.85
eigval :      478.85   493.12   503.87   509.88   516.75   544.25
eigval :      550.63   571.79   586.15   588.86   595.86   603.52
eigval :      618.50   634.48   643.04   652.33   660.13   665.28
eigval :      667.97   674.07   678.41   683.88   693.77   721.39
eigval :      732.66   736.23   747.00   753.70   763.61   767.36
eigval :      774.17   800.07   803.74   814.59   818.92   832.87
eigval :      835.94   869.72   876.06   877.48   880.16   884.78
eigval :      898.35   901.06   903.38   906.93   912.94   916.26
eigval :      927.08   929.34   929.95   931.03   931.59   937.49
eigval :      950.36   961.86   963.33   966.38   975.60   982.28
eigval :     1005.14  1018.70  1035.86  1036.99  1068.53  1081.40
eigval :     1083.17  1114.69  1116.49  1119.14  1121.68  1131.57
eigval :     1143.35  1143.96  1150.28  1159.17  1162.00  1181.26
eigval :     1181.49  1189.35  1191.83  1196.60  1200.93  1202.79
eigval :     1209.61  1220.57  1225.28  1229.54  1235.11  1235.65
eigval :     1268.29  1277.05  1279.24  1281.57  1283.23  1290.87
eigval :     1305.40  1311.15  1316.67  1320.97  1323.11  1331.36
eigval :     1353.31  1363.24  1368.89  1379.83  1389.00  1398.67
eigval :     1404.01  1405.10  1408.75  1412.54  1427.73  1429.14
eigval :     1433.03  1444.32  1451.28  1464.01  1485.10  1488.89
eigval :     1490.26  1492.14  1492.89  1495.97  1501.56  1505.64
eigval :     1513.88  1514.80  1517.80  1518.89  1523.49  1530.62
eigval :     1568.89  1570.86  1572.01  1578.36  1591.00  1595.68
eigval :     1602.16  3023.82  3026.33  3028.30  3032.54  3034.15
eigval :     3039.41  3041.91  3046.96  3049.67  3065.11  3068.38
eigval :     3071.25  3073.19  3075.38  3076.18  3077.57  3077.67
eigval :     3079.27  3081.64  3082.02  3084.81  3085.15  3086.62
eigval :     3086.92  3089.23  3089.72  3093.59  3095.03  3096.35
eigval :     3097.23  3104.75  3122.86

   temp. (K)  partition function   enthalpy   heat capacity  entropy
                                   cal/mol     cal/K/mol   cal/K/mol   J/K/mol
 298.15  VIB  0.213E+16            20623.988    132.449    126.130
         ROT  0.465E+08              888.752      2.981     38.064
         INT  0.990E+23            21512.741    135.430    164.194
         TR   0.126E+29             1481.254      4.968     44.794
         TOT                       22993.9947   140.3978   208.9882   874.4068

       T/K    H(0)-H(T)+PV         H(T)/Eh          T*S/Eh         G(T)/Eh
   ------------------------------------------------------------------------
    298.15    0.366433E-01    0.629707E+00    0.992971E-01    0.530410E+00
   ------------------------------------------------------------------------

         :::::::::::::::::::::::::::::::::::::::::::::::::::::
         ::                  THERMODYNAMIC                  ::
         :::::::::::::::::::::::::::::::::::::::::::::::::::::
         :: total free energy        -109.434347177469 Eh   ::
         ::.................................................::
         :: total energy             -109.964757272599 Eh   ::
         :: zero point energy           0.593063885409 Eh   ::
         :: G(RRHO) w/o ZPVE           -0.062653790279 Eh   ::
         :: G(RRHO) contrib.            0.530410095130 Eh   ::
         :::::::::::::::::::::::::::::::::::::::::::::::::::::

           -------------------------------------------------
          | TOTAL ENERGY             -109.964757272599 Eh   |
          | TOTAL ENTHALPY           -109.335050124241 Eh   |
          | TOTAL FREE ENERGY        -109.434347177469 Eh   |
          | GRADIENT NORM               0.000050760868 Eh/α |
           -------------------------------------------------

 * finished run on 2025/08/24 at 03:49:50.126
