   * xtb version 6.7.1 (edcfbbe) compiled by 'albert@albert-system' on 2024-07-22

   ID    Z sym.   atoms
    1    6 C      1-8, 10-26, 28-43
    2    7 N      9, 27
    3    1 H      44-75

          program call               : xtb data2507/gas/PtB/PtB.xyz --gfn 2 --ohess vtight --parallel 40 --molden --ceasefiles --namespace data2507/gas/PtB/PtB_gas_S0_preOpt
          :  Hamiltonian                  GFN2-xTB          :
 * total energy  :  -110.0103282 Eh     change       -0.1189562E-08 Eh
 * total energy  :  -110.0212106 Eh     change       -0.1088244E-01 Eh
 * total energy  :  -110.0241488 Eh     change       -0.2938170E-02 Eh
 * total energy  :  -110.0250569 Eh     change       -0.9081011E-03 Eh
 * total energy  :  -110.0257381 Eh     change       -0.6812570E-03 Eh
 * total energy  :  -110.0261048 Eh     change       -0.3666734E-03 Eh
 * total energy  :  -110.0264843 Eh     change       -0.3795201E-03 Eh
 * total energy  :  -110.0268736 Eh     change       -0.3893208E-03 Eh
 * total energy  :  -110.0271978 Eh     change       -0.3241384E-03 Eh
 * total energy  :  -110.0274486 Eh     change       -0.2507888E-03 Eh
 * total energy  :  -110.0298790 Eh     change       -0.7214391E-06 Eh
 * total energy  :  -110.0298796 Eh     change       -0.6763529E-06 Eh
 * total energy  :  -110.0298805 Eh     change       -0.8573139E-06 Eh
 * total energy  :  -110.0298815 Eh     change       -0.1029199E-05 Eh
 * total energy  :  -110.0298826 Eh     change       -0.1108417E-05 Eh
 * total energy  :  -110.0298836 Eh     change       -0.9570448E-06 Eh
 * total energy  :  -110.0298844 Eh     change       -0.8564210E-06 Eh
 * total energy  :  -110.0298852 Eh     change       -0.7444068E-06 Eh
 * total energy  :  -110.0298852 Eh     change       -0.8007291E-08 Eh
   *** GEOMETRY OPTIMIZATION CONVERGED AFTER 68 ITERATIONS ***

 final structure:
================
75
 xtb: 6.7.1 (edcfbbe)
C           -1.08041132555059        6.14913030523514        0.70858701187875
C           -0.15517386649953        5.29745088233256       -0.16457702560166
C            1.29357386255623        5.56568154044250        0.26728119562244
C           -0.35141481369119        5.72357713800991       -1.62630340465109
C           -0.43598465043462        3.80896521406818       -0.03822426618107
C            0.31965905289353        2.90435236739659       -0.78199869974623
C            0.10974197215765        1.54377019815356       -0.69810511572161
C           -0.86946484851261        1.04574333427092        0.15369308339212
N           -1.07443675563328       -0.34107362940454        0.25378475667815
C           -0.12006100972406       -1.30189583505258        0.47925999112459
C            1.27596002464712       -0.99262810571083        0.74844649521647
C            1.58491989032652        0.08603923329428        1.57786196447798
C            2.89016065393072        0.43386507237410        1.84525538129887
C            3.94934856588152       -0.28879175764195        1.29321697227805
C            5.30909111570574        0.05332404072260        1.54482704965320
C            6.32402863069536       -0.66663709957160        1.01363036983469
C            6.06918593561528       -1.79570122631285        0.18146720207380
C            7.10106765230908       -2.55317549251853       -0.37511059830770
C            6.82302568405185       -3.64339041108040       -1.17896364133616
C            5.51528091728918       -4.00310257109496       -1.44701763765900
C            4.45154569008343       -3.27431807775071       -0.91221315842828
C            3.09146480596374       -3.61291815708315       -1.16759798282508
C            2.07280858036294       -2.89401928998477       -0.64095469139305
C            2.31624436062096       -1.76726213510100        0.19781329363012
C            3.66018593605881       -1.40360831575809        0.46786104412736
C            4.72498049526916       -2.15646573607429       -0.08667603744487
N           -0.65422825557261       -2.49748115278629        0.47545337747164
C           -1.98730010577414       -2.34436106537296        0.24512406365291
C           -2.85346830866665       -3.50860950280133        0.14263503280137
C           -2.47273419777171       -4.68760197038226        0.78267152486390
C           -3.26681238679629       -5.81475016808407        0.70439006283480
C           -4.44916469738065       -5.78460170214739       -0.01731305520345
C           -4.82444944632918       -4.62291861606198       -0.67201220383877
C           -4.03320971385077       -3.49209161296714       -0.59892262183142
C           -2.27696211946760       -0.99609064721861        0.10929984206563
C           -3.53156098442154       -0.29615663762638       -0.13125251020640
C           -4.65305991261366       -0.59242750815228        0.64277981846150
C           -5.84394544490151        0.07399951107616        0.42897899723353
C           -5.93268367042262        1.04593854598694       -0.55489143755677
C           -4.82451271400849        1.34303296930304       -1.33011190700367
C           -3.63042889145155        0.67820013219975       -1.12292306544721
C           -1.63436606973903        1.93000126267653        0.90094783549746
C           -1.41775118906173        3.29227024869109        0.79863641202594
H           -2.12206238259999        6.00771521784332        0.42977608806765
H           -0.95638015120875        5.90923904655093        1.76202893413491
H           -0.83698775144038        7.20102606379419        0.57409506875572
H            1.44314158521451        5.24888158693774        1.29740421554659
H            2.00063388672215        5.02929871544400       -0.35931996708071
H            1.51393989435880        6.62865789578846        0.19761681516957
H           -1.36899895748556        5.50969453618458       -1.94669334404771
H           -0.17424270945428        6.79175366307433       -1.73086514509789
H            0.33206541771380        5.20008901042939       -2.28878269822163
H            1.09049574905630        3.26026712072046       -1.44797253743421
H            0.70369126911149        0.86088513070705       -1.28783299024059
H            0.78526410091776        0.64943784069088        2.03661105067239
H            3.10208928704847        1.27200552211012        2.49362078299029
H            5.50837874603004        0.90794201217728        2.17628016801661
H            7.35316893238066       -0.40066002008274        1.21040112496133
H            8.12582878458459       -2.27779826373970       -0.16985516147616
H            7.63470883126215       -4.21878227539834       -1.60055922046401
H            5.30483658515888       -4.85653534779995       -2.07570109918775
H            2.89003881934690       -4.46688184258234       -1.79884582362762
H            1.04800760901331       -3.17319908410731       -0.82743436931028
H           -1.54660073679987       -4.69649696091430        1.33648959559355
H           -2.96474620227463       -6.72186427401955        1.20799902928314
H           -5.07268305478498       -6.66491774554414       -0.07608366623333
H           -5.73825346001977       -4.59921447159841       -1.24852990529457
H           -4.32404970721044       -2.59718367178270       -1.12880306204408
H           -4.57899597983408       -1.34839974990463        1.41093347614453
H           -6.70633973227261       -0.16253566968438        1.03484506499222
H           -6.86390132676927        1.56780490641226       -0.71849428808195
H           -4.89023195069554        2.09488287831422       -2.10309682073223
H           -2.77331249376232        0.90501242149236       -1.74082777109806
H           -2.39501146746934        1.55092337404348        1.56748900690376
H           -2.03217988197467        3.94568986188713        1.39537573062637

          :  Hamiltonian                  GFN2-xTB          :
         :: gradient norm              0.000061850932 Eh/a0 ::
         :: HOMO-LUMO gap              2.070767728569 eV    ::
         :: SCC energy              -112.080878873699 Eh    ::
         :: -> dispersion             -0.104912018592 Eh    ::
         :: repulsion energy           2.050993677082 Eh    ::

    * Orbital Energies and Occupations

         #    Occupation            Energy/Eh            Energy/eV
      -------------------------------------------------------------
         1        2.0000           -0.6822703             -18.5655
       ...           ...                  ...                  ...
        91        2.0000           -0.4108407             -11.1795
        92        2.0000           -0.4085584             -11.1174
        93        2.0000           -0.4078742             -11.0988
        94        2.0000           -0.4057878             -11.0420
        95        2.0000           -0.4025383             -10.9536
        96        2.0000           -0.4016543             -10.9296
        97        2.0000           -0.3998017             -10.8792
        98        2.0000           -0.3929248             -10.6920
        99        2.0000           -0.3896954             -10.6042
       100        2.0000           -0.3887527             -10.5785
       101        2.0000           -0.3712353             -10.1018
       102        2.0000           -0.3675058             -10.0003
       103        2.0000           -0.3530877              -9.6080 (HOMO)
       104                         -0.2769884              -7.5372 (LUMO)
       105                         -0.2468382              -6.7168
       106                         -0.2404614              -6.5433
       107                         -0.2343053              -6.3758
       108                         -0.2327524              -6.3335
       109                         -0.2243959              -6.1061
       110                         -0.2181986              -5.9375
       111                         -0.2169167              -5.9026
       112                         -0.2102392              -5.7209
       113                         -0.2056429              -5.5958
       114                         -0.1873159              -5.0971
       ...                                ...                  ...
       204                          0.7344836              19.9863
      -------------------------------------------------------------
                  HL-Gap            0.0760993 Eh            2.0708 eV

     #   Z          covCN         q      C6AA      α(0)
     1   6 C        3.761    -0.109    22.625     6.781
     2   6 C        3.903     0.026    20.080     6.370
     3   6 C        3.762    -0.106    22.576     6.773
     4   6 C        3.762    -0.106    22.579     6.774
     5   6 C        2.973     0.010    27.801     8.649
     6   6 C        2.928    -0.033    28.823     8.804
     7   6 C        2.920    -0.041    29.027     8.835
     8   6 C        2.914     0.062    26.611     8.459
     9   7 N        2.853    -0.037    21.954     6.959
    10   6 C        3.153     0.123    25.025     8.181
    11   6 C        2.971    -0.006    28.169     8.706
    12   6 C        2.920    -0.035    28.874     8.812
    13   6 C        2.918    -0.039    28.958     8.824
    14   6 C        2.983     0.011    27.774     8.645
    15   6 C        2.913    -0.036    28.905     8.816
    16   6 C        2.914    -0.036    28.891     8.814
    17   6 C        2.982     0.011    27.754     8.642
    18   6 C        2.921    -0.037    28.931     8.820
    19   6 C        2.913    -0.030    28.757     8.794
    20   6 C        2.920    -0.037    28.911     8.817
    21   6 C        2.982     0.012    27.729     8.638
    22   6 C        2.914    -0.035    28.880     8.812
    23   6 C        2.912    -0.036    28.891     8.814
    24   6 C        2.983     0.013    27.719     8.636
    25   6 C        2.995     0.003    27.940     8.671
    26   6 C        2.997     0.003    27.939     8.671
    27   7 N        1.913    -0.292    28.423     7.905
    28   6 C        3.165     0.051    26.527     8.417
    29   6 C        2.974     0.010    27.788     8.647
    30   6 C        2.927    -0.030    28.756     8.794
    31   6 C        2.918    -0.030    28.748     8.792
    32   6 C        2.920    -0.033    28.811     8.802
    33   6 C        2.919    -0.031    28.763     8.795
    34   6 C        2.923    -0.038    28.933     8.821
    35   6 C        3.067     0.013    27.645     8.622
    36   6 C        2.972     0.009    27.802     8.649
    37   6 C        2.925    -0.032    28.806     8.802
    38   6 C        2.919    -0.028    28.712     8.787
    39   6 C        2.920    -0.031    28.780     8.797
    40   6 C        2.919    -0.029    28.735     8.790
    41   6 C        2.924    -0.033    28.831     8.805
    42   6 C        2.920    -0.041    29.025     8.835
    43   6 C        2.926    -0.038    28.941     8.822
    44   1 H        0.925     0.037     2.490     2.468
    45   1 H        0.925     0.037     2.492     2.468
    46   1 H        0.925     0.039     2.463     2.454
    47   1 H        0.925     0.035     2.520     2.482
    48   1 H        0.925     0.038     2.480     2.463
    49   1 H        0.925     0.040     2.449     2.447
    50   1 H        0.925     0.035     2.519     2.482
    51   1 H        0.925     0.040     2.451     2.448
    52   1 H        0.925     0.037     2.483     2.464
    53   1 H        0.926     0.038     2.481     2.463
    54   1 H        0.926     0.036     2.508     2.476
    55   1 H        0.926     0.025     2.656     2.549
    56   1 H        0.926     0.030     2.586     2.515
    57   1 H        0.926     0.030     2.588     2.516
    58   1 H        0.926     0.031     2.579     2.511
    59   1 H        0.926     0.030     2.591     2.517
    60   1 H        0.926     0.029     2.598     2.520
    61   1 H        0.926     0.031     2.569     2.507
    62   1 H        0.926     0.033     2.544     2.494
    63   1 H        0.926     0.057     2.237     2.339
    64   1 H        0.926     0.049     2.328     2.386
    65   1 H        0.926     0.028     2.611     2.527
    66   1 H        0.926     0.026     2.642     2.542
    67   1 H        0.926     0.025     2.654     2.547
    68   1 H        0.926     0.025     2.661     2.551
    69   1 H        0.926     0.033     2.540     2.492
    70   1 H        0.926     0.032     2.565     2.504
    71   1 H        0.926     0.030     2.587     2.515
    72   1 H        0.926     0.029     2.607     2.525
    73   1 H        0.926     0.025     2.658     2.550
    74   1 H        0.926     0.036     2.497     2.471
    75   1 H        0.926     0.044     2.397     2.421

molecular dipole:
                 x           y           z       tot (Debye)
 q only:        0.165       1.339      -0.128
   full:       -0.017       1.714      -0.168       4.378

 projected vibrational frequencies (cm⁻¹)
eigval :       -0.00    -0.00    -0.00     0.00     0.00     0.00
eigval :       13.23    18.63    22.61    26.05    28.71    31.76
eigval :       33.74    53.97    66.79    69.45    78.31    96.49
eigval :      106.22   114.58   117.00   152.06   171.27   173.18
eigval :      179.07   196.85   202.65   204.19   220.46   225.96
eigval :      239.31   246.13   258.72   270.97   294.98   312.44
eigval :      316.30   334.02   347.23   359.87   370.77   372.59
eigval :      376.48   384.94   389.30   400.30   411.46   438.50
eigval :      443.58   455.39   456.96   470.05   476.57   478.48
eigval :      482.64   497.24   502.74   514.05   524.10   544.07
eigval :      570.20   576.40   587.38   588.59   606.67   609.63
eigval :      629.22   646.05   652.68   656.34   667.90   671.44
eigval :      675.55   681.06   684.72   695.93   700.27   719.01
eigval :      741.88   755.99   757.47   764.28   770.39   774.32
eigval :      802.09   817.21   819.77   835.80   837.54   850.65
eigval :      870.32   878.22   878.63   884.78   885.65   901.79
eigval :      902.10   913.69   916.43   920.06   921.90   926.40
eigval :      927.68   929.66   930.28   931.49   932.28   943.89
eigval :      960.97   962.67   964.02   967.57   978.42   996.81
eigval :     1008.09  1025.94  1035.20  1035.86  1076.47  1082.63
eigval :     1083.91  1112.44  1119.17  1121.53  1121.99  1135.08
eigval :     1142.99  1150.44  1161.50  1174.44  1181.82  1182.04
eigval :     1185.92  1196.05  1198.72  1201.68  1204.38  1215.16
eigval :     1221.06  1228.16  1228.57  1234.36  1239.57  1263.29
eigval :     1274.21  1278.42  1282.61  1284.86  1290.96  1309.42
eigval :     1316.04  1316.72  1319.12  1322.67  1332.23  1359.17
eigval :     1368.68  1388.56  1391.93  1400.48  1406.53  1406.72
eigval :     1412.49  1413.29  1418.01  1430.01  1430.89  1435.77
eigval :     1449.96  1454.85  1484.51  1488.69  1491.31  1492.76
eigval :     1493.73  1495.10  1502.87  1507.01  1514.44  1519.20
eigval :     1529.72  1546.89  1559.02  1562.79  1573.13  1578.56
eigval :     1578.74  1581.97  1597.63  1600.01  1601.83  1603.94
eigval :     1607.25  3025.08  3026.71  3028.77  3031.99  3033.73
eigval :     3037.16  3040.32  3048.29  3051.98  3063.61  3067.92
eigval :     3068.38  3071.57  3071.95  3072.10  3072.78  3075.60
eigval :     3075.63  3078.17  3081.94  3082.46  3083.94  3085.31
eigval :     3086.52  3087.17  3087.62  3091.61  3094.17  3096.22
eigval :     3102.68  3110.36  3119.88

   temp. (K)  partition function   enthalpy   heat capacity  entropy
                                   cal/mol     cal/K/mol   cal/K/mol   J/K/mol
 298.15  VIB  0.348E+16            20495.461    130.539    125.648
         ROT  0.583E+08              888.752      2.981     38.515
         INT  0.203E+24            21384.213    133.520    164.163
         TR   0.126E+29             1481.254      4.968     44.794
         TOT                       22865.4672   138.4883   208.9570   874.2762

       T/K    H(0)-H(T)+PV         H(T)/Eh          T*S/Eh         G(T)/Eh
   ------------------------------------------------------------------------
    298.15    0.364384E-01    0.632797E+00    0.992822E-01    0.533515E+00
   ------------------------------------------------------------------------

         :::::::::::::::::::::::::::::::::::::::::::::::::::::
         ::                  THERMODYNAMIC                  ::
         :::::::::::::::::::::::::::::::::::::::::::::::::::::
         :: total free energy        -109.496370032463 Eh   ::
         ::.................................................::
         :: total energy             -110.029885196617 Eh   ::
         :: zero point energy           0.596358952843 Eh   ::
         :: G(RRHO) w/o ZPVE           -0.062843788689 Eh   ::
         :: G(RRHO) contrib.            0.533515164154 Eh   ::
         :::::::::::::::::::::::::::::::::::::::::::::::::::::

           -------------------------------------------------
          | TOTAL ENERGY             -110.029885196617 Eh   |
          | TOTAL ENTHALPY           -109.397087802339 Eh   |
          | TOTAL FREE ENERGY        -109.496370032463 Eh   |
          | GRADIENT NORM               0.000061848930 Eh/α |
          | HOMO-LUMO GAP               2.070768037299 eV   |
           -------------------------------------------------

 * finished run on 2025/08/24 at 03:42:27.301
