   * xtb version 6.7.1 (edcfbbe) compiled by 'albert@albert-system' on 2024-07-22

   ID    Z sym.   atoms
    1    6 C      1-8, 10-26, 28-43
    2    7 N      9, 27
    3    1 H      44-75

          program call               : xtb data2507/gas/PtB/PtB_gas_S0_finalOpt.xtbopt.xyz --gfn 2 --spinpol --tblite --uhf 2 --ohess vtight --parallel 40 --molden --ceasefiles --namespace data2507/gas/PtB/PtB_gas_T1_preOpt
 * total energy  :  -109.9545277 Eh     change        0.7601652E-07 Eh
 * total energy  :  -109.9610072 Eh     change       -0.6479467E-02 Eh
 * total energy  :  -109.9626336 Eh     change       -0.1626451E-02 Eh
 * total energy  :  -109.9627577 Eh     change       -0.1240314E-03 Eh
 * total energy  :  -109.9628823 Eh     change       -0.1246436E-03 Eh
 * total energy  :  -109.9629419 Eh     change       -0.5955776E-04 Eh
 * total energy  :  -109.9629964 Eh     change       -0.5450569E-04 Eh
 * total energy  :  -109.9630329 Eh     change       -0.3652564E-04 Eh
 * total energy  :  -109.9630660 Eh     change       -0.3308300E-04 Eh
 * total energy  :  -109.9631044 Eh     change       -0.3847366E-04 Eh
 * total energy  :  -109.9636298 Eh     change       -0.2479229E-06 Eh
 * total energy  :  -109.9636300 Eh     change       -0.1790249E-06 Eh
 * total energy  :  -109.9636301 Eh     change       -0.1477660E-06 Eh
 * total energy  :  -109.9636302 Eh     change       -0.1315655E-06 Eh
 * total energy  :  -109.9636303 Eh     change       -0.1043469E-06 Eh
 * total energy  :  -109.9636305 Eh     change       -0.1226052E-06 Eh
 * total energy  :  -109.9636306 Eh     change       -0.1049117E-06 Eh
 * total energy  :  -109.9636307 Eh     change       -0.1070518E-06 Eh
 * total energy  :  -109.9636308 Eh     change       -0.9778122E-07 Eh
   *** GEOMETRY OPTIMIZATION CONVERGED AFTER 67 ITERATIONS ***

 final structure:
================
75
 xtb: 6.7.1 (edcfbbe)
C           -1.88079364641248        6.23461266472630        0.96149149862643
C           -2.19709889151503        5.54288284168937       -0.37215677416494
C           -1.37467735367659        6.22393019952569       -1.46926220707498
C           -3.68469480830575        5.71613252279257       -0.71002254165171
C           -1.88994377591319        4.05979233885557       -0.24480473010139
C           -0.96348326348546        3.40670382291068       -1.05043001187032
C           -0.71326936947071        2.05472521392709       -0.91011930725196
C           -1.38370774700289        1.31830835126534        0.05841848698403
N           -1.14817269614174       -0.06133060040960        0.18638710379848
C            0.07466848244518       -0.71482166507684        0.29657618348825
C            1.32033200077388       -0.06845843942059        0.51430728576518
C            1.36533107890242        1.18921214190886        1.15857238477969
C            2.53221968154894        1.84794171502226        1.38261401725530
C            3.78610915077393        1.30199532522556        0.95578985311715
C            4.98328074781130        1.98244994119601        1.14880120575855
C            6.19214225382884        1.42958389098121        0.75178286237435
C            6.23492118793345        0.16914858234427        0.14645425656171
C            7.45803504417049       -0.42169217670224       -0.26681075059447
C            7.47689942325566       -1.66950407530316       -0.86177913437336
C            6.30738278928409       -2.36801978673165       -1.07093211460963
C            5.05474536662568       -1.82049354412242       -0.67529173485297
C            3.85092414249793       -2.49859175618892       -0.87078944870452
C            2.63944715793892       -1.93999298796517       -0.48395212787210
C            2.57855381602989       -0.69128356570288        0.12921776139791
C            3.78869063245402        0.02114632196567        0.34256608825548
C            5.02301533983622       -0.54222390039127       -0.06058838262850
N           -0.11613647733765       -2.02774584326178        0.24870281559008
C           -1.43761318286259       -2.24971513559299        0.12717147111154
C           -1.95449437330301       -3.60465206391416        0.02553812437827
C           -1.21847543085780       -4.64655305123567        0.59073859528539
C           -1.67200529728202       -5.94809068400769        0.50877903736357
C           -2.86168134329541       -6.23066835281762       -0.14348510899746
C           -3.58763765460619       -5.20405053578624       -0.72539991408417
C           -3.13963186095091       -3.89910202099337       -0.64704335325030
C           -2.11678274901407       -1.02815112060901        0.08707068879356
C           -3.53665399414815       -0.73789720873583       -0.01985013799320
C           -4.44020669879655       -1.39361969409600        0.81868932114677
C           -5.79173934203331       -1.12365986261147        0.73544620041124
C           -6.26368874307315       -0.19856711367278       -0.18269375562484
C           -5.37494530203907        0.45046584691148       -1.02374691723054
C           -4.02084017739643        0.18640464558691       -0.94613582795391
C           -2.31379337062533        1.95342516265544        0.87377404778512
C           -2.55659412558855        3.30243496590228        0.71626479688249
H           -2.48904230836380        5.83816639551477        1.76962013867146
H           -0.83373692904872        6.09085947806780        1.21991315293582
H           -2.07344793977519        7.30236310136592        0.88349286028887
H           -1.58335977160044        5.78863180117505       -2.44378894252872
H           -1.63359156053155        7.27984228634211       -1.51205805499271
H           -0.30935797119084        6.14810982664680       -1.26438641800066
H           -4.31996592278734        5.30277252986005        0.06836801616964
H           -3.92267510066142        6.77196230736982       -0.81908002402785
H           -3.91892957722068        5.21131847978844       -1.64502030173048
H           -0.42126891071833        3.94301999410475       -1.81119683147254
H            0.00706077943669        1.56422461460294       -1.54833334539054
H            0.44700546591137        1.61692184777002        1.53217690016379
H            2.53579777965962        2.79231241007323        1.90685849774709
H            4.96518278990595        2.95678115084513        1.61663401583954
H            7.11343813704190        1.97115192046523        0.91064816694329
H            8.37661209901001        0.12312112176815       -0.10638138426437
H            8.42031381432580       -2.09989005050900       -1.16740100474744
H            6.32178639998233       -3.34115884583611       -1.53873016344640
H            3.86364117362067       -3.47445738093705       -1.33449322722363
H            1.72505499715963       -2.48584948838422       -0.64852921239237
H           -0.29257775171977       -4.40961078043529        1.09176568655692
H           -1.09766508507558       -6.74727685627489        0.95452052686845
H           -3.21866911921345       -7.24832366818654       -0.20530939146377
H           -4.50737587300757       -5.42239559513399       -1.24882133498369
H           -3.70108863494230       -3.10870892525812       -1.12240182951330
H           -4.06893517139221       -2.11021881309060        1.53673346602273
H           -6.48085536356820       -1.63410382566382        1.39203369791579
H           -7.32082766260778        0.01253228647924       -0.24460384162073
H           -5.73835757780595        1.16539459136908       -1.74733804273767
H           -3.33633233127018        0.68338119470617       -1.61808666453733
H           -2.83677759718478        1.38946580223415        1.63201224396801
H           -3.28273914218989        3.76737165625630        1.36510434259799

 projected vibrational frequencies (cm⁻¹)
eigval :       -0.00    -0.00    -0.00     0.00     0.00     0.00
eigval :       13.46    18.27    21.79    22.95    29.32    32.49
eigval :       35.45    54.67    66.04    68.39    81.41    96.61
eigval :      111.24   116.38   121.61   146.15   165.02   174.12
eigval :      175.76   193.03   193.63   201.78   219.33   222.47
eigval :      239.51   249.08   263.09   266.84   279.90   311.77
eigval :      316.50   337.71   341.69   356.79   370.61   371.71
eigval :      376.57   381.34   385.28   400.43   402.52   416.82
eigval :      434.11   441.51   448.40   453.29   465.50   475.85
eigval :      478.37   493.63   500.69   509.41   515.18   541.64
eigval :      553.74   572.20   586.36   587.33   604.06   606.61
eigval :      617.71   626.84   647.36   649.40   658.68   667.67
eigval :      668.31   674.72   679.25   683.74   697.85   715.32
eigval :      728.70   737.86   749.74   753.74   763.82   767.32
eigval :      773.39   799.45   804.18   814.16   815.43   831.63
eigval :      833.31   869.01   876.43   877.86   878.09   883.73
eigval :      888.02   901.07   903.80   909.08   911.99   916.15
eigval :      926.84   929.31   930.37   930.85   931.71   937.67
eigval :      948.79   960.55   962.67   963.50   975.85   986.00
eigval :     1003.86  1017.85  1034.79  1035.12  1065.54  1081.64
eigval :     1083.34  1116.91  1119.45  1122.18  1123.59  1136.05
eigval :     1142.70  1144.89  1149.90  1167.14  1168.92  1181.01
eigval :     1181.46  1190.86  1194.35  1200.80  1201.31  1206.05
eigval :     1208.98  1220.47  1227.75  1229.12  1233.93  1237.97
eigval :     1261.37  1275.03  1278.00  1281.37  1282.10  1289.91
eigval :     1308.42  1312.72  1317.26  1317.54  1323.31  1331.62
eigval :     1354.63  1364.96  1372.49  1379.18  1387.61  1396.97
eigval :     1402.19  1405.00  1411.30  1414.13  1425.99  1428.34
eigval :     1431.15  1441.00  1449.43  1459.09  1484.96  1488.94
eigval :     1489.52  1490.81  1491.89  1496.43  1500.45  1504.64
eigval :     1512.34  1514.88  1517.33  1518.99  1526.76  1536.17
eigval :     1567.07  1569.41  1571.91  1578.59  1591.62  1595.84
eigval :     1599.72  3025.20  3026.76  3028.85  3032.05  3033.97
eigval :     3037.38  3040.98  3047.29  3050.88  3065.56  3066.63
eigval :     3071.15  3074.73  3074.98  3075.13  3076.00  3077.42
eigval :     3078.72  3082.12  3083.45  3084.92  3085.96  3086.73
eigval :     3088.80  3089.47  3092.90  3093.78  3096.08  3096.72
eigval :     3103.42  3117.40  3121.03

   temp. (K)  partition function   enthalpy   heat capacity  entropy
                                   cal/mol     cal/K/mol   cal/K/mol   J/K/mol
 298.15  VIB  0.451E+16            20711.337    132.072    126.850
         ROT  0.598E+08              888.752      2.981     38.565
         INT  0.270E+24            21600.090    135.053    165.416
         TR   0.126E+29             1481.254      4.968     44.794
         TOT                       23081.3435   140.0213   210.2095   879.5165

       T/K    H(0)-H(T)+PV         H(T)/Eh          T*S/Eh         G(T)/Eh
   ------------------------------------------------------------------------
    298.15    0.367825E-01    0.629701E+00    0.998773E-01    0.529824E+00
   ------------------------------------------------------------------------

         :::::::::::::::::::::::::::::::::::::::::::::::::::::
         ::                  THERMODYNAMIC                  ::
         :::::::::::::::::::::::::::::::::::::::::::::::::::::
         :: total free energy        -109.433807100919 Eh   ::
         ::.................................................::
         :: total energy             -109.963630775363 Eh   ::
         :: zero point energy           0.592918526800 Eh   ::
         :: G(RRHO) w/o ZPVE           -0.063094852356 Eh   ::
         :: G(RRHO) contrib.            0.529823674444 Eh   ::
         :::::::::::::::::::::::::::::::::::::::::::::::::::::

           -------------------------------------------------
          | TOTAL ENERGY             -109.963630775363 Eh   |
          | TOTAL ENTHALPY           -109.333929786381 Eh   |
          | TOTAL FREE ENERGY        -109.433807100919 Eh   |
          | GRADIENT NORM               0.000022120746 Eh/α |
           -------------------------------------------------

 * finished run on 2025/08/24 at 03:46:00.215
