   * xtb version 6.7.1 (edcfbbe) compiled by 'albert@albert-system' on 2024-07-22

   ID    Z sym.   atoms
    1    7 N      1, 21, 29, 35, 50
    2    6 C      2-20, 22-28, 30-34, 36-49, 51-58
    3    1 H      59-91

          program call               : xtb data2507/gas/TPM2CN/TPM2CN.xyz --gfn 2 --ohess vtight --parallel 40 --molden --ceasefiles --namespace data2507/gas/TPM2CN/TPM2CN_gas_S0_preOpt
          :  Hamiltonian                  GFN2-xTB          :
 * total energy  :  -144.8880161 Eh     change       -0.3319457E-08 Eh
 * total energy  :  -144.9035637 Eh     change       -0.1554762E-01 Eh
 * total energy  :  -144.9090455 Eh     change       -0.5481832E-02 Eh
 * total energy  :  -144.9112582 Eh     change       -0.2212629E-02 Eh
 * total energy  :  -144.9125379 Eh     change       -0.1279761E-02 Eh
 * total energy  :  -144.9126892 Eh     change       -0.1512403E-03 Eh
 * total energy  :  -144.9133299 Eh     change       -0.6407204E-03 Eh
 * total energy  :  -144.9135597 Eh     change       -0.2298355E-03 Eh
 * total energy  :  -144.9139524 Eh     change       -0.3926688E-03 Eh
 * total energy  :  -144.9143015 Eh     change       -0.3491214E-03 Eh
 * total energy  :  -144.9175380 Eh     change       -0.1317862E-05 Eh
 * total energy  :  -144.9175395 Eh     change       -0.1504681E-05 Eh
 * total energy  :  -144.9175412 Eh     change       -0.1696381E-05 Eh
 * total energy  :  -144.9175431 Eh     change       -0.1910640E-05 Eh
 * total energy  :  -144.9175452 Eh     change       -0.2121123E-05 Eh
 * total energy  :  -144.9175475 Eh     change       -0.2249306E-05 Eh
 * total energy  :  -144.9175499 Eh     change       -0.2484901E-05 Eh
 * total energy  :  -144.9175525 Eh     change       -0.2548324E-05 Eh
 * total energy  :  -144.9175525 Eh     change       -0.6264145E-08 Eh
   *** GEOMETRY OPTIMIZATION CONVERGED AFTER 152 ITERATIONS ***

 final structure:
================
91
 xtb: 6.7.1 (edcfbbe)
N          -10.10430105417620       -7.02841418500212       -0.67860271998587
C           -9.15374020548948       -6.38725883438588       -0.65479738247679
C           -7.98277623031022       -5.59804532034454       -0.62363829212627
C           -7.84471474640345       -4.58951137161016        0.33130132851069
C           -6.69848588061984       -3.82395061844043        0.35818672556059
C           -5.66696568273236       -4.04448677975248       -0.55574451908136
C           -4.44329709798058       -3.23342132370288       -0.51321555470167
C           -3.19033742714034       -3.83755922769028       -0.69260561200830
C           -2.05052379205640       -3.08164937346180       -0.61959557616540
C           -2.12433975507844       -1.70485342011248       -0.38033354312506
C           -3.37421771559552       -1.06229251165236       -0.22640138157668
C           -4.51630763252248       -1.86974047531179       -0.28813560790596
C           -3.43542624293462        0.37571865055323       -0.02307908097850
C           -4.65698089767561        1.05451391075671        0.03202179786254
C           -4.74307168045390        2.42739723261510        0.18119854715652
C           -6.05013649505687        3.09317063959931        0.23181575219311
C           -6.25627363720714        4.30476081564424       -0.42945682455505
C           -7.48112546269618        4.93591629309266       -0.38495647899200
C           -8.53142625500797        4.36298052517370        0.33394451515198
C           -9.78660822340213        5.00866830466045        0.38808703799762
N          -10.80460888650010        5.53470844534482        0.43277158625503
C           -8.33727097753396        3.15225959332905        1.00068127639807
C           -7.10903279135938        2.52856048898117        0.94449937206298
C           -3.56079670248753        3.17231334004143        0.26741660254095
C           -2.34443596956686        2.54260916260956        0.23072830223406
C           -2.24736853891541        1.14875712908750        0.10293554222916
C           -1.01228855144857        0.44784641424097        0.04822884330283
C           -0.95130695998858       -0.91437642160710       -0.24801405683887
N            0.34126279241917       -1.32035371751347       -0.33444964211602
C            1.07094534740902       -0.26197072416838       -0.08291708571706
C            2.52261446936701       -0.28755454449834       -0.05511924012152
C            3.18645560263055       -1.11890814339648       -0.95963653445234
C            4.56036908422232       -1.19743372892626       -0.96952310059297
C            5.31825130145938       -0.45293404474325       -0.06196509251999
N            6.71027142551447       -0.53031842392341       -0.06545826523012
C            7.40361009743235       -0.66137638788616       -1.27546298373874
C            8.54141821418006       -1.46304306706367       -1.35694452192641
C            9.22672728512774       -1.57803223597753       -2.55080540516143
C            8.78770590357145       -0.90660968931955       -3.68014281612493
C            7.65493051967400       -0.11286811707262       -3.60546494196516
C            6.96767880226515        0.01533733213308       -2.41420895532743
C            7.41805230617183       -0.49388857305021        1.14336854783320
C            8.64001968484761        0.17207411735093        1.22734420318179
C            9.33879518676633        0.19466064977089        2.41884287359542
C            8.83027509653106       -0.43515125440815        3.54296334373724
C            7.61419949794339       -1.09409541775706        3.46548035168379
C            6.91195104726885       -1.12970748114498        2.27657724858033
C            4.65437296398796        0.36139494609736        0.85762940231273
C            3.27850155521289        0.44145823213778        0.86231545532695
N            0.29824190373009        0.85330806607270        0.16208080697196
C            0.80136356331772        2.13248678272415        0.47009344173419
C            0.53433929478774        2.70736513347717        1.70919022970460
C            1.05910704347974        3.94957290689067        2.01408925259734
C            1.85324318278069        4.61549146181229        1.09418965668188
C            2.12144790396922        4.03910253805239       -0.13618416663423
C            1.59773615264106        2.79882387903141       -0.45344984103346
C           -5.81629372498943       -5.05662673379325       -1.50485226935337
C           -6.95957461902105       -5.82615274169564       -1.54522560574023
H           -8.63694383329053       -4.41998021127855        1.04593316778310
H           -6.58639060357228       -3.05858899887535        1.11208222359303
H           -3.12972550744283       -4.90365302373161       -0.85340593001159
H           -1.07171030968480       -3.52155424263377       -0.72954675076012
H           -5.49640985683396       -1.43343593615075       -0.17662281279972
H           -5.57802224059422        0.50595406686548       -0.08344227591722
H           -5.45137042038545        4.74277709808651       -1.00090982464734
H           -7.63752762985014        5.87046445944145       -0.90364365701459
H           -9.15172790321271        2.71479987971475        1.55940590680857
H           -6.95691608960772        1.60170333833220        1.47776585179949
H           -3.60801159306032        4.24491499060043        0.38297750421375
H           -1.44462027897567        3.13421329189300        0.28628059092424
H            2.59893918840035       -1.70581956203215       -1.64799175665797
H            5.06218546994357       -1.84431717918973       -1.67376998453969
H            8.88041809195969       -1.99496578090385       -0.48011637895506
H           10.10573665645778       -2.20349925674305       -2.60114479967135
H            9.32456096451246       -1.00105842559907       -4.61167765892971
H            7.30833102205498        0.41857904600917       -4.47958828308144
H            6.09078270735673        0.64354119108917       -2.35497261049972
H            9.03462154493334        0.67035156896236        0.35390906997018
H           10.28406255787807        0.71449047016345        2.47130315816615
H            9.37833258337806       -0.41368735324003        4.47255654987596
H            7.21307427416762       -1.59357468696947        4.33505961867152
H            5.96969589772943       -1.65432872656471        2.21491680958789
H            5.22836359402709        0.93258142427865        1.57228322831050
H            2.79374196102977        1.06364398643918        1.59917060085412
H           -0.08298513671839        2.17692781711515        2.41975771041031
H            0.85092772713793        4.39597736623043        2.97477555822109
H            2.26356998598346        5.58356275445476        1.33792542201988
H            2.73946774293313        4.55717342616652       -0.85368869862780
H            1.80174491042219        2.33902173142416       -1.40893548570368
H           -5.03337819536192       -5.22582572713431       -2.22915095230630
H           -7.07266567404258       -6.60506489810544       -2.28508805616146

          :  Hamiltonian                  GFN2-xTB          :
         :: gradient norm              0.000092789984 Eh/a0 ::
         :: HOMO-LUMO gap              1.941821084795 eV    ::
         :: SCC energy              -147.721711319921 Eh    ::
         :: -> dispersion             -0.129894739338 Eh    ::
         :: repulsion energy           2.804158827644 Eh    ::

    * Orbital Energies and Occupations

         #    Occupation            Energy/Eh            Energy/eV
      -------------------------------------------------------------
         1        2.0000           -0.6951044             -18.9148
       ...           ...                  ...                  ...
       123        2.0000           -0.4180823             -11.3766
       124        2.0000           -0.4172699             -11.3545
       125        2.0000           -0.4167852             -11.3413
       126        2.0000           -0.4140561             -11.2670
       127        2.0000           -0.4139127             -11.2631
       128        2.0000           -0.4114343             -11.1957
       129        2.0000           -0.4108461             -11.1797
       130        2.0000           -0.4085682             -11.1177
       131        2.0000           -0.4027650             -10.9598
       132        2.0000           -0.3911445             -10.6436
       133        2.0000           -0.3839869             -10.4488
       134        2.0000           -0.3737637             -10.1706
       135        2.0000           -0.3556908              -9.6788 (HOMO)
       136                         -0.2843302              -7.7370 (LUMO)
       137                         -0.2764119              -7.5215
       138                         -0.2643236              -7.1926
       139                         -0.2582887              -7.0284
       140                         -0.2498987              -6.8001
       141                         -0.2480479              -6.7497
       142                         -0.2455073              -6.6806
       143                         -0.2442436              -6.6462
       144                         -0.2411714              -6.5626
       145                         -0.2366561              -6.4397
       146                         -0.2349334              -6.3929
       ...                                ...                  ...
       265                          1.1744473              31.9583
      -------------------------------------------------------------
                  HL-Gap            0.0713606 Eh            1.9418 eV

     #   Z          covCN         q      C6AA      α(0)
     1   7 N        0.911    -0.237    26.205     7.404
     2   6 C        1.912     0.111    28.356     8.600
     3   6 C        2.974     0.016    27.641     8.624
     4   6 C        2.924    -0.021    28.529     8.759
     5   6 C        2.924    -0.032    28.790     8.799
     6   6 C        2.977     0.019    27.586     8.615
     7   6 C        2.975     0.005    27.907     8.665
     8   6 C        2.922    -0.034    28.839     8.806
     9   6 C        2.919    -0.031    28.764     8.795
    10   6 C        2.986     0.003    27.939     8.671
    11   6 C        2.978    -0.001    28.052     8.688
    12   6 C        2.927    -0.039    28.966     8.826
    13   6 C        2.978     0.002    27.983     8.677
    14   6 C        2.928    -0.038    28.947     8.823
    15   6 C        2.974     0.004    27.924     8.668
    16   6 C        2.977     0.018    27.599     8.617
    17   6 C        2.924    -0.031    28.774     8.797
    18   6 C        2.924    -0.021    28.522     8.758
    19   6 C        2.974     0.017    27.630     8.622
    20   6 C        1.912     0.111    28.356     8.600
    21   7 N        0.911    -0.236    26.171     7.399
    22   6 C        2.924    -0.021    28.522     8.758
    23   6 C        2.924    -0.031    28.784     8.798
    24   6 C        2.921    -0.035    28.879     8.813
    25   6 C        2.917    -0.040    28.995     8.830
    26   6 C        2.978    -0.001    28.055     8.688
    27   6 C        3.073     0.020    27.479     8.595
    28   6 C        3.208     0.058    26.098     8.318
    29   7 N        1.895    -0.291    28.387     7.899
    30   6 C        3.192     0.130    24.693     8.104
    31   6 C        2.973    -0.008    28.207     8.712
    32   6 C        2.927    -0.028    28.691     8.784
    33   6 C        2.920    -0.047    29.155     8.855
    34   6 C        2.924     0.067    26.492     8.441
    35   7 N        2.752    -0.073    22.655     7.069
    36   6 C        2.924     0.065    26.554     8.451
    37   6 C        2.922    -0.047    29.161     8.856
    38   6 C        2.920    -0.029    28.714     8.787
    39   6 C        2.919    -0.037    28.931     8.820
    40   6 C        2.920    -0.029    28.722     8.788
    41   6 C        2.922    -0.047    29.177     8.858
    42   6 C        2.925     0.064    26.558     8.451
    43   6 C        2.922    -0.047    29.168     8.857
    44   6 C        2.920    -0.029    28.724     8.789
    45   6 C        2.919    -0.037    28.932     8.821
    46   6 C        2.920    -0.029    28.721     8.788
    47   6 C        2.922    -0.047    29.172     8.857
    48   6 C        2.921    -0.049    29.210     8.863
    49   6 C        2.921    -0.034    28.844     8.807
    50   7 N        2.841    -0.045    22.107     6.983
    51   6 C        2.913     0.068    26.473     8.437
    52   6 C        2.921    -0.037    28.921     8.819
    53   6 C        2.920    -0.027    28.673     8.781
    54   6 C        2.920    -0.029    28.735     8.791
    55   6 C        2.920    -0.025    28.637     8.775
    56   6 C        2.922    -0.038    28.935     8.821
    57   6 C        2.924    -0.031    28.773     8.797
    58   6 C        2.924    -0.021    28.521     8.758
    59   1 H        0.926     0.040     2.443     2.444
    60   1 H        0.926     0.038     2.478     2.462
    61   1 H        0.926     0.035     2.521     2.483
    62   1 H        0.926     0.055     2.256     2.349
    63   1 H        0.926     0.033     2.541     2.493
    64   1 H        0.926     0.037     2.492     2.469
    65   1 H        0.926     0.039     2.459     2.452
    66   1 H        0.926     0.041     2.434     2.440
    67   1 H        0.926     0.041     2.429     2.437
    68   1 H        0.926     0.039     2.468     2.457
    69   1 H        0.926     0.031     2.571     2.508
    70   1 H        0.926     0.030     2.590     2.517
    71   1 H        0.926     0.053     2.279     2.361
    72   1 H        0.926     0.039     2.459     2.452
    73   1 H        0.926     0.033     2.543     2.494
    74   1 H        0.926     0.033     2.538     2.491
    75   1 H        0.926     0.032     2.556     2.500
    76   1 H        0.926     0.033     2.550     2.497
    77   1 H        0.926     0.030     2.585     2.514
    78   1 H        0.926     0.032     2.552     2.498
    79   1 H        0.926     0.033     2.544     2.494
    80   1 H        0.926     0.032     2.558     2.501
    81   1 H        0.926     0.033     2.541     2.493
    82   1 H        0.926     0.033     2.547     2.496
    83   1 H        0.926     0.034     2.523     2.484
    84   1 H        0.926     0.029     2.606     2.524
    85   1 H        0.926     0.042     2.416     2.431
    86   1 H        0.926     0.041     2.430     2.438
    87   1 H        0.926     0.041     2.436     2.441
    88   1 H        0.926     0.041     2.430     2.437
    89   1 H        0.926     0.040     2.445     2.445
    90   1 H        0.926     0.041     2.439     2.442
    91   1 H        0.926     0.041     2.435     2.440

molecular dipole:
                 x           y           z       tot (Debye)
 q only:        3.772       1.007       0.138
   full:        4.431       1.475       0.243      11.887

 projected vibrational frequencies (cm⁻¹)
eigval :       -0.00    -0.00    -0.00     0.00     0.00     0.00
eigval :        7.11     9.41    13.00    17.51    23.52    27.95
eigval :       30.42    36.81    38.81    42.83    47.41    52.66
eigval :       55.14    59.34    63.05    65.42    73.62    88.86
eigval :       90.66   105.33   109.85   119.38   127.94   131.84
eigval :      139.84   147.23   152.77   171.28   182.13   198.41
eigval :      204.71   209.09   234.21   239.44   242.52   253.95
eigval :      274.69   284.66   303.85   309.70   310.85   334.94
eigval :      351.52   365.19   366.25   366.91   373.82   375.88
eigval :      378.08   381.88   387.63   395.21   398.98   411.19
eigval :      419.42   429.25   449.14   450.80   464.19   470.00
eigval :      480.98   486.00   490.59   498.68   510.99   526.20
eigval :      533.70   534.48   543.64   547.82   567.38   569.37
eigval :      582.91   582.93   588.08   590.14   593.78   597.90
eigval :      605.62   610.75   616.88   630.99   638.87   644.11
eigval :      653.30   659.84   666.84   668.44   678.54   682.71
eigval :      687.06   695.47   697.03   699.38   705.57   722.66
eigval :      735.70   751.64   757.33   761.93   768.48   784.19
eigval :      807.42   809.91   815.65   818.67   833.86   838.96
eigval :      859.91   867.09   869.84   870.07   874.63   875.66
eigval :      876.37   877.46   885.33   892.81   893.84   901.61
eigval :      910.09   913.57   915.01   916.99   917.96   919.30
eigval :      923.66   926.04   927.76   927.79   928.78   929.02
eigval :      929.10   929.86   929.95   932.88   947.87   956.18
eigval :      982.87   997.22  1004.35  1005.31  1010.72  1028.13
eigval :     1040.57  1071.59  1079.49  1082.57  1083.05  1084.12
eigval :     1102.25  1115.32  1121.77  1123.91  1134.82  1136.48
eigval :     1139.89  1141.15  1159.48  1179.43  1180.61  1180.66
eigval :     1180.77  1186.44  1187.60  1189.26  1190.38  1195.37
eigval :     1195.97  1203.59  1216.79  1223.92  1233.67  1240.04
eigval :     1247.08  1265.96  1267.70  1268.68  1275.04  1278.33
eigval :     1280.30  1281.60  1292.51  1300.71  1304.21  1313.49
eigval :     1313.80  1314.53  1314.65  1319.52  1325.26  1326.87
eigval :     1329.87  1334.93  1336.59  1351.75  1377.97  1391.71
eigval :     1392.41  1408.33  1413.69  1414.82  1428.35  1434.12
eigval :     1436.23  1439.31  1442.78  1465.36  1472.37  1476.02
eigval :     1480.12  1486.11  1487.18  1494.64  1519.74  1537.11
eigval :     1545.86  1550.10  1552.36  1560.22  1569.62  1577.92
eigval :     1581.09  1581.83  1583.10  1585.35  1593.08  1594.52
eigval :     1594.90  1595.43  1600.78  1601.58  2372.64  2373.40
eigval :     3076.30  3077.16  3077.94  3078.67  3079.95  3080.81
eigval :     3082.20  3082.36  3082.56  3084.30  3085.12  3085.19
eigval :     3085.41  3086.19  3087.07  3088.30  3089.75  3090.63
eigval :     3091.03  3091.28  3092.65  3093.97  3094.19  3094.36
eigval :     3096.19  3098.33  3098.48  3098.97  3103.20  3107.55
eigval :     3107.76  3107.81  3115.03

   temp. (K)  partition function   enthalpy   heat capacity  entropy
                                   cal/mol     cal/K/mol   cal/K/mol   J/K/mol
 298.15  VIB  0.933E+23            27667.978    169.110    175.436
         ROT  0.216E+09              888.752      2.981     41.121
         INT  0.202E+32            28556.730    172.091    216.557
         TR   0.195E+29             1481.254      4.968     45.663
         TOT                       30037.9841   177.0592   262.2193  1097.1254

       T/K    H(0)-H(T)+PV         H(T)/Eh          T*S/Eh         G(T)/Eh
   ------------------------------------------------------------------------
    298.15    0.478686E-01    0.735062E+00    0.124589E+00    0.610473E+00
   ------------------------------------------------------------------------

         :::::::::::::::::::::::::::::::::::::::::::::::::::::
         ::                  THERMODYNAMIC                  ::
         :::::::::::::::::::::::::::::::::::::::::::::::::::::
         :: total free energy        -144.307079241473 Eh   ::
         ::.................................................::
         :: total energy             -144.917552492273 Eh   ::
         :: zero point energy           0.687193505325 Eh   ::
         :: G(RRHO) w/o ZPVE           -0.076720254525 Eh   ::
         :: G(RRHO) contrib.            0.610473250800 Eh   ::
         :::::::::::::::::::::::::::::::::::::::::::::::::::::

           -------------------------------------------------
          | TOTAL ENERGY             -144.917552492273 Eh   |
          | TOTAL ENTHALPY           -144.182490412323 Eh   |
          | TOTAL FREE ENERGY        -144.307079241473 Eh   |
          | GRADIENT NORM               0.000092732203 Eh/α |
          | HOMO-LUMO GAP               1.941820932657 eV   |
           -------------------------------------------------

 * finished run on 2025/07/20 at 03:30:58.933
