   * xtb version 6.7.1 (edcfbbe) compiled by 'albert@albert-system' on 2024-07-22

   ID    Z sym.   atoms
    1    7 N      1, 21, 29, 35, 50
    2    6 C      2-20, 22-28, 30-34, 36-49, 51-58
    3    1 H      59-91

          program call               : xtb data2507/gas/TPM2CN/TPM2CN_gas_T1_crest.xyz --gfn 2 --spinpol --tblite --uhf 2 --ohess vtight --parallel 40 --molden --ceasefiles --namespace data2507/gas/TPM2CN/TPM2CN_gas_T1_finalOpt
 * total energy  :  -144.8408032 Eh     change       -0.9796878E-08 Eh
 * total energy  :  -144.8408072 Eh     change       -0.4012762E-05 Eh
 * total energy  :  -144.8407989 Eh     change        0.8321467E-05 Eh
 * total energy  :  -144.8408101 Eh     change       -0.1121727E-04 Eh
 * total energy  :  -144.8408115 Eh     change       -0.1398128E-05 Eh
 * total energy  :  -144.8408125 Eh     change       -0.9647148E-06 Eh
 * total energy  :  -144.8408134 Eh     change       -0.9164387E-06 Eh
 * total energy  :  -144.8408145 Eh     change       -0.1057836E-05 Eh
 * total energy  :  -144.8408169 Eh     change       -0.2424945E-05 Eh
 * total energy  :  -144.8408175 Eh     change       -0.5972527E-06 Eh
 * total energy  :  -144.8408214 Eh     change       -0.7216030E-06 Eh
 * total energy  :  -144.8408219 Eh     change       -0.4648412E-06 Eh
 * total energy  :  -144.8408225 Eh     change       -0.5789889E-06 Eh
 * total energy  :  -144.8408232 Eh     change       -0.7649014E-06 Eh
 * total energy  :  -144.8408236 Eh     change       -0.3985693E-06 Eh
 * total energy  :  -144.8408239 Eh     change       -0.2545077E-06 Eh
 * total energy  :  -144.8408241 Eh     change       -0.2646279E-06 Eh
 * total energy  :  -144.8408244 Eh     change       -0.2308504E-06 Eh
 * total energy  :  -144.8408244 Eh     change       -0.1536051E-08 Eh
   *** GEOMETRY OPTIMIZATION CONVERGED AFTER 22 ITERATIONS ***

 final structure:
================
91
 xtb: 6.7.1 (edcfbbe)
N           -9.51000509694632       -6.99761823321183        0.09729195638710
C           -8.56599248883322       -6.34507941246068        0.10534219352018
C           -7.40326123788587       -5.54630445432867        0.11420006535164
C           -7.39173600802569       -4.32806436564186        0.79826638828126
C           -6.25310377170181       -3.55289588522162        0.80055339510461
C           -5.09776501833639       -3.96887558428414        0.13227171701959
C           -3.88655287170140       -3.14631860752251        0.14307762526550
C           -2.62577000682915       -3.74068214694225        0.24476350192075
C           -1.49751821756589       -2.95693616407922        0.25157466364083
C           -1.59593438394868       -1.56449054667974        0.15294113726667
C           -2.85773582063013       -0.93145864929070        0.06407712188527
C           -3.97976270688045       -1.75636777667177        0.05594300474202
C           -2.94490978781294        0.52751995184859       -0.00045439914531
C           -4.16350342528984        1.17478194931683       -0.01105994932876
C           -4.30228417244056        2.57462615716477       -0.02534681759040
C           -5.60654110684017        3.19583928875037       -0.04657807813042
C           -6.71142182602995        2.55553858129129       -0.63934066673115
C           -7.94994132410501        3.14589230672598       -0.66919526841534
C           -8.14275125793436        4.40942929921282       -0.09384060748513
C           -9.40938046727215        5.01748721830233       -0.11824201455219
N          -10.44476556667207        5.51680936243277       -0.13853895813431
C           -7.05517117086418        5.06060161628011        0.50473542974099
C           -5.81820347621037        4.46670983607534        0.52048818591546
C           -3.11771450378981        3.34397955048382       -0.00399125171268
C           -1.89490668372217        2.74832862750470       -0.01486780880618
C           -1.74817926254479        1.33309938555724       -0.03097271472011
C           -0.52317518168946        0.67380658074628       -0.03855236857671
C           -0.43323060828146       -0.75141032339795        0.11600266023196
N            0.83242973976942       -1.13896076521992        0.19737404346850
C            1.58762660825916       -0.04512711165373        0.06067531021661
C            2.99797542048366       -0.11945361314145        0.01151243806715
C            3.85243481826374        0.88415777892813       -0.50443105837858
C            5.21034642570480        0.71795120763152       -0.50718565618720
C            5.80252504989120       -0.45473832042049       -0.00702336792553
N            7.18018230679140       -0.60321602071944        0.00396511863410
C            8.00942583523938        0.50911468908524        0.18973298415494
C            9.21334009491071        0.61475387947912       -0.50839985930998
C           10.03011042972348        1.71193598038942       -0.31957918352039
C            9.66151524865711        2.71844612009820        0.55916549955591
C            8.46650598471502        2.61796605098795        1.25413333032051
C            7.64425895700381        1.52305568860960        1.07679009458408
C            7.75750354317229       -1.86728345008032       -0.17296243905693
C            8.88906246909964       -2.23232561503222        0.55730187227729
C            9.45750532631805       -3.47780080596048        0.37709436276854
C            8.90849481572216       -4.37556841694731       -0.52497009309996
C            7.78410030465714       -4.01699856031512       -1.25169883531397
C            7.20998499343286       -2.77250562133927       -1.08293687041284
C            4.95947407947150       -1.47860422759145        0.46799668990588
C            3.60478882743867       -1.31686218009635        0.47212838008659
N            0.78673117754621        1.10242429802410       -0.07954124844333
C            1.26045991628328        2.42135340129681       -0.15742506127927
C            2.00512795804369        2.95157232694296        0.89405833387219
C            2.49086318844038        4.24247577003463        0.80813994348427
C            2.23871228598798        5.01072717418387       -0.31749420330592
C            1.49678276462208        4.48383629800116       -1.36355852510769
C            1.00829337491368        3.19317263623893       -1.29057458680681
C           -5.12129581106075       -5.19154426953780       -0.54519799445732
C           -6.25601085306632       -5.97187566746517       -0.56072620159690
H           -8.27800445984276       -4.00465618773364        1.32449860108614
H           -6.24486516225777       -2.62344452534666        1.35058676664412
H           -2.54302066379109       -4.81281926795186        0.34197298012219
H           -0.51193775943305       -3.38865418852938        0.32836962226196
H           -4.96553319077117       -1.33263981936303       -0.04865798653515
H           -5.07012398803157        0.59475700370679        0.03930614164494
H           -6.57788038722828        1.59642298722136       -1.11711845123577
H           -8.78458416154910        2.64711025796550       -1.14065904799150
H           -7.20409115748375        6.03080705675836        0.95661837590982
H           -5.00054638684109        4.97270069159418        1.01123686413498
H           -3.17967658632585        4.42148304967198       -0.01299445872033
H           -1.01000318417911        3.36307990920984        0.00479470998154
H            3.43846911080676        1.77379827191835       -0.94906455826688
H            5.84285189161535        1.48616641420565       -0.92780049531722
H            9.49506115650716       -0.16327622706226       -1.20251092123433
H           10.95722487282277        1.78562811167183       -0.86795326092258
H           10.30200638636270        3.57496894190687        0.70227168049898
H            8.17691643739006        3.39420948193808        1.94650732971339
H            6.72073999416859        1.43663204545535        1.62996267050384
H            9.30948579041714       -1.53700000389748        1.26890496782180
H           10.33026323152534       -3.75238874013865        0.95030658295177
H            9.35480114092733       -5.34849271170371       -0.66120638701691
H            7.35557821297173       -4.70850254152818       -1.96146780258140
H            6.34270106371273       -2.48665445716005       -1.65945961701877
H            5.39987066186816       -2.38559629061457        0.85488526300464
H            2.95666787569028       -2.09039241211895        0.85055336391761
H            2.19655205852585        2.34411540749693        1.76622719857985
H            3.06458241061279        4.65275986986332        1.62556235253911
H            2.61929051031646        6.01869236431969       -0.38029604454018
H            1.30148469682335        5.07929591338548       -2.24274717646514
H            0.43234346449983        2.77233385567542       -2.10181932921357
H           -4.24428254396930       -5.51667416807811       -1.08494764280450
H           -6.27018116151387       -6.91161826081415       -1.09336370159021

 projected vibrational frequencies (cm⁻¹)
eigval :       -0.00    -0.00     0.00     0.00     0.00     0.00
eigval :        5.47     9.07    12.22    17.75    23.43    26.63
eigval :       31.57    35.32    39.22    41.85    48.20    49.93
eigval :       57.99    60.34    65.61    66.21    71.67    81.02
eigval :      101.07   104.18   108.59   117.56   133.06   134.79
eigval :      140.45   147.10   150.15   167.30   183.46   200.76
eigval :      206.94   212.70   232.43   239.58   243.40   249.88
eigval :      262.30   281.60   291.78   308.67   313.02   327.99
eigval :      339.61   362.70   366.54   367.91   370.06   375.75
eigval :      377.60   380.16   384.43   387.93   396.76   407.26
eigval :      409.79   414.14   436.15   439.13   453.96   460.32
eigval :      468.94   473.81   477.47   500.92   508.10   515.40
eigval :      523.55   532.56   536.34   539.67   552.31   565.33
eigval :      578.74   582.29   585.44   588.98   592.22   593.65
eigval :      603.42   604.19   611.73   614.53   623.29   637.22
eigval :      645.22   657.20   660.79   664.41   665.99   670.03
eigval :      676.38   679.14   682.34   693.02   697.60   714.53
eigval :      723.86   739.66   757.06   759.31   764.55   781.08
eigval :      795.49   806.86   808.29   809.80   815.08   834.81
eigval :      840.71   841.06   851.72   857.83   867.52   872.35
eigval :      873.25   873.60   878.27   892.79   895.55   896.44
eigval :      902.87   907.71   908.28   910.51   912.63   914.02
eigval :      917.26   918.66   920.05   920.77   926.69   926.88
eigval :      927.99   928.88   929.23   930.04   930.27   937.34
eigval :      977.28   982.85   990.47  1002.61  1003.33  1004.44
eigval :     1024.20  1055.92  1066.45  1077.41  1080.45  1081.92
eigval :     1088.74  1103.73  1115.85  1121.35  1123.32  1133.31
eigval :     1137.26  1140.13  1141.48  1146.87  1168.45  1179.49
eigval :     1179.64  1179.91  1180.51  1183.29  1186.49  1191.21
eigval :     1191.97  1196.15  1210.67  1216.59  1226.76  1237.98
eigval :     1239.41  1250.60  1259.54  1263.60  1268.62  1272.43
eigval :     1275.43  1275.58  1279.71  1288.90  1295.93  1300.35
eigval :     1303.92  1310.88  1314.44  1317.51  1319.26  1322.85
eigval :     1325.04  1326.87  1329.96  1341.88  1356.20  1364.45
eigval :     1388.74  1399.34  1408.90  1417.87  1423.40  1428.86
eigval :     1431.74  1432.13  1434.31  1437.08  1444.28  1460.85
eigval :     1461.65  1462.62  1465.78  1472.83  1476.49  1485.55
eigval :     1499.03  1512.40  1519.41  1525.37  1537.88  1544.61
eigval :     1560.66  1566.99  1568.30  1572.83  1575.20  1580.96
eigval :     1582.47  1583.15  1587.65  1592.34  2336.02  2356.48
eigval :     3077.04  3078.79  3080.45  3081.30  3081.73  3081.87
eigval :     3082.17  3082.74  3082.80  3083.06  3083.39  3086.14
eigval :     3086.29  3087.43  3089.72  3090.40  3090.47  3091.24
eigval :     3092.26  3093.47  3094.05  3094.28  3094.48  3094.95
eigval :     3101.07  3102.05  3102.84  3103.28  3106.81  3115.18
eigval :     3117.56  3122.06  3122.63

   temp. (K)  partition function   enthalpy   heat capacity  entropy
                                   cal/mol     cal/K/mol   cal/K/mol   J/K/mol
 298.15  VIB  0.168E+24            27923.945    170.923    177.052
         ROT  0.217E+09              888.752      2.981     41.123
         INT  0.363E+32            28812.697    173.904    218.175
         TR   0.195E+29             1481.254      4.968     45.663
         TOT                       30293.9513   178.8721   263.8378  1103.8975

       T/K    H(0)-H(T)+PV         H(T)/Eh          T*S/Eh         G(T)/Eh
   ------------------------------------------------------------------------
    298.15    0.482765E-01    0.731262E+00    0.125358E+00    0.605904E+00
   ------------------------------------------------------------------------

         :::::::::::::::::::::::::::::::::::::::::::::::::::::
         ::                  THERMODYNAMIC                  ::
         :::::::::::::::::::::::::::::::::::::::::::::::::::::
         :: total free energy        -144.234919866531 Eh   ::
         ::.................................................::
         :: total energy             -144.840824363004 Eh   ::
         :: zero point energy           0.682985886284 Eh   ::
         :: G(RRHO) w/o ZPVE           -0.077081389811 Eh   ::
         :: G(RRHO) contrib.            0.605904496473 Eh   ::
         :::::::::::::::::::::::::::::::::::::::::::::::::::::

           -------------------------------------------------
          | TOTAL ENERGY             -144.840824363004 Eh   |
          | TOTAL ENTHALPY           -144.109561992325 Eh   |
          | TOTAL FREE ENERGY        -144.234919866531 Eh   |
          | GRADIENT NORM               0.000142597500 Eh/α |
           -------------------------------------------------

 * finished run on 2025/07/20 at 03:48:57.276
