   * xtb version 6.7.1 (edcfbbe) compiled by 'albert@albert-system' on 2024-07-22

   ID    Z sym.   atoms
    1    7 N      1, 21, 29, 35, 50
    2    6 C      2-20, 22-28, 30-34, 36-49, 51-58
    3    1 H      59-91

          program call               : xtb data2507/gas/TPM2CN/TPM2CN_gas_S0_crest.xyz --gfn 2 --ohess vtight --parallel 40 --molden --ceasefiles --namespace data2507/gas/TPM2CN/TPM2CN_gas_S0_finalOpt
          :  Hamiltonian                  GFN2-xTB          :
 * total energy  :  -144.9181954 Eh     change       -0.2906972E-08 Eh
 * total energy  :  -144.9181963 Eh     change       -0.8862463E-06 Eh
 * total energy  :  -144.9181976 Eh     change       -0.1244364E-05 Eh
 * total energy  :  -144.9181988 Eh     change       -0.1229562E-05 Eh
 * total energy  :  -144.9182005 Eh     change       -0.1740490E-05 Eh
 * total energy  :  -144.9182029 Eh     change       -0.2368743E-05 Eh
 * total energy  :  -144.9182042 Eh     change       -0.1287477E-05 Eh
 * total energy  :  -144.9182053 Eh     change       -0.1134757E-05 Eh
 * total energy  :  -144.9182066 Eh     change       -0.1265479E-05 Eh
 * total energy  :  -144.9182074 Eh     change       -0.7732697E-06 Eh
 * total energy  :  -144.9182095 Eh     change       -0.3212463E-06 Eh
 * total energy  :  -144.9182098 Eh     change       -0.2525363E-06 Eh
 * total energy  :  -144.9182100 Eh     change       -0.2475037E-06 Eh
 * total energy  :  -144.9182103 Eh     change       -0.3022100E-06 Eh
 * total energy  :  -144.9182107 Eh     change       -0.3493756E-06 Eh
 * total energy  :  -144.9182110 Eh     change       -0.3032422E-06 Eh
 * total energy  :  -144.9182112 Eh     change       -0.2521336E-06 Eh
 * total energy  :  -144.9182112 Eh     change        0.1431431E-08 Eh
 * total energy  :  -144.9182113 Eh     change       -0.7035268E-07 Eh
   *** GEOMETRY OPTIMIZATION CONVERGED AFTER 23 ITERATIONS ***

 final structure:
================
91
 xtb: 6.7.1 (edcfbbe)
N           -9.87953475009257       -6.67953063610974       -0.11625936640205
C           -8.90224953712281       -6.07968272337588       -0.09750520951678
C           -7.69895039054785       -5.34039065308334       -0.07561047875011
C           -7.60018554665121       -4.18713474414290        0.70436547368856
C           -6.42317573859763       -3.46925349077886        0.72007584307938
C           -5.32199722833165       -3.88121322737156       -0.03198903687073
C           -4.06904273802954       -3.11535443568434       -0.01000876931716
C           -2.83521470995618       -3.78085368353086        0.03502225521046
C           -1.67045183764000       -3.06057235783745        0.04854754911760
C           -1.69842228560976       -1.66182723187842        0.01305911078799
C           -2.92662123601250       -0.96243370270723       -0.02000052216861
C           -4.09633983424226       -1.73186579723088       -0.03477928195686
C           -2.93953504987391        0.49100441542908       -0.01829027126391
C           -4.13770854757571        1.21095835387635        0.02739118703910
C           -4.17828524496141        2.59289486931616        0.08145363556212
C           -5.46288813326474        3.30128444051373        0.12777732110524
C           -6.53606214848461        2.87998534839523       -0.65898358613444
C           -7.74364415025588        3.54427783099373       -0.62369557565377
C           -7.90220763625398        4.65131987619692        0.21144543433815
C           -9.13618979628753        5.33751074878718        0.25245885252504
N          -10.13701601958980        5.89634054850103        0.28633034504353
C           -6.83725963397002        5.08040758615221        1.00520862363566
C           -5.63327746864032        4.41051268497612        0.95750746203258
C           -2.97174951242151        3.30270113112929        0.10648286395114
C           -1.77710808769181        2.63443268188567        0.04717112834083
C           -1.72627541757074        1.23452873150922       -0.03351772945616
C           -0.51517983081886        0.49338803742662       -0.09092603258742
C           -0.49967612124993       -0.89993677818607       -0.01388070152287
N            0.77856650087851       -1.35723198724610        0.00189100740455
C            1.54335457589451       -0.29692225616166       -0.07943921346148
C            2.99331038460694       -0.35621791279233       -0.09321186759373
C            3.78365702644459        0.50708732937644       -0.85194940821286
C            5.15751182206283        0.41603480536324       -0.81226287013237
C            5.78796343254926       -0.53845008778071       -0.01080270504763
N            7.17774370539644       -0.60317037047713        0.05124492242670
C            7.94149917570377        0.56828547066949       -0.03150327859490
C            9.15946369569311        0.56997527240110       -0.71037866387941
C            9.91473004758766        1.72435742205266       -0.78171529222335
C            9.46793911480223        2.89355547174031       -0.18825815118178
C            8.25701691962552        2.89801478716467        0.48447140418116
C            7.49881659949782        1.74662981901414        0.56919656276936
C            7.82177909442498       -1.83985742153879        0.20144831282627
C            8.95071197211777       -1.95254241299072        1.01143139925841
C            9.58815742851633       -3.17035783821879        1.14934959502756
C            9.10842410978885       -4.29159655487349        0.49244804571269
C            7.98452764687099       -4.18497314585894       -0.31033562184328
C            7.34513105152508       -2.96981334742551       -0.46157712763670
C            4.99550714952678       -1.42754791564168        0.72068524335986
C            3.62297422139870       -1.34016788398844        0.67180769839924
N            0.80818774278052        0.86838616408293       -0.14248092690271
C            1.35779032991467        2.16228961848320       -0.23403261328558
C            2.16880091710347        2.63730696479366        0.78985743132360
C            2.74540486226164        3.88973040993677        0.68091016211952
C            2.51405823859338        4.66891125665194       -0.44041627304166
C            1.70296275260886        4.19505847869114       -1.45912257998968
C            1.12640042919060        2.94202895388582       -1.36336802499890
C           -5.43207320485007       -5.03779659366684       -0.80532300925223
C           -6.60495205383995       -5.76187621841941       -0.83319053276633
H           -8.44744350444987       -3.86774015389371        1.29358654404092
H           -6.34448662027367       -2.58864844323039        1.34063775985850
H           -2.81174993043922       -4.85955702243840        0.07940481449093
H           -0.70653430476886       -3.54380217944089        0.08088617604921
H           -5.06067504296824       -1.25259133124199       -0.09598837530048
H           -5.07704679168092        0.68254976163284        0.05646643317279
H           -6.41136052569262        2.03574553358947       -1.32106663262710
H           -8.56899321421303        3.21839554784905       -1.23971161717925
H           -6.96611291384010        5.93470402849319        1.65364884361926
H           -4.81739993276760        4.73536870440580        1.58609276346391
H           -2.98293927222288        4.38156228924963        0.15101058507470
H           -0.85814535967973        3.19767563530079        0.07749911938632
H            3.32749898675013        1.23594128582626       -1.50421975882699
H            5.75709988792460        1.08403171799257       -1.41277633973584
H            9.50581881064542       -0.33813515070610       -1.18159454892029
H           10.85553134040009        1.71231087473730       -1.31192983706457
H           10.05942181137674        3.79434012846998       -0.24878063789139
H            7.90376627735428        3.80345389950151        0.95583072450706
H            6.56023643064774        1.75016304156611        1.10414589244708
H            9.32102912358049       -1.08082036810865        1.53095126108769
H           10.46101577158734       -3.24536541931533        1.78095466570547
H            9.60739045377369       -5.24199693013397        0.60507899026413
H            7.60695513555223       -5.05280778630317       -0.83055821628428
H            6.47503616298179       -2.88610661441376       -1.09613909537782
H            5.46869411116327       -2.17848679251702        1.33565519705281
H            3.00976185228647       -2.02213929673133        1.23961618257489
H            2.34403497178269        2.02012814311469        1.65846993406129
H            3.37594667452404        4.25827660827634        1.47579680229195
H            2.96614847918935        5.64556824713554       -0.52214606108860
H            1.52263593385483        4.80014727751064       -2.33485246466778
H            0.49709901611266        2.55977429493245       -2.15410151397189
H           -4.59313251616721       -5.35765802408857       -1.40540195708605
H           -6.68718898385937       -6.65303409402158       -1.43816227794980

          :  Hamiltonian                  GFN2-xTB          :
         :: gradient norm              0.000077848562 Eh/a0 ::
         :: HOMO-LUMO gap              1.948063322622 eV    ::
         :: SCC energy              -147.722333222029 Eh    ::
         :: -> dispersion             -0.130447533006 Eh    ::
         :: repulsion energy           2.804121946934 Eh    ::

    * Orbital Energies and Occupations

         #    Occupation            Energy/Eh            Energy/eV
      -------------------------------------------------------------
         1        2.0000           -0.6946837             -18.9033
       ...           ...                  ...                  ...
       123        2.0000           -0.4181091             -11.3773
       124        2.0000           -0.4172420             -11.3537
       125        2.0000           -0.4161874             -11.3250
       126        2.0000           -0.4148696             -11.2892
       127        2.0000           -0.4137377             -11.2584
       128        2.0000           -0.4122213             -11.2171
       129        2.0000           -0.4113887             -11.1945
       130        2.0000           -0.4088078             -11.1242
       131        2.0000           -0.4025075             -10.9528
       132        2.0000           -0.3909241             -10.6376
       133        2.0000           -0.3836589             -10.4399
       134        2.0000           -0.3741952             -10.1824
       135        2.0000           -0.3557051              -9.6792 (HOMO)
       136                         -0.2841151              -7.7312 (LUMO)
       137                         -0.2763241              -7.5192
       138                         -0.2641894              -7.1890
       139                         -0.2580981              -7.0232
       140                         -0.2498229              -6.7980
       141                         -0.2480420              -6.7496
       142                         -0.2453879              -6.6773
       143                         -0.2440838              -6.6419
       144                         -0.2409912              -6.5577
       145                         -0.2373938              -6.4598
       146                         -0.2350601              -6.3963
       ...                                ...                  ...
       265                          1.1744890              31.9595
      -------------------------------------------------------------
                  HL-Gap            0.0715900 Eh            1.9481 eV

     #   Z          covCN         q      C6AA      α(0)
     1   7 N        0.911    -0.237    26.208     7.404
     2   6 C        1.912     0.111    28.357     8.600
     3   6 C        2.974     0.016    27.642     8.624
     4   6 C        2.924    -0.021    28.529     8.759
     5   6 C        2.924    -0.032    28.790     8.799
     6   6 C        2.977     0.019    27.587     8.615
     7   6 C        2.975     0.005    27.909     8.666
     8   6 C        2.922    -0.034    28.840     8.807
     9   6 C        2.919    -0.031    28.765     8.795
    10   6 C        2.986     0.003    27.940     8.671
    11   6 C        2.978    -0.001    28.052     8.688
    12   6 C        2.928    -0.039    28.965     8.826
    13   6 C        2.978     0.002    27.983     8.677
    14   6 C        2.928    -0.038    28.947     8.823
    15   6 C        2.974     0.004    27.926     8.668
    16   6 C        2.977     0.018    27.600     8.618
    17   6 C        2.924    -0.032    28.788     8.799
    18   6 C        2.924    -0.021    28.522     8.758
    19   6 C        2.974     0.017    27.631     8.622
    20   6 C        1.912     0.111    28.357     8.600
    21   7 N        0.911    -0.236    26.174     7.399
    22   6 C        2.924    -0.021    28.524     8.758
    23   6 C        2.924    -0.031    28.777     8.797
    24   6 C        2.921    -0.035    28.880     8.813
    25   6 C        2.917    -0.040    28.997     8.830
    26   6 C        2.978    -0.001    28.055     8.688
    27   6 C        3.072     0.020    27.478     8.595
    28   6 C        3.208     0.058    26.097     8.318
    29   7 N        1.894    -0.291    28.392     7.899
    30   6 C        3.192     0.130    24.693     8.104
    31   6 C        2.973    -0.008    28.222     8.714
    32   6 C        2.921    -0.034    28.849     8.808
    33   6 C        2.922    -0.049    29.217     8.864
    34   6 C        2.923     0.067    26.497     8.441
    35   7 N        2.752    -0.072    22.636     7.066
    36   6 C        2.925     0.065    26.552     8.450
    37   6 C        2.922    -0.047    29.160     8.855
    38   6 C        2.920    -0.029    28.716     8.788
    39   6 C        2.919    -0.038    28.937     8.821
    40   6 C        2.920    -0.029    28.730     8.790
    41   6 C        2.922    -0.047    29.177     8.858
    42   6 C        2.925     0.064    26.562     8.452
    43   6 C        2.922    -0.047    29.155     8.855
    44   6 C        2.920    -0.029    28.718     8.788
    45   6 C        2.919    -0.037    28.916     8.818
    46   6 C        2.920    -0.028    28.712     8.787
    47   6 C        2.922    -0.047    29.156     8.855
    48   6 C        2.920    -0.048    29.187     8.859
    49   6 C        2.927    -0.028    28.691     8.784
    50   7 N        2.841    -0.045    22.115     6.984
    51   6 C        2.913     0.068    26.470     8.437
    52   6 C        2.922    -0.038    28.933     8.821
    53   6 C        2.920    -0.025    28.634     8.775
    54   6 C        2.920    -0.029    28.735     8.791
    55   6 C        2.920    -0.027    28.673     8.781
    56   6 C        2.921    -0.037    28.922     8.819
    57   6 C        2.924    -0.031    28.776     8.797
    58   6 C        2.924    -0.021    28.523     8.758
    59   1 H        0.926     0.041     2.442     2.444
    60   1 H        0.926     0.038     2.474     2.460
    61   1 H        0.926     0.035     2.522     2.483
    62   1 H        0.926     0.055     2.256     2.349
    63   1 H        0.926     0.033     2.541     2.493
    64   1 H        0.926     0.036     2.496     2.471
    65   1 H        0.926     0.039     2.461     2.453
    66   1 H        0.926     0.041     2.429     2.437
    67   1 H        0.926     0.041     2.435     2.440
    68   1 H        0.926     0.039     2.460     2.453
    69   1 H        0.926     0.031     2.572     2.508
    70   1 H        0.926     0.030     2.589     2.516
    71   1 H        0.926     0.029     2.607     2.525
    72   1 H        0.926     0.034     2.525     2.485
    73   1 H        0.926     0.033     2.540     2.492
    74   1 H        0.926     0.034     2.536     2.490
    75   1 H        0.926     0.032     2.559     2.502
    76   1 H        0.926     0.031     2.566     2.505
    77   1 H        0.926     0.030     2.585     2.514
    78   1 H        0.926     0.032     2.552     2.498
    79   1 H        0.926     0.033     2.538     2.491
    80   1 H        0.926     0.033     2.548     2.496
    81   1 H        0.926     0.034     2.525     2.485
    82   1 H        0.926     0.034     2.529     2.487
    83   1 H        0.926     0.039     2.464     2.455
    84   1 H        0.926     0.053     2.279     2.361
    85   1 H        0.926     0.040     2.448     2.447
    86   1 H        0.926     0.041     2.435     2.440
    87   1 H        0.926     0.041     2.438     2.442
    88   1 H        0.926     0.041     2.431     2.438
    89   1 H        0.926     0.043     2.416     2.430
    90   1 H        0.926     0.041     2.439     2.442
    91   1 H        0.926     0.041     2.436     2.441

molecular dipole:
                 x           y           z       tot (Debye)
 q only:        3.878       0.844      -0.043
   full:        4.555       1.308      -0.087      12.047

 projected vibrational frequencies (cm⁻¹)
eigval :       -0.00    -0.00    -0.00    -0.00     0.00     0.00
eigval :        6.89     9.97    11.60    17.01    23.64    28.96
eigval :       33.85    34.48    39.00    40.38    49.19    49.85
eigval :       56.66    60.57    63.85    66.53    73.41    83.18
eigval :      100.01   104.85   107.91   115.49   130.14   134.63
eigval :      143.88   145.76   151.02   172.85   180.25   205.08
eigval :      207.08   208.53   231.91   241.03   247.11   250.43
eigval :      267.85   285.39   305.77   310.33   317.67   331.18
eigval :      347.96   366.33   366.53   367.60   375.53   377.73
eigval :      380.41   381.23   388.19   390.73   406.67   414.18
eigval :      420.04   423.74   448.06   453.83   461.51   472.79
eigval :      480.40   484.36   493.00   498.81   511.68   524.40
eigval :      533.70   534.52   543.53   548.63   567.89   569.07
eigval :      582.55   583.32   587.81   589.88   593.42   598.82
eigval :      605.64   609.84   616.69   631.77   638.68   642.88
eigval :      653.66   660.43   667.17   668.89   678.15   683.05
eigval :      688.63   692.78   696.02   702.42   704.69   722.68
eigval :      735.61   751.66   757.54   762.06   768.51   784.15
eigval :      807.29   810.30   815.74   819.25   833.83   839.17
eigval :      859.57   867.11   869.20   870.74   874.90   875.99
eigval :      876.59   877.18   885.18   892.94   894.66   901.88
eigval :      910.11   913.96   915.06   917.25   918.46   919.58
eigval :      923.90   926.10   928.04   928.12   928.97   929.19
eigval :      929.31   929.83   930.59   932.88   947.80   956.09
eigval :      982.83   997.16  1004.07  1005.45  1010.64  1028.05
eigval :     1040.56  1071.55  1079.54  1082.56  1082.98  1084.20
eigval :     1102.29  1115.43  1121.82  1123.97  1134.96  1136.61
eigval :     1140.09  1141.98  1159.57  1179.49  1180.57  1180.69
eigval :     1180.73  1186.92  1187.71  1189.45  1190.29  1195.39
eigval :     1196.67  1203.44  1216.97  1223.82  1233.89  1240.02
eigval :     1246.98  1265.97  1267.88  1268.84  1275.19  1278.28
eigval :     1280.39  1281.62  1292.49  1300.72  1304.03  1313.03
eigval :     1313.49  1314.42  1314.53  1318.46  1325.62  1326.91
eigval :     1330.17  1335.47  1336.81  1351.44  1377.90  1391.71
eigval :     1392.33  1408.44  1414.00  1415.40  1428.31  1434.09
eigval :     1436.29  1439.49  1442.68  1465.72  1472.28  1475.72
eigval :     1480.11  1486.05  1487.14  1494.60  1519.90  1537.03
eigval :     1545.82  1549.91  1552.13  1560.07  1569.91  1577.94
eigval :     1580.93  1581.88  1582.95  1585.27  1592.45  1594.39
eigval :     1594.83  1595.38  1600.74  1601.41  2372.51  2373.26
eigval :     3075.58  3077.57  3078.72  3079.07  3080.06  3080.78
eigval :     3082.15  3082.21  3082.47  3084.51  3084.90  3085.01
eigval :     3085.18  3086.52  3087.16  3088.85  3090.08  3090.81
eigval :     3091.04  3091.47  3092.66  3093.83  3094.11  3094.36
eigval :     3095.82  3098.52  3099.15  3099.54  3102.97  3107.42
eigval :     3107.62  3108.33  3115.63

   temp. (K)  partition function   enthalpy   heat capacity  entropy
                                   cal/mol     cal/K/mol   cal/K/mol   J/K/mol
 298.15  VIB  0.926E+23            27649.027    169.084    175.317
         ROT  0.215E+09              888.752      2.981     41.108
         INT  0.199E+32            28537.780    172.065    216.425
         TR   0.195E+29             1481.254      4.968     45.663
         TOT                       30019.0337   177.0335   262.0875  1096.5743

       T/K    H(0)-H(T)+PV         H(T)/Eh          T*S/Eh         G(T)/Eh
   ------------------------------------------------------------------------
    298.15    0.478384E-01    0.735104E+00    0.124526E+00    0.610577E+00
   ------------------------------------------------------------------------

         :::::::::::::::::::::::::::::::::::::::::::::::::::::
         ::                  THERMODYNAMIC                  ::
         :::::::::::::::::::::::::::::::::::::::::::::::::::::
         :: total free energy        -144.307633980770 Eh   ::
         ::.................................................::
         :: total energy             -144.918211275096 Eh   ::
         :: zero point energy           0.687265166103 Eh   ::
         :: G(RRHO) w/o ZPVE           -0.076687871778 Eh   ::
         :: G(RRHO) contrib.            0.610577294326 Eh   ::
         :::::::::::::::::::::::::::::::::::::::::::::::::::::

           -------------------------------------------------
          | TOTAL ENERGY             -144.918211275096 Eh   |
          | TOTAL ENTHALPY           -144.183107733789 Eh   |
          | TOTAL FREE ENERGY        -144.307633980770 Eh   |
          | GRADIENT NORM               0.000077894142 Eh/α |
          | HOMO-LUMO GAP               1.948063597645 eV   |
           -------------------------------------------------

 * finished run on 2025/07/20 at 03:39:16.486
