   * xtb version 6.7.1 (edcfbbe) compiled by 'albert@albert-system' on 2024-07-22

   ID    Z sym.   atoms
    1    7 N      1, 21, 29, 35, 50
    2    6 C      2-20, 22-28, 30-34, 36-49, 51-58
    3    1 H      59-91

          program call               : xtb data2507/gas/TPM2CN/TPM2CN_gas_S0_finalOpt.xtbopt.xyz --gfn 2 --spinpol --tblite --uhf 2 --ohess vtight --parallel 40 --molden --ceasefiles --namespace data2507/gas/TPM2CN/TPM2CN_gas_T1_preOpt
 * total energy  :  -144.8325183 Eh     change        0.1412559E-09 Eh
 * total energy  :  -144.8368746 Eh     change       -0.4356355E-02 Eh
 * total energy  :  -144.8385852 Eh     change       -0.1710567E-02 Eh
 * total energy  :  -144.8388552 Eh     change       -0.2700672E-03 Eh
 * total energy  :  -144.8390333 Eh     change       -0.1780736E-03 Eh
 * total energy  :  -144.8393255 Eh     change       -0.2921309E-03 Eh
 * total energy  :  -144.8394790 Eh     change       -0.1535822E-03 Eh
 * total energy  :  -144.8396549 Eh     change       -0.1758991E-03 Eh
 * total energy  :  -144.8397636 Eh     change       -0.1087011E-03 Eh
 * total energy  :  -144.8398830 Eh     change       -0.1193425E-03 Eh
 * total energy  :  -144.8408195 Eh     change       -0.2550306E-06 Eh
 * total energy  :  -144.8408199 Eh     change       -0.3641625E-06 Eh
 * total energy  :  -144.8408202 Eh     change       -0.2819874E-06 Eh
 * total energy  :  -144.8408203 Eh     change       -0.1695156E-06 Eh
 * total energy  :  -144.8408205 Eh     change       -0.1789648E-06 Eh
 * total energy  :  -144.8408207 Eh     change       -0.1505940E-06 Eh
 * total energy  :  -144.8408209 Eh     change       -0.2113644E-06 Eh
 * total energy  :  -144.8408210 Eh     change       -0.1113600E-06 Eh
 * total energy  :  -144.8408211 Eh     change       -0.6492377E-07 Eh
   *** GEOMETRY OPTIMIZATION CONVERGED AFTER 121 ITERATIONS ***

 final structure:
================
91
 xtb: 6.7.1 (edcfbbe)
N           -9.60774365101915       -6.84835287415510        0.06484493494565
C           -8.65412471986120       -6.21001611766693        0.07575505238547
C           -7.47980500916921       -5.42843344980943        0.08879060175737
C           -7.45529478547798       -4.20713435025801        0.76706586692046
C           -6.30552108536377       -3.44864479800083        0.77384486323378
C           -5.15166807101733       -3.88460599469846        0.11577026957554
C           -3.92858357778907       -3.07999921066990        0.13120212104369
C           -2.67742123898622       -3.69284189455703        0.24223062991902
C           -1.53729272664871       -2.92652169423449        0.24965175687001
C           -1.61416095581148       -1.53322967896845        0.14437023674703
C           -2.86593052462822       -0.88137055069317        0.05111552210863
C           -4.00034459055019       -1.68904468269996        0.03894676911748
C           -2.93051926543296        0.57870119951359       -0.01429822412302
C           -4.13890707650965        1.24485541851300       -0.00599797186890
C           -4.25580278630195        2.64660692511878       -0.02073052632072
C           -5.55034750013530        3.28829619026065       -0.01477668020875
C           -6.67789527465628        2.66533493276551       -0.58264335058854
C           -7.90767543409835        3.27447450176335       -0.58412438216108
C           -8.06813171863037        4.54026946011559       -0.00385129846578
C           -9.32580210288036        5.16717430260988        0.00181170902912
N          -10.35382232606192        5.68181616687830        0.00651835216959
C           -6.95739373655862        5.17459371863506        0.56972469997659
C           -5.72951448507636        4.56201099633163        0.55698392862157
C           -3.05916127362226        3.39724531276274       -0.02587826286583
C           -1.84604424627331        2.78249117891067       -0.05353780858129
C           -1.72167085018701        1.36508572548833       -0.06108452476440
C           -0.50721564014419        0.68634107282353       -0.06902569200438
C           -0.43926801158168       -0.73823590485523        0.10175796119219
N            0.82022111511774       -1.14411464277352        0.18815959314748
C            1.59229441837409       -0.06372344255825        0.03931799080455
C            3.00148592016229       -0.16098879178491       -0.00252161684149
C            3.87515673309715        0.82195586149822       -0.52600437077282
C            5.23039786519396        0.63494952297196       -0.51542997422260
C            5.80046569698159       -0.53950465490494        0.00583285063125
N            7.17565736366889       -0.70818317923251        0.03236325192120
C            8.01933985980529        0.39358857276041        0.21547883002132
C            9.23373426127680        0.47244214239412       -0.46791377189967
C           10.06501150502594        1.55900200594740       -0.28099363362121
C            9.70075456753508        2.58141711472601        0.58104663841483
C            8.49526835796384        2.50770711708014        1.26110575569314
C            7.65845106557126        1.42359409338196        1.08565627832420
C            7.73510891517845       -1.98314743032950       -0.12235768107516
C            8.85295375155533       -2.35673664757251        0.62451815441408
C            9.40283285985752       -3.61353206284268        0.46660788869373
C            8.84861148803972       -4.51422682598473       -0.42932946770703
C            7.73788704251943       -4.14713570179017       -1.17263646718481
C            7.18250057294080       -2.89136563493525       -1.02628419955109
C            4.93802190073527       -1.54439052867355        0.48656050399583
C            3.58608132066750       -1.36182284015664        0.47764700309528
N            0.80918539968263        1.09411356486497       -0.11581896848838
C            1.30144538218931        2.40451680862283       -0.21741908033886
C            2.05701758779750        2.94263105597532        0.82224936378045
C            2.55919170301717        4.22542294639459        0.71258583993463
C            2.31272141673409        4.97782897797774       -0.42497097824507
C            1.55993281666043        4.44311689714120       -1.45924133527241
C            1.05494921735313        3.16040636620647       -1.36250805669119
C           -5.18837110920235       -5.11008106095357       -0.55609688604920
C           -6.33414781972544       -5.87393961400193       -0.57591807746606
H           -8.34048199832635       -3.86833165734346        1.28537793633774
H           -6.28763305270929       -2.51680541007379        1.31958105826857
H           -2.61141976504276       -4.76563732936640        0.34481073923349
H           -0.55868555528726       -3.37297044938502        0.33124247144063
H           -4.97868177891909       -1.25055692656766       -0.07447560593632
H           -5.05325246959112        0.67897486052462        0.06281750474834
H           -6.56981387396347        1.70455683663328       -1.06350885242496
H           -8.76034075040855        2.78874008023919       -1.03657057477262
H           -7.08124861344248        6.14662307101691        1.02523877425360
H           -4.89316662873978        5.05512748487580        1.02900165239597
H           -3.10462762847944        4.47553188535407       -0.04058209818873
H           -0.95158093942936        3.38357832741114       -0.05266657870099
H            3.47821421919979        1.71144614981529       -0.98625596952805
H            5.87811056383685        1.38753020822989       -0.94116468987960
H            9.51240453027947       -0.31799717711271       -1.14911240373618
H           11.00033401950929        1.61175720685810       -0.81771708778731
H           10.35269629333386        3.42947778479079        0.72284186041297
H            8.20876871772373        3.29649090105969        1.94047335315656
H            6.72662509109271        1.35798945216660        1.62763821723882
H            9.27721296024257       -1.65908946882494        1.33155566927366
H           10.26501668825305       -3.89456368257292        1.05256119608211
H            9.28024437091953       -5.49604257468590       -0.54793223679245
H            7.30540339821022       -4.84101400911625       -1.87767125588227
H            6.32597062744093       -2.59920556772098       -1.61558013490185
H            5.36127290338762       -2.45286490228742        0.88878174670484
H            2.92312848271379       -2.12018030536394        0.86103065506165
H            2.24378779680626        2.34766852449278        1.70397543232325
H            3.14136004999832        4.64194810331644        1.52082573682899
H            2.70606704720583        5.97956036027550       -0.50617032669817
H            1.36889037782340        5.02616366009830       -2.34763858420204
H            0.47005654149595        2.73361137266710       -2.16419103270435
H           -4.31249835799905       -5.45054840048155       -1.08817817751529
H           -6.35816889244822       -6.81599088117428       -1.10409872182123

 projected vibrational frequencies (cm⁻¹)
eigval :       -0.00    -0.00    -0.00     0.00     0.00     0.00
eigval :        5.64     8.69    12.60    17.44    23.34    26.19
eigval :       31.21    34.31    39.13    41.16    46.90    49.75
eigval :       57.96    60.37    65.56    66.25    71.10    81.87
eigval :      100.96   104.47   108.40   117.41   132.91   134.74
eigval :      140.09   147.22   150.49   167.13   183.30   200.91
eigval :      207.33   213.00   232.24   239.81   242.48   249.99
eigval :      262.24   281.92   291.94   309.00   313.14   327.78
eigval :      339.45   362.35   366.39   367.70   370.46   375.61
eigval :      377.57   380.37   384.36   387.76   396.91   407.03
eigval :      409.94   413.63   436.43   438.85   453.99   460.40
eigval :      469.06   473.95   477.33   500.77   508.04   515.14
eigval :      523.62   532.44   536.31   539.57   552.29   565.47
eigval :      578.65   582.27   585.38   588.95   592.14   593.61
eigval :      603.37   604.22   611.73   614.50   623.23   637.19
eigval :      645.31   657.20   660.83   664.45   665.96   670.03
eigval :      676.11   679.08   682.39   692.98   697.51   714.83
eigval :      723.91   740.93   757.00   759.48   764.37   780.74
eigval :      795.44   806.81   808.22   809.72   815.01   835.00
eigval :      840.74   841.04   851.90   857.80   867.39   872.23
eigval :      873.06   873.37   878.29   892.28   895.42   896.17
eigval :      903.36   907.59   908.28   910.53   912.57   913.78
eigval :      917.37   918.54   919.99   920.56   926.59   927.25
eigval :      927.93   928.78   929.39   930.05   930.09   937.39
eigval :      977.33   982.95   990.54  1002.64  1003.45  1004.79
eigval :     1024.30  1055.95  1066.67  1077.44  1080.70  1082.03
eigval :     1088.61  1104.31  1116.03  1121.43  1123.30  1133.47
eigval :     1136.90  1140.11  1141.46  1146.31  1168.40  1179.18
eigval :     1179.48  1179.76  1180.62  1183.32  1186.89  1190.93
eigval :     1191.80  1196.85  1211.45  1216.00  1226.44  1238.32
eigval :     1238.89  1249.85  1259.31  1263.34  1268.47  1272.12
eigval :     1275.31  1275.53  1279.67  1288.62  1295.31  1300.27
eigval :     1303.35  1310.61  1314.52  1317.51  1319.24  1322.73
eigval :     1324.71  1326.84  1329.92  1341.84  1355.77  1364.38
eigval :     1388.87  1399.37  1408.81  1417.69  1423.34  1428.78
eigval :     1431.34  1431.94  1433.90  1436.88  1444.30  1460.63
eigval :     1461.38  1462.44  1465.44  1472.69  1476.52  1485.44
eigval :     1499.19  1512.14  1519.15  1524.97  1537.84  1544.10
eigval :     1560.58  1566.91  1568.29  1572.86  1575.20  1580.76
eigval :     1582.43  1583.01  1587.61  1592.51  2336.20  2356.74
eigval :     3076.96  3078.76  3080.31  3080.99  3081.61  3081.61
eigval :     3082.10  3082.64  3082.73  3082.96  3083.23  3086.16
eigval :     3086.34  3087.34  3089.56  3090.35  3090.43  3091.09
eigval :     3092.08  3093.16  3093.92  3094.12  3094.36  3094.77
eigval :     3100.78  3102.08  3102.63  3103.07  3106.74  3114.89
eigval :     3117.45  3121.77  3121.98

   temp. (K)  partition function   enthalpy   heat capacity  entropy
                                   cal/mol     cal/K/mol   cal/K/mol   J/K/mol
 298.15  VIB  0.185E+24            27930.430    170.853    177.077
         ROT  0.217E+09              888.752      2.981     41.123
         INT  0.401E+32            28819.182    173.834    218.200
         TR   0.195E+29             1481.254      4.968     45.663
         TOT                       30300.4361   178.8023   263.8628  1104.0019

       T/K    H(0)-H(T)+PV         H(T)/Eh          T*S/Eh         G(T)/Eh
   ------------------------------------------------------------------------
    298.15    0.482868E-01    0.731230E+00    0.125370E+00    0.605860E+00
   ------------------------------------------------------------------------

         :::::::::::::::::::::::::::::::::::::::::::::::::::::
         ::                  THERMODYNAMIC                  ::
         :::::::::::::::::::::::::::::::::::::::::::::::::::::
         :: total free energy        -144.234960911352 Eh   ::
         ::.................................................::
         :: total energy             -144.840821065163 Eh   ::
         :: zero point energy           0.682943063545 Eh   ::
         :: G(RRHO) w/o ZPVE           -0.077082909735 Eh   ::
         :: G(RRHO) contrib.            0.605860153811 Eh   ::
         :::::::::::::::::::::::::::::::::::::::::::::::::::::

           -------------------------------------------------
          | TOTAL ENERGY             -144.840821065163 Eh   |
          | TOTAL ENTHALPY           -144.109591183076 Eh   |
          | TOTAL FREE ENERGY        -144.234960911352 Eh   |
          | GRADIENT NORM               0.000063673975 Eh/α |
           -------------------------------------------------

 * finished run on 2025/07/20 at 03:39:41.135
