   * xtb version 6.7.1 (edcfbbe) compiled by 'albert@albert-system' on 2024-07-22

   ID    Z sym.   atoms
    1    6 C      1-6, 8-22, 24-29, 33-38, 42-45, 47-60
    2    7 N      7, 23, 46
    3   16 S      30, 39
    4    8 O      31, 32, 40, 41
    5    1 H      61-95

          program call               : xtb data2507/gas/2Cz-DMAC-TTR/2Cz-DMAC-TTR.xyz --gfn 2 --ohess vtight --parallel 40 --molden --ceasefiles --namespace data2507/gas/2Cz-DMAC-TTR/2Cz-DMAC-TTR_gas_S0_preOpt
          :  Hamiltonian                  GFN2-xTB          :
 * total energy  :  -158.6205162 Eh     change       -0.6026482E-08 Eh
 * total energy  :  -158.6415617 Eh     change       -0.2104550E-01 Eh
 * total energy  :  -158.6487173 Eh     change       -0.7155567E-02 Eh
 * total energy  :  -158.6507094 Eh     change       -0.1992072E-02 Eh
 * total energy  :  -158.6520656 Eh     change       -0.1356177E-02 Eh
 * total energy  :  -158.6526249 Eh     change       -0.5593181E-03 Eh
 * total energy  :  -158.6528585 Eh     change       -0.2336642E-03 Eh
 * total energy  :  -158.6529800 Eh     change       -0.1214136E-03 Eh
 * total energy  :  -158.6530627 Eh     change       -0.8272349E-04 Eh
 * total energy  :  -158.6531471 Eh     change       -0.8438293E-04 Eh
 * total energy  :  -158.6545524 Eh     change       -0.4728922E-05 Eh
 * total energy  :  -158.6545559 Eh     change       -0.3546257E-05 Eh
 * total energy  :  -158.6545584 Eh     change       -0.2474391E-05 Eh
 * total energy  :  -158.6545602 Eh     change       -0.1820034E-05 Eh
 * total energy  :  -158.6545619 Eh     change       -0.1675509E-05 Eh
 * total energy  :  -158.6545637 Eh     change       -0.1789177E-05 Eh
 * total energy  :  -158.6545655 Eh     change       -0.1772199E-05 Eh
 * total energy  :  -158.6545671 Eh     change       -0.1584253E-05 Eh
 * total energy  :  -158.6545671 Eh     change       -0.3718569E-07 Eh
   *** GEOMETRY OPTIMIZATION CONVERGED AFTER 94 ITERATIONS ***

 final structure:
================
95
 xtb: 6.7.1 (edcfbbe)
C           -1.18294930795430        2.98591852910475        1.07245161231683
C           -0.75584048652980        1.97725418057246       -0.00936950457914
C           -0.87121457190392        2.61131586794427       -1.40761189435232
C            0.68959199901119        1.59032919841377        0.22987287890619
C            1.66328315348572        2.57567644828418        0.18080752151722
C            3.01135972571573        2.29237148197787        0.35650718487360
N            3.95674529418196        3.32572869035171        0.32822367928592
C            3.89318723266417        4.49118737575391        1.06529109673071
C            2.95162026808176        4.89438676220391        2.00150803765066
C            3.13993728329031        6.11476119577497        2.62124193350493
C            4.24055826383697        6.91726463477647        2.32841619016434
C            5.19242551287529        6.51117290416809        1.41480646725120
C            5.02490385272226        5.28849998905172        0.77804323947017
C            5.80216195513565        4.56060996407709       -0.18539613952943
C            6.99082135503750        4.82719818083538       -0.85203371280429
C            7.46480522456583        3.89808435960757       -1.75624995195132
C            6.76214285961580        2.72209281031277       -2.00998849129546
C            5.57766947672318        2.43423082550464       -1.35956123649066
C            5.10808485380534        3.35369927050474       -0.43257317798021
C            3.39968601024454        0.97186672226816        0.54834505673913
C            2.44626714239578       -0.02142537627989        0.58949774941731
C            1.08419859802514        0.26990047954512        0.46876510639199
N            0.14464907976452       -0.75471828697513        0.54297977093446
C            0.57794850433721       -2.06586375805689        0.81683861219252
C            1.14409578677621       -2.37783521712066        2.05457582139860
C            1.57002287115390       -3.66624340957453        2.32357352837234
C            1.41883641692172       -4.65403231290330        1.36466746001091
C            0.86213572562844       -4.34996681578312        0.13834434434468
C            0.44909774865416       -3.06534856955821       -0.14903585679041
S            0.67100562824882       -5.62834633728863       -1.11118089696488
O           -0.42566234808679       -6.47498488679163       -0.75909990007070
O            0.62642572722232       -4.97816212579574       -2.39362020254553
C            2.21111744286985       -6.54762515005702       -1.01511009134602
C            2.84251673742708       -6.94098606791732       -2.18158206693583
C            4.02813470472617       -7.65639264817733       -2.10726754527909
C            4.58123404278129       -7.96194504147358       -0.87230588767843
C            3.95072119878049       -7.55343626440726        0.29325628834976
C            2.76140767502557       -6.85124181286060        0.21325858140002
S            1.93554675457642       -6.33471343173908        1.72271876291321
O            2.92266842571177       -6.27641347766974        2.76750488615487
O            0.78246174070749       -7.15047768576512        1.94376344649014
C           -1.21349072154944       -0.51483301263144        0.33500794017114
C           -2.13540651280546       -1.55843015853557        0.45648799385156
C           -3.48121610904450       -1.35496541361325        0.24425971088378
C           -3.94510748472898       -0.08312761201678       -0.07052691878958
N           -5.30527499860776        0.15481992984117       -0.30432882728500
C           -6.35047836602134       -0.22426675141651        0.51411627673134
C           -6.32290905507813       -0.87335536209244        1.74005609885623
C           -7.52885139746372       -1.11020802053413        2.37133144317351
C           -8.73732693181001       -0.70695752989916        1.80739206221465
C           -8.76944388267863       -0.04123901062117        0.59857265262221
C           -7.57014198060692        0.20850517898626       -0.05542477400982
C           -7.23421391366526        0.87564457626216       -1.28194059996170
C           -7.98759111794190        1.48829067227612       -2.27465322054352
C           -7.33313054368633        2.02920790560586       -3.36313863251750
C           -5.94676496558905        1.95141402929933       -3.47697611622466
C           -5.17574016964273        1.34647301511637       -2.50308976515581
C           -5.82596732206122        0.82181025234030       -1.39513776210595
C           -3.03547643513631        0.96371952584986       -0.14080961820524
C           -1.67625968320306        0.77469085538192        0.05565271339033
H           -1.09669433548432        2.53190326328786        2.05790078560897
H           -2.21329814576491        3.29774721093491        0.92885076027679
H           -0.55520675733298        3.87218771002139        1.04448863269677
H           -0.57281864796505        1.89065810653025       -2.16662781768347
H           -0.23138220656635        3.48462441871537       -1.49435621671526
H           -1.89267500167687        2.92125030354965       -1.60884895764663
H            1.38326462943460        3.59951318613814       -0.01137668371638
H            2.10643780018165        4.26994806519396        2.24990527717823
H            2.41983093424750        6.45240605914187        3.35210587495434
H            4.35086201832484        7.86545517162205        2.83310507748057
H            6.05346974042917        7.12575637740036        1.19968494464197
H            7.52706953349822        5.74563337463139       -0.66678060882918
H            8.38816098312679        4.08503516111344       -2.28394491935467
H            7.15009639748835        2.02122318060455       -2.73455013806969
H            5.03085291381179        1.52880679941841       -1.57616775732719
H            4.44267514300762        0.72637944335845        0.67372536398227
H            2.76796935654643       -1.04282202933239        0.71869106558035
H            1.24527014613304       -1.60224421216411        2.79885532820088
H            2.01735882971593       -3.93072189621103        3.26864394094925
H            0.03615733518183       -2.85426759453378       -1.12354021097075
H            2.39307079953605       -6.67342355835854       -3.12493133896367
H            4.52107131682268       -7.97304273580265       -3.01361150023978
H            5.50528077806895       -8.51662523824158       -0.81607802001111
H            4.36022059566199       -7.76105565992412        1.26933769711954
H           -1.79945746542894       -2.54935589946605        0.71730773098494
H           -4.16931266174938       -2.18264325365918        0.31262143665400
H           -5.39049979332561       -1.17512936889092        2.19289129471094
H           -7.53448154633018       -1.61685030406658        3.32518054193124
H           -9.65870792259857       -0.91311542784481        2.33139194889559
H           -9.70454045745115        0.28431869388284        0.16833707177774
H           -9.06321517293270        1.53364292954998       -2.19466061611605
H           -7.90016789910324        2.51163701710753       -4.14530340611836
H           -5.46421124455166        2.36929267711170       -4.34836155968509
H           -4.10399298890130        1.27125997177463       -2.61072004368762
H           -3.41747897106472        1.95202979290418       -0.34328633576188

          :  Hamiltonian                  GFN2-xTB          :
         :: gradient norm              0.000126651027 Eh/a0 ::
         :: HOMO-LUMO gap              1.491146685609 eV    ::
         :: SCC energy              -161.299541063980 Eh    ::
         :: -> dispersion             -0.146936847862 Eh    ::
         :: repulsion energy           2.644973971374 Eh    ::

    * Orbital Energies and Occupations

         #    Occupation            Energy/Eh            Energy/eV
      -------------------------------------------------------------
         1        2.0000           -0.7961723             -21.6650
       ...           ...                  ...                  ...
       133        2.0000           -0.4200038             -11.4289
       134        2.0000           -0.4191587             -11.4059
       135        2.0000           -0.4185927             -11.3905
       136        2.0000           -0.4163896             -11.3305
       137        2.0000           -0.4161359             -11.3236
       138        2.0000           -0.4125097             -11.2250
       139        2.0000           -0.4068289             -11.0704
       140        2.0000           -0.4029625             -10.9652
       141        2.0000           -0.3802208             -10.3463
       142        2.0000           -0.3788016             -10.3077
       143        2.0000           -0.3763339             -10.2406
       144        2.0000           -0.3641738              -9.9097
       145        2.0000           -0.3551832              -9.6650 (HOMO)
       146                         -0.3003846              -8.1739 (LUMO)
       147                         -0.2847138              -7.7475
       148                         -0.2831116              -7.7039
       149                         -0.2774162              -7.5489
       150                         -0.2504240              -6.8144
       151                         -0.2451824              -6.6718
       152                         -0.2417893              -6.5794
       153                         -0.2411095              -6.5609
       154                         -0.2384996              -6.4899
       155                         -0.2234812              -6.0812
       156                         -0.2196584              -5.9772
       ...                                ...                  ...
       285                          1.2441634              33.8554
      -------------------------------------------------------------
                  HL-Gap            0.0547986 Eh            1.4911 eV

     #   Z          covCN         q      C6AA      α(0)
     1   6 C        3.761    -0.106    22.565     6.772
     2   6 C        3.910     0.023    20.132     6.377
     3   6 C        3.761    -0.106    22.571     6.772
     4   6 C        2.980    -0.008    28.209     8.712
     5   6 C        2.931    -0.049    29.223     8.865
     6   6 C        2.911     0.054    26.786     8.487
     7   7 N        2.803    -0.043    22.073     6.978
     8   6 C        3.077     0.046    26.898     8.503
     9   6 C        2.910    -0.052    29.298     8.876
    10   6 C        2.924    -0.034    28.846     8.808
    11   6 C        2.920    -0.041    29.021     8.834
    12   6 C        2.913    -0.033    28.815     8.802
    13   6 C        3.068    -0.017    28.367     8.733
    14   6 C        3.069    -0.017    28.366     8.733
    15   6 C        2.912    -0.033    28.817     8.803
    16   6 C        2.920    -0.041    29.021     8.834
    17   6 C        2.924    -0.034    28.840     8.807
    18   6 C        2.910    -0.052    29.285     8.874
    19   6 C        3.076     0.046    26.892     8.502
    20   6 C        2.921    -0.046    29.131     8.851
    21   6 C        2.924    -0.059    29.469     8.902
    22   6 C        2.926     0.052    26.827     8.494
    23   7 N        2.752    -0.059    22.382     7.026
    24   6 C        2.927     0.083    26.142     8.385
    25   6 C        2.922    -0.033    28.811     8.802
    26   6 C        2.953    -0.019    28.486     8.754
    27   6 C        3.000    -0.087    30.173     9.011
    28   6 C        3.002    -0.083    30.049     8.992
    29   6 C        2.961    -0.032    28.799     8.802
    30  16 S        3.843     0.984   107.101    17.418
    31   8 O        0.860    -0.519    24.208     6.597
    32   8 O        0.860    -0.534    24.558     6.644
    33   6 C        3.002    -0.081    30.003     8.985
    34   6 C        2.957    -0.018    28.446     8.748
    35   6 C        2.920    -0.017    28.440     8.745
    36   6 C        2.920    -0.017    28.439     8.745
    37   6 C        2.956    -0.018    28.448     8.748
    38   6 C        3.002    -0.081    29.999     8.985
    39  16 S        3.840     0.981   107.190    17.425
    40   8 O        0.860    -0.533    24.532     6.641
    41   8 O        0.860    -0.520    24.221     6.598
    42   6 C        2.926     0.052    26.842     8.496
    43   6 C        2.923    -0.057    29.418     8.895
    44   6 C        2.921    -0.044    29.087     8.844
    45   6 C        2.910     0.056    26.755     8.482
    46   7 N        2.803    -0.043    22.063     6.976
    47   6 C        3.076     0.046    26.888     8.502
    48   6 C        2.910    -0.051    29.273     8.872
    49   6 C        2.924    -0.033    28.828     8.805
    50   6 C        2.920    -0.041    29.015     8.833
    51   6 C        2.912    -0.033    28.817     8.803
    52   6 C        3.069    -0.017    28.363     8.733
    53   6 C        3.068    -0.017    28.362     8.732
    54   6 C        2.913    -0.033    28.817     8.803
    55   6 C        2.920    -0.041    29.024     8.835
    56   6 C        2.924    -0.034    28.848     8.808
    57   6 C        2.910    -0.052    29.295     8.875
    58   6 C        3.077     0.046    26.894     8.502
    59   6 C        2.932    -0.050    29.232     8.867
    60   6 C        2.980    -0.008    28.221     8.714
    61   1 H        0.925     0.034     2.531     2.488
    62   1 H        0.925     0.045     2.385     2.415
    63   1 H        0.925     0.044     2.392     2.419
    64   1 H        0.925     0.035     2.515     2.480
    65   1 H        0.925     0.044     2.396     2.421
    66   1 H        0.925     0.045     2.380     2.412
    67   1 H        0.926     0.048     2.345     2.394
    68   1 H        0.926     0.026     2.649     2.545
    69   1 H        0.926     0.029     2.606     2.525
    70   1 H        0.926     0.028     2.610     2.527
    71   1 H        0.926     0.031     2.568     2.506
    72   1 H        0.926     0.031     2.567     2.505
    73   1 H        0.926     0.028     2.612     2.527
    74   1 H        0.926     0.028     2.611     2.527
    75   1 H        0.926     0.025     2.654     2.548
    76   1 H        0.926     0.044     2.398     2.422
    77   1 H        0.926     0.027     2.624     2.533
    78   1 H        0.926     0.076     2.024     2.225
    79   1 H        0.926     0.085     1.929     2.172
    80   1 H        0.926     0.086     1.914     2.163
    81   1 H        0.926     0.082     1.957     2.187
    82   1 H        0.926     0.071     2.069     2.249
    83   1 H        0.926     0.072     2.069     2.249
    84   1 H        0.926     0.082     1.954     2.186
    85   1 H        0.926     0.033     2.550     2.497
    86   1 H        0.926     0.049     2.334     2.389
    87   1 H        0.926     0.026     2.641     2.541
    88   1 H        0.926     0.029     2.595     2.519
    89   1 H        0.926     0.028     2.611     2.527
    90   1 H        0.926     0.031     2.571     2.508
    91   1 H        0.926     0.031     2.571     2.508
    92   1 H        0.926     0.028     2.618     2.530
    93   1 H        0.926     0.028     2.612     2.527
    94   1 H        0.926     0.026     2.645     2.543
    95   1 H        0.926     0.048     2.350     2.397

molecular dipole:
                 x           y           z       tot (Debye)
 q only:        1.990       1.322      -0.511
   full:        2.011       1.000      -0.466       5.830

 projected vibrational frequencies (cm⁻¹)
eigval :       -0.00    -0.00     0.00     0.00     0.00     0.00
eigval :        9.01     9.66    12.88    15.30    18.05    21.64
eigval :       30.55    34.86    37.55    44.00    52.44    79.60
eigval :       82.87    88.70    97.35   102.84   105.78   110.09
eigval :      112.90   116.38   121.72   125.04   128.70   144.63
eigval :      146.25   167.19   168.57   178.61   179.64   186.35
eigval :      194.33   199.46   207.56   225.29   241.01   251.28
eigval :      265.20   271.65   271.82   276.38   284.04   292.40
eigval :      304.99   311.77   318.79   328.93   331.83   335.48
eigval :      352.16   354.41   367.61   378.80   390.24   395.34
eigval :      397.34   404.53   419.87   421.17   423.48   428.63
eigval :      434.52   436.05   442.45   454.43   459.17   466.67
eigval :      472.30   483.97   492.16   504.85   517.36   517.72
eigval :      518.24   526.24   527.25   530.17   541.34   541.36
eigval :      542.97   555.58   562.01   569.25   587.69   588.82
eigval :      591.92   599.86   624.21   626.92   637.80   638.61
eigval :      650.18   673.19   673.70   676.21   680.04   682.04
eigval :      684.65   686.78   691.54   702.48   708.40   708.91
eigval :      710.01   740.83   756.20   756.32   769.65   769.69
eigval :      780.78   781.00   781.04   800.75   824.52   828.18
eigval :      836.91   846.27   869.67   869.86   872.59   872.78
eigval :      892.27   893.49   894.35   898.47   899.82   899.89
eigval :      901.69   902.43   906.76   907.34   910.94   916.68
eigval :      918.67   922.57   923.37   923.50   924.94   927.11
eigval :      927.69   931.28   931.96   950.19   958.33   994.49
eigval :      995.41  1003.07  1012.55  1012.98  1015.29  1015.68
eigval :     1069.97  1070.01  1070.08  1073.43  1073.52  1080.36
eigval :     1095.29  1104.89  1119.95  1121.82  1125.36  1129.37
eigval :     1143.46  1147.09  1151.80  1151.97  1152.34  1160.59
eigval :     1161.24  1173.48  1175.31  1177.32  1177.77  1181.43
eigval :     1181.50  1189.73  1190.61  1196.05  1207.69  1212.74
eigval :     1230.49  1236.70  1236.93  1238.70  1247.02  1252.02
eigval :     1258.44  1265.22  1268.71  1273.41  1296.88  1299.89
eigval :     1303.07  1304.34  1306.27  1310.82  1315.03  1320.57
eigval :     1324.51  1329.98  1357.56  1357.67  1362.63  1363.09
eigval :     1372.93  1378.20  1389.99  1404.21  1406.97  1415.42
eigval :     1422.14  1422.64  1428.62  1428.64  1429.20  1437.29
eigval :     1443.43  1451.95  1476.62  1477.14  1480.71  1488.20
eigval :     1488.68  1488.84  1491.14  1498.88  1501.01  1503.06
eigval :     1544.95  1559.22  1563.07  1567.31  1572.13  1575.00
eigval :     1577.82  1583.75  1589.20  1589.51  1596.21  1599.24
eigval :     1599.45  1601.19  1615.15  1615.54  3028.33  3030.59
eigval :     3043.50  3046.18  3053.47  3057.32  3075.33  3075.59
eigval :     3075.92  3076.69  3080.93  3081.01  3082.12  3082.23
eigval :     3087.56  3087.71  3089.34  3089.65  3092.15  3094.87
eigval :     3095.13  3095.22  3096.15  3096.95  3097.05  3100.24
eigval :     3100.30  3101.33  3101.83  3104.36  3107.36  3108.48
eigval :     3109.64  3109.92  3111.83

   temp. (K)  partition function   enthalpy   heat capacity  entropy
                                   cal/mol     cal/K/mol   cal/K/mol   J/K/mol
 298.15  VIB  0.485E+23            29048.811    182.022    180.142
         ROT  0.215E+09              888.752      2.981     41.107
         INT  0.104E+32            29937.564    185.003    221.250
         TR   0.226E+29             1481.254      4.968     45.962
         TOT                       31418.8178   189.9713   267.2115  1118.0128

       T/K    H(0)-H(T)+PV         H(T)/Eh          T*S/Eh         G(T)/Eh
   ------------------------------------------------------------------------
    298.15    0.500691E-01    0.762070E+00    0.126961E+00    0.635109E+00
   ------------------------------------------------------------------------

         :::::::::::::::::::::::::::::::::::::::::::::::::::::
         ::                  THERMODYNAMIC                  ::
         :::::::::::::::::::::::::::::::::::::::::::::::::::::
         :: total free energy        -158.019457961543 Eh   ::
         ::.................................................::
         :: total energy             -158.654567092600 Eh   ::
         :: zero point energy           0.712000847758 Eh   ::
         :: G(RRHO) w/o ZPVE           -0.076891716701 Eh   ::
         :: G(RRHO) contrib.            0.635109131057 Eh   ::
         :::::::::::::::::::::::::::::::::::::::::::::::::::::

           -------------------------------------------------
          | TOTAL ENERGY             -158.654567092600 Eh   |
          | TOTAL ENTHALPY           -157.892497171724 Eh   |
          | TOTAL FREE ENERGY        -158.019457961543 Eh   |
          | GRADIENT NORM               0.000126488734 Eh/α |
          | HOMO-LUMO GAP               1.491145289646 eV   |
           -------------------------------------------------

 * finished run on 2025/07/17 at 22:22:42.301
