   * xtb version 6.7.1 (edcfbbe) compiled by 'albert@albert-system' on 2024-07-22

   ID    Z sym.   atoms
    1    6 C      1-6, 8-22, 24-29, 33-38, 42-45, 47-60
    2    7 N      7, 23, 46
    3   16 S      30, 39
    4    8 O      31, 32, 40, 41
    5    1 H      61-95

          program call               : xtb data2507/gas/2Cz-DMAC-TTR/2Cz-DMAC-TTR_gas_S0_crest.xyz --gfn 2 --ohess vtight --parallel 40 --molden --ceasefiles --namespace data2507/gas/2Cz-DMAC-TTR/2Cz-DMAC-TTR_gas_S0_finalOpt
          :  Hamiltonian                  GFN2-xTB          :
 * total energy  :  -158.6574091 Eh     change       -0.7344568E-08 Eh
 * total energy  :  -158.6574111 Eh     change       -0.2032559E-05 Eh
 * total energy  :  -158.6574134 Eh     change       -0.2287503E-05 Eh
 * total energy  :  -158.6574181 Eh     change       -0.4687485E-05 Eh
 * total energy  :  -158.6574206 Eh     change       -0.2522826E-05 Eh
 * total energy  :  -158.6574229 Eh     change       -0.2309154E-05 Eh
 * total energy  :  -158.6574263 Eh     change       -0.3396804E-05 Eh
 * total energy  :  -158.6574305 Eh     change       -0.4200117E-05 Eh
 * total energy  :  -158.6574344 Eh     change       -0.3864584E-05 Eh
 * total energy  :  -158.6574382 Eh     change       -0.3807710E-05 Eh
 * total energy  :  -158.6574473 Eh     change       -0.8101068E-06 Eh
 * total energy  :  -158.6574480 Eh     change       -0.7735266E-06 Eh
 * total energy  :  -158.6574487 Eh     change       -0.7252371E-06 Eh
 * total energy  :  -158.6574493 Eh     change       -0.5952700E-06 Eh
 * total energy  :  -158.6574500 Eh     change       -0.6314578E-06 Eh
 * total energy  :  -158.6574506 Eh     change       -0.5957708E-06 Eh
 * total energy  :  -158.6574512 Eh     change       -0.6154362E-06 Eh
 * total energy  :  -158.6574517 Eh     change       -0.5518998E-06 Eh
 * total energy  :  -158.6574518 Eh     change       -0.3126141E-07 Eh
   *** GEOMETRY OPTIMIZATION CONVERGED AFTER 22 ITERATIONS ***

 final structure:
================
95
 xtb: 6.7.1 (edcfbbe)
C           -0.81679307863094        0.02319705152166        2.60452866261693
C           -1.60014606805931        0.72688173705860        1.47779145397902
C           -2.65420173231767        1.62778924575760        2.12119671274860
C           -0.62508910831827        1.50401297249549        0.61036516075856
C           -0.48322928328598        2.87991294804319        0.64403091349750
C            0.42610963667689        3.52598376120453       -0.18996041918089
N            0.56119736967241        4.91575530375434       -0.12866046416879
C            1.75611189671175        5.60650060257210       -0.03363455564392
C            3.05200340396369        5.12194269942336        0.06957334936128
C            4.07607963111395        6.04297298710418        0.18252835955310
C            3.82498745919145        7.41308575446543        0.20220526839119
C            2.53538921826157        7.89951538564210        0.12531391798473
C            1.48917378690593        6.99344673659380        0.01110475906362
C            0.06226989346957        7.13930067701547       -0.06840643118069
C           -0.78452171470914        8.23940310587212       -0.09006931492759
C           -2.14391766628388        8.02622204880958       -0.20281862830196
C           -2.65941496431225        6.73691572032942       -0.31109022335465
C           -1.83669588995031        5.62668926079296       -0.29179087503670
C           -0.47198764788380        5.83316580646200       -0.15068108426653
C            1.18671576004201        2.78583260270118       -1.09030190903695
C            1.05754800363477        1.41304964977608       -1.12959611710535
C            0.18009185777410        0.77083986821418       -0.26516600499053
N            0.00691289951828       -0.63176328694424       -0.31131499104736
C            1.03963916570788       -1.51145235428003       -0.11959947388955
C            0.82347116690695       -2.89835312324319       -0.02159512727070
C            1.87316335220197       -3.77089071493146        0.17338951518572
C            3.16895012732418       -3.29557053547728        0.30265959762382
C            3.38680532776484       -1.93297486560532        0.25738501406499
C            2.35581729728650       -1.04792171002708        0.05200839142131
S            5.03951928725106       -1.27168971087179        0.46873588150852
O            5.07788777476245        0.02016261307004       -0.16958412041802
O            5.41848428148425       -1.33025662456916        1.84723399317601
C            6.07367109928335       -2.38400342320891       -0.49121192603984
C            7.09431975920220       -1.86378309361359       -1.26691632705570
C            7.90007383334370       -2.72191705551250       -1.99946232170546
C            7.67364614061156       -4.08999448229885       -1.96315271220071
C            6.64118843201328       -4.60417725067799       -1.19370964928641
C            5.84770996197253       -3.74461233765436       -0.45506998314346
S            4.53018405564068       -4.41695680609104        0.56836278231914
O            4.94151188584794       -4.37453114731331        1.93922111439532
O            4.16508846024002       -5.70002094138949        0.02588095117864
C           -1.35428858015636       -1.00684441075723       -0.29871111053855
C           -1.85201827428582       -1.94457777383181       -1.19443065484596
C           -3.19319609608176       -2.27158312136520       -1.18448808770578
C           -4.05323756015849       -1.62800300515590       -0.30040987258536
N           -5.41333022260749       -1.95145544067143       -0.26826665985542
C           -6.14165991043058       -2.24630526849942        0.86922516428344
C           -5.72242136237269       -2.33842291344953        2.18848559220187
C           -6.66189140515317       -2.68242197616822        3.14175010850323
C           -7.98699840434543       -2.93887582093196        2.79757170202157
C           -8.40410449095722       -2.87408865170115        1.48314832637188
C           -7.47787167105485       -2.53042130769015        0.50736844886082
C           -7.55269086314472       -2.39306461206469       -0.92059585534975
C           -8.58589013863277       -2.52566269213454       -1.83869436756500
C           -8.31819660275108       -2.29523863736901       -3.17326286834540
C           -7.04417228231281       -1.92062593806381       -3.59358712614263
C           -6.00014972537786       -1.78229767294080       -2.69877458789945
C           -6.25682617949699       -2.03865546867198       -1.35980832949809
C           -3.55893558757537       -0.64543300507277        0.55444325719505
C           -2.21280514933181       -0.32792030215255        0.57270319240800
H           -0.33515718577438        0.76609515666920        3.23605771211913
H           -0.04979335684428       -0.64005278399366        2.21444055933932
H           -1.49860263304780       -0.56416317080236        3.21578719898716
H           -3.23491356700537        2.15322543468635        1.36640534490595
H           -2.17789849749633        2.35598251074433        2.77219037464152
H           -3.32700391958697        1.03841983573296        2.73880654090377
H           -1.05823505692628        3.47758600053483        1.33148781058601
H            3.26000682652947        4.06278192115222        0.07459914235445
H            5.09347536218962        5.69022689653675        0.26136285500425
H            4.65331214669443        8.10032026368800        0.28887788799931
H            2.33829318203966        8.96040937279195        0.15756990223634
H           -0.38283423659889        9.23920811551068       -0.02498045173185
H           -2.82013243339385        8.86786244860782       -0.21879652400360
H           -3.72575605380354        6.60134456763144       -0.41689621844801
H           -2.24590182389375        4.63336392855282       -0.39981484633454
H            1.85802559337427        3.28873435960667       -1.76820068766508
H            1.62405810674185        0.83736249284049       -1.84507224072207
H           -0.17912843051816       -3.29026153967184       -0.07303183578591
H            1.70944594410572       -4.83518088133080        0.23117512404929
H            2.59521821276989        0.00213908460802        0.05090653971957
H            7.23301862511286       -0.79419818859438       -1.28321014301198
H            8.70329752767524       -2.32252668963242       -2.59968410058203
H            8.30041681298790       -4.75697738818639       -2.53517056780472
H            6.42864604183283       -5.66092626495952       -1.15239322493824
H           -1.18705521192976       -2.41155609205892       -1.90474537100094
H           -3.57548891360548       -3.02487193545412       -1.85535273175512
H           -4.69308823171015       -2.16311891528658        2.46341257972137
H           -6.36061481744611       -2.75844682819866        4.17609893800417
H           -8.69160014070247       -3.20191303659346        3.57219106108812
H           -9.42676937441251       -3.09016064870648        1.21371101194323
H           -9.57704752308828       -2.79909607357321       -1.51004681146463
H           -9.10651242073029       -2.39584772292054       -3.90414475571113
H           -6.86869171583608       -1.73009200980331       -4.64207459964623
H           -5.02168888974608       -1.47178201739408       -3.03311855601160
H           -4.25698528956937       -0.13133632951554        1.19402193632478

          :  Hamiltonian                  GFN2-xTB          :
         :: gradient norm              0.000131010850 Eh/a0 ::
         :: HOMO-LUMO gap              2.140364643672 eV    ::
         :: SCC energy              -161.302414160582 Eh    ::
         :: -> dispersion             -0.147783165180 Eh    ::
         :: repulsion energy           2.644962390382 Eh    ::

    * Orbital Energies and Occupations

         #    Occupation            Energy/Eh            Energy/eV
      -------------------------------------------------------------
         1        2.0000           -0.7840786             -21.3359
       ...           ...                  ...                  ...
       133        2.0000           -0.4234595             -11.5229
       134        2.0000           -0.4216883             -11.4747
       135        2.0000           -0.4204205             -11.4402
       136        2.0000           -0.4180996             -11.3771
       137        2.0000           -0.4174753             -11.3601
       138        2.0000           -0.4106554             -11.1745
       139        2.0000           -0.4081871             -11.1073
       140        2.0000           -0.4063726             -11.0580
       141        2.0000           -0.3859981             -10.5035
       142        2.0000           -0.3840875             -10.4516
       143        2.0000           -0.3797466             -10.3334
       144        2.0000           -0.3688812             -10.0378
       145        2.0000           -0.3639103              -9.9025 (HOMO)
       146                         -0.2852533              -7.7621 (LUMO)
       147                         -0.2709079              -7.3718
       148                         -0.2681121              -7.2957
       149                         -0.2627507              -7.1498
       150                         -0.2527305              -6.8771
       151                         -0.2513178              -6.8387
       152                         -0.2483036              -6.7567
       153                         -0.2440593              -6.6412
       154                         -0.2427236              -6.6048
       155                         -0.2380403              -6.4774
       156                         -0.2273110              -6.1854
       ...                                ...                  ...
       285                          1.2478986              33.9571
      -------------------------------------------------------------
                  HL-Gap            0.0786570 Eh            2.1404 eV

     #   Z          covCN         q      C6AA      α(0)
     1   6 C        3.762    -0.102    22.492     6.761
     2   6 C        3.911     0.024    20.107     6.373
     3   6 C        3.759    -0.109    22.638     6.783
     4   6 C        2.986    -0.003    28.092     8.694
     5   6 C        2.926    -0.052    29.304     8.877
     6   6 C        2.912     0.063    26.596     8.457
     7   7 N        2.803    -0.042    22.056     6.975
     8   6 C        3.073     0.046    26.900     8.504
     9   6 C        2.910    -0.051    29.260     8.870
    10   6 C        2.924    -0.032    28.799     8.801
    11   6 C        2.920    -0.040    28.992     8.830
    12   6 C        2.913    -0.033    28.818     8.803
    13   6 C        3.068    -0.017    28.352     8.731
    14   6 C        3.068    -0.016    28.338     8.729
    15   6 C        2.913    -0.033    28.811     8.802
    16   6 C        2.920    -0.041    29.011     8.833
    17   6 C        2.924    -0.034    28.845     8.808
    18   6 C        2.910    -0.052    29.292     8.875
    19   6 C        3.072     0.045    26.909     8.505
    20   6 C        2.923    -0.045    29.108     8.848
    21   6 C        2.919    -0.045    29.108     8.847
    22   6 C        2.950     0.047    26.953     8.515
    23   7 N        2.754    -0.055    22.299     7.013
    24   6 C        2.912     0.079    26.234     8.399
    25   6 C        2.923    -0.054    29.351     8.884
    26   6 C        2.953    -0.020    28.507     8.757
    27   6 C        3.000    -0.100    30.517     9.062
    28   6 C        3.005    -0.082    30.039     8.991
    29   6 C        2.972    -0.053    29.324     8.883
    30  16 S        3.851     0.977   107.302    17.434
    31   8 O        0.860    -0.542    24.732     6.668
    32   8 O        0.860    -0.524    24.317     6.612
    33   6 C        3.001    -0.080    29.983     8.982
    34   6 C        2.957    -0.018    28.468     8.751
    35   6 C        2.920    -0.019    28.480     8.751
    36   6 C        2.920    -0.019    28.472     8.750
    37   6 C        2.956    -0.018    28.462     8.750
    38   6 C        3.002    -0.080    29.977     8.981
    39  16 S        3.838     0.972   107.445    17.446
    40   8 O        0.860    -0.527    24.384     6.621
    41   8 O        0.860    -0.538    24.632     6.654
    42   6 C        2.948     0.048    26.918     8.509
    43   6 C        2.919    -0.047    29.163     8.856
    44   6 C        2.922    -0.047    29.169     8.857
    45   6 C        2.912     0.062    26.620     8.460
    46   7 N        2.803    -0.043    22.067     6.977
    47   6 C        3.074     0.046    26.901     8.504
    48   6 C        2.910    -0.052    29.282     8.873
    49   6 C        2.924    -0.033    28.827     8.805
    50   6 C        2.920    -0.040    28.996     8.830
    51   6 C        2.913    -0.032    28.802     8.800
    52   6 C        3.067    -0.016    28.340     8.729
    53   6 C        3.068    -0.016    28.340     8.729
    54   6 C        2.913    -0.032    28.804     8.801
    55   6 C        2.920    -0.040    28.996     8.830
    56   6 C        2.924    -0.033    28.822     8.804
    57   6 C        2.910    -0.052    29.279     8.873
    58   6 C        3.073     0.046    26.899     8.504
    59   6 C        2.926    -0.052    29.294     8.876
    60   6 C        2.986    -0.003    28.083     8.693
    61   1 H        0.925     0.046     2.364     2.405
    62   1 H        0.925     0.036     2.505     2.475
    63   1 H        0.925     0.044     2.399     2.422
    64   1 H        0.925     0.041     2.436     2.441
    65   1 H        0.925     0.047     2.361     2.403
    66   1 H        0.925     0.045     2.379     2.412
    67   1 H        0.926     0.056     2.247     2.344
    68   1 H        0.926     0.033     2.547     2.496
    69   1 H        0.926     0.034     2.529     2.487
    70   1 H        0.926     0.030     2.587     2.515
    71   1 H        0.926     0.032     2.560     2.502
    72   1 H        0.926     0.032     2.552     2.498
    73   1 H        0.926     0.029     2.601     2.522
    74   1 H        0.926     0.029     2.605     2.524
    75   1 H        0.926     0.025     2.665     2.553
    76   1 H        0.926     0.053     2.282     2.362
    77   1 H        0.926     0.048     2.351     2.398
    78   1 H        0.926     0.064     2.153     2.294
    79   1 H        0.926     0.075     2.035     2.231
    80   1 H        0.926     0.075     2.027     2.227
    81   1 H        0.926     0.079     1.991     2.207
    82   1 H        0.926     0.068     2.112     2.273
    83   1 H        0.926     0.068     2.110     2.272
    84   1 H        0.926     0.080     1.979     2.200
    85   1 H        0.926     0.046     2.372     2.408
    86   1 H        0.926     0.050     2.321     2.383
    87   1 H        0.926     0.025     2.654     2.547
    88   1 H        0.926     0.031     2.578     2.511
    89   1 H        0.926     0.030     2.582     2.513
    90   1 H        0.926     0.033     2.545     2.495
    91   1 H        0.926     0.033     2.545     2.495
    92   1 H        0.926     0.030     2.586     2.515
    93   1 H        0.926     0.030     2.582     2.513
    94   1 H        0.926     0.026     2.640     2.541
    95   1 H        0.926     0.056     2.247     2.344

molecular dipole:
                 x           y           z       tot (Debye)
 q only:       -1.531       0.724      -2.210
   full:       -1.275       0.536      -2.155       6.509

 projected vibrational frequencies (cm⁻¹)
eigval :       -0.00    -0.00    -0.00     0.00     0.00     0.00
eigval :        9.99    12.14    13.18    15.06    20.23    21.63
eigval :       28.62    40.05    44.59    50.37    58.98    76.43
eigval :       79.88    88.86    98.69   102.80   107.62   108.48
eigval :      115.91   133.88   136.03   137.84   148.11   150.43
eigval :      162.84   167.67   175.93   177.49   188.18   190.17
eigval :      209.25   214.28   231.13   246.08   254.87   256.81
eigval :      269.66   271.55   273.04   281.24   287.18   289.03
eigval :      301.25   316.11   320.69   323.94   335.48   348.33
eigval :      362.93   368.68   375.00   386.30   392.63   394.61
eigval :      404.58   408.12   418.55   421.86   423.97   432.78
eigval :      434.41   437.27   440.35   451.25   455.39   470.41
eigval :      478.85   491.38   505.57   506.68   515.21   517.15
eigval :      518.36   524.27   530.05   531.97   540.68   541.32
eigval :      541.63   557.28   564.48   569.91   576.04   588.62
eigval :      591.38   596.06   619.07   632.36   633.85   645.79
eigval :      650.07   659.62   673.20   673.81   677.24   679.18
eigval :      685.73   688.76   704.16   708.42   708.84   710.60
eigval :      721.49   745.17   756.16   756.61   769.89   770.60
eigval :      780.23   781.27   781.88   796.89   815.46   831.38
eigval :      837.92   847.17   866.44   868.36   871.66   876.34
eigval :      879.93   890.75   893.17   894.00   898.27   898.70
eigval :      903.10   904.12   905.58   905.96   907.76   912.64
eigval :      921.75   923.09   923.45   923.90   924.40   930.65
eigval :      934.62   937.50   939.66   952.85   966.68   991.29
eigval :      994.35  1001.72  1010.93  1011.31  1013.04  1014.65
eigval :     1070.22  1070.75  1071.11  1074.01  1074.38  1078.39
eigval :     1088.18  1106.84  1116.60  1119.80  1121.56  1139.83
eigval :     1143.67  1146.09  1150.65  1151.76  1153.56  1154.80
eigval :     1169.18  1173.75  1175.41  1175.96  1178.80  1181.08
eigval :     1181.30  1187.14  1187.52  1205.78  1212.77  1219.01
eigval :     1224.17  1234.15  1235.19  1236.67  1237.32  1244.25
eigval :     1251.03  1255.81  1260.93  1272.98  1283.09  1300.64
eigval :     1301.96  1302.06  1302.38  1314.40  1315.27  1323.57
eigval :     1330.13  1344.27  1356.97  1357.31  1361.21  1361.88
eigval :     1373.34  1374.98  1401.46  1404.06  1408.22  1415.97
eigval :     1422.60  1423.72  1427.61  1428.51  1430.12  1436.99
eigval :     1441.19  1465.94  1474.12  1476.13  1476.73  1485.35
eigval :     1487.66  1487.85  1490.93  1494.76  1505.53  1524.36
eigval :     1538.47  1559.65  1564.84  1567.95  1575.69  1576.22
eigval :     1578.48  1584.86  1588.50  1589.31  1589.72  1597.20
eigval :     1599.38  1599.73  1614.46  1615.03  3031.11  3034.72
eigval :     3036.33  3038.16  3051.85  3055.34  3075.87  3077.05
eigval :     3077.69  3079.54  3081.91  3082.42  3083.46  3084.95
eigval :     3088.62  3088.89  3090.01  3090.64  3091.82  3092.44
eigval :     3095.75  3096.66  3096.87  3098.51  3098.55  3099.15
eigval :     3106.24  3107.05  3107.81  3109.01  3109.58  3117.68
eigval :     3121.91  3122.61  3124.84

   temp. (K)  partition function   enthalpy   heat capacity  entropy
                                   cal/mol     cal/K/mol   cal/K/mol   J/K/mol
 298.15  VIB  0.886E+22            28745.551    182.062    177.134
         ROT  0.207E+09              888.752      2.981     41.033
         INT  0.183E+31            29634.304    185.043    218.167
         TR   0.226E+29             1481.254      4.968     45.962
         TOT                       31115.5578   190.0110   264.1284  1105.1133

       T/K    H(0)-H(T)+PV         H(T)/Eh          T*S/Eh         G(T)/Eh
   ------------------------------------------------------------------------
    298.15    0.495858E-01    0.762478E+00    0.125496E+00    0.636983E+00
   ------------------------------------------------------------------------

         :::::::::::::::::::::::::::::::::::::::::::::::::::::
         ::                  THERMODYNAMIC                  ::
         :::::::::::::::::::::::::::::::::::::::::::::::::::::
         :: total free energy        -158.020469249286 Eh   ::
         ::.................................................::
         :: total energy             -158.657451770193 Eh   ::
         :: zero point energy           0.712892655957 Eh   ::
         :: G(RRHO) w/o ZPVE           -0.075910135050 Eh   ::
         :: G(RRHO) contrib.            0.636982520907 Eh   ::
         :::::::::::::::::::::::::::::::::::::::::::::::::::::

           -------------------------------------------------
          | TOTAL ENERGY             -158.657451770193 Eh   |
          | TOTAL ENTHALPY           -157.894973316669 Eh   |
          | TOTAL FREE ENERGY        -158.020469249286 Eh   |
          | GRADIENT NORM               0.000130965255 Eh/α |
          | HOMO-LUMO GAP               2.140366173345 eV   |
           -------------------------------------------------

 * finished run on 2025/07/17 at 22:29:14.929
