   * xtb version 6.7.1 (edcfbbe) compiled by 'albert@albert-system' on 2024-07-22

   ID    Z sym.   atoms
    1    6 C      1-6, 8-22, 24-29, 33-38, 42-45, 47-60
    2    7 N      7, 23, 46
    3   16 S      30, 39
    4    8 O      31, 32, 40, 41
    5    1 H      61-95

          program call               : xtb data2507/gas/2Cz-DMAC-TTR/2Cz-DMAC-TTR_gas_S0_finalOpt.xtbopt.xyz --gfn 2 --spinpol --tblite --uhf 2 --ohess vtight --parallel 40 --molden --ceasefiles --namespace data2507/gas/2Cz-DMAC-TTR/2Cz-DMAC-TTR_gas_T1_preOpt
 * total energy  :  -158.5571341 Eh     change        0.6328662E-08 Eh
 * total energy  :  -158.5599058 Eh     change       -0.2771736E-02 Eh
 * total energy  :  -158.5609208 Eh     change       -0.1015050E-02 Eh
 * total energy  :  -158.5611102 Eh     change       -0.1893519E-03 Eh
 * total energy  :  -158.5612602 Eh     change       -0.1499986E-03 Eh
 * total energy  :  -158.5613233 Eh     change       -0.6315196E-04 Eh
 * total energy  :  -158.5613891 Eh     change       -0.6576120E-04 Eh
 * total energy  :  -158.5614386 Eh     change       -0.4947212E-04 Eh
 * total energy  :  -158.5614798 Eh     change       -0.4120793E-04 Eh
 * total energy  :  -158.5615159 Eh     change       -0.3609458E-04 Eh
 * total energy  :  -158.5621354 Eh     change       -0.6096339E-06 Eh
 * total energy  :  -158.5621361 Eh     change       -0.6144369E-06 Eh
 * total energy  :  -158.5621366 Eh     change       -0.5758791E-06 Eh
 * total energy  :  -158.5621372 Eh     change       -0.5747673E-06 Eh
 * total energy  :  -158.5621377 Eh     change       -0.5233724E-06 Eh
 * total energy  :  -158.5621383 Eh     change       -0.5178753E-06 Eh
 * total energy  :  -158.5621386 Eh     change       -0.3752664E-06 Eh
 * total energy  :  -158.5621391 Eh     change       -0.5202384E-06 Eh
 * total energy  :  -158.5621392 Eh     change       -0.4884475E-07 Eh
   *** GEOMETRY OPTIMIZATION CONVERGED AFTER 94 ITERATIONS ***

 final structure:
================
95
 xtb: 6.7.1 (edcfbbe)
C           -1.01629478343218        0.17848769566271        2.77944463786066
C           -1.72591554611478        0.80640388074403        1.56099726653685
C           -2.82197197732486        1.73955007459980        2.07586715595888
C           -0.70077430049568        1.52909217813170        0.71059943365696
C           -0.54341271728070        2.89394988351809        0.67506432432481
C            0.45633652511115        3.49029162375662       -0.10856748577084
N            0.62930233866155        4.86688675843148       -0.09621981668321
C            1.84761479704639        5.52144683025623       -0.01111083493600
C            3.12407863606939        4.99834546621201        0.14254003343582
C            4.17816492337447        5.88948248098519        0.23635233134625
C            3.97276048009492        7.26612116297931        0.19227176418744
C            2.69950437251678        7.79315385568796        0.07396084518670
C            1.62680726490091        6.91902238782683       -0.02216979702874
C            0.20546761301869        7.10970427578307       -0.12307354027412
C           -0.60107941732811        8.23561482530638       -0.19602888436869
C           -1.96726104969007        8.06446055560069       -0.32435242247248
C           -2.52554582941085        6.79119325096475       -0.40303120398588
C           -1.74076676584669        5.65414470538927       -0.33250489880870
C           -0.37290020298333        5.81830357064475       -0.16610825850184
C            1.27570012874078        2.68036029670188       -0.91093500891004
C            1.13715533380748        1.31895902905193       -0.87934728100174
C            0.17995405394091        0.72059082743639       -0.04374760278185
N            0.00923933119188       -0.65993704264292       -0.00711770792494
C            1.06298198468217       -1.53958941655292        0.11643363046711
C            0.85612712439576       -2.96138620310170        0.15980375908193
C            1.92314378898725       -3.81173862819239        0.27458497884078
C            3.22384721032512       -3.32646251626337        0.41076555142126
C            3.42373637537538       -1.93011659129057        0.45674769318546
C            2.37144853899339       -1.06593326810630        0.31268247708209
S            5.06164756901596       -1.26719716558383        0.63234874262327
O            5.02531479825209        0.09048948540679        0.13048318487996
O            5.56512576202983       -1.43857932825201        1.96311009112156
C            5.97888255025767       -2.25979714039358       -0.53415471271594
C            6.83867059505949       -1.65300603351038       -1.43435004257771
C            7.51376334887937       -2.42160239793236       -2.36569494403200
C            7.30832959580899       -3.79906059129850       -2.41346409898149
C            6.43050256154305       -4.39974432114379       -1.52943673326241
C            5.77415231551608       -3.63230255841920       -0.58088820062078
S            4.61730871437213       -4.40149534897812        0.54377664265041
O            5.15136506256471       -4.39374469217811        1.87531436333733
O            4.24643946472641       -5.68578130108086       -0.00249489358677
C           -1.33498208382630       -1.03821538672503       -0.07656732238572
C           -1.77757860578058       -2.01826593794554       -0.97405427617135
C           -3.11187241352771       -2.33623560874870       -1.05468049344371
C           -4.03747797200375       -1.67328023975608       -0.24219652079602
N           -5.38883937437227       -2.00892174351806       -0.27533736026548
C           -6.18675881686549       -2.22722039472829        0.83356904127133
C           -5.84726443396328       -2.23275013831648        2.17904738629879
C           -6.84225656486872       -2.51877922761591        3.09536364495015
C           -8.14392928094381       -2.80295713283278        2.68888100397096
C           -8.48127673967040       -2.82846909934114        1.34893333910276
C           -7.49868747181245       -2.54522410046802        0.41091785063173
C           -7.48487417402493       -2.51005990360709       -1.02556396812015
C           -8.45936942789334       -2.71077406604196       -1.99268441700170
C           -8.11131941747168       -2.56697716188464       -3.32234069988985
C           -6.81608119778624       -2.20952135420596       -3.68951765421504
C           -5.82829256869557       -2.00579931997398       -2.74374714360539
C           -6.16363139682310       -2.17833756036658       -1.40840583749957
C           -3.60101168141287       -0.64326959862161        0.60238078205951
C           -2.27038020997034       -0.30512386931792        0.68489785015308
H           -0.58386790746467        0.96227626553076        3.39693235738898
H           -0.22056887113380       -0.49779765948586        2.47970997125286
H           -1.73417531559282       -0.37977285560990        3.37623228332818
H           -3.35410615009026        2.21024885929048        1.25219432448139
H           -2.39116699416366        2.51158305544964        2.70764411719081
H           -3.53143803194301        1.18623638361059        2.68548690132257
H           -1.15061606850144        3.53344106875209        1.29353726237939
H            3.29872716596761        3.93561212774574        0.20519050077172
H            5.17990574363911        5.50566215575484        0.35269999816704
H            4.82126060636510        7.92942144136552        0.26560291759432
H            2.53888532039387        8.86032608236415        0.06277638396595
H           -0.16697393415139        9.22291720294875       -0.15968491889283
H           -2.61255312650149        8.92808969643643       -0.37954043139589
H           -3.59290903838406        6.68821832574709       -0.52840102312576
H           -2.18296400460108        4.67425613831392       -0.42612792181245
H            1.98670977705357        3.13906385984296       -1.57913659633932
H            1.73106376634820        0.69849551603073       -1.53160886288182
H           -0.14366127526155       -3.35943995798441        0.15035510369149
H            1.78463537550553       -4.88145903161341        0.28747618846033
H            2.59202668924971       -0.01442653714612        0.39503326044964
H            6.95820727357825       -0.58208620385558       -1.38170402866555
H            8.19762492631688       -1.95414093059903       -3.05760364275712
H            7.83372790245815       -4.39708815975081       -3.14232649803194
H            6.23434997924877       -5.46041171078855       -1.54871185466222
H           -1.06771524308683       -2.50139389510347       -1.62656058733877
H           -3.44536187299952       -3.11129623205503       -1.72647783592437
H           -4.83618094726273       -2.03895656531431        2.50336403642897
H           -6.60331395391775       -2.52794209077134        4.14820885304726
H           -8.89404264645245       -3.01858182406501        3.43463561074958
H           -9.48486799969930       -3.06997801125296        1.03395533364187
H           -9.46801459204190       -2.96795482719412       -1.70759811436495
H           -8.85384404066237       -2.72164999180012       -4.09051537559054
H           -6.57861216246032       -2.08442084594163       -4.73528228914159
H           -4.83414815920225       -1.70733450848885       -3.03927760000264
H           -4.34356659029762       -0.10546697925945        1.16816775652587

 projected vibrational frequencies (cm⁻¹)
eigval :       -0.00    -0.00    -0.00    -0.00     0.00     0.00
eigval :        8.85    11.18    12.69    15.55    20.73    23.15
eigval :       28.32    41.14    44.55    50.85    60.73    81.01
eigval :       84.54    90.79    98.04   102.77   108.47   109.77
eigval :      118.47   130.16   134.19   137.13   147.28   151.62
eigval :      163.52   171.22   177.54   179.15   192.73   193.54
eigval :      206.99   216.39   231.80   241.48   255.39   258.30
eigval :      268.88   270.47   273.48   278.97   287.16   289.38
eigval :      300.96   314.19   319.87   323.84   333.37   340.33
eigval :      346.44   363.97   368.31   379.93   386.18   390.96
eigval :      392.92   401.45   408.55   418.82   420.94   422.68
eigval :      431.48   434.20   437.27   438.28   454.74   461.69
eigval :      471.69   486.91   495.72   499.43   504.94   513.24
eigval :      515.62   517.45   519.75   525.40   534.24   535.88
eigval :      537.23   541.87   544.40   562.98   573.33   585.25
eigval :      588.16   588.87   603.12   610.26   622.08   626.42
eigval :      633.91   644.12   659.44   668.16   670.65   671.88
eigval :      672.85   673.80   691.90   703.06   707.26   707.61
eigval :      707.97   736.12   753.85   754.79   761.70   768.86
eigval :      769.36   770.57   778.54   778.64   792.20   819.01
eigval :      829.21   839.46   856.72   864.36   866.15   873.79
eigval :      873.86   878.93   884.38   885.82   889.78   896.22
eigval :      896.76   897.23   904.37   906.04   906.54   908.32
eigval :      913.96   918.00   918.94   920.77   921.44   922.61
eigval :      923.55   932.06   933.37   935.03   963.14   976.47
eigval :      977.68   991.20  1004.18  1008.88  1011.03  1012.21
eigval :     1064.44  1064.97  1069.23  1069.85  1069.95  1072.39
eigval :     1077.20  1085.88  1095.14  1102.78  1110.44  1117.16
eigval :     1126.19  1132.71  1145.32  1147.00  1147.53  1152.41
eigval :     1162.39  1168.89  1171.48  1172.64  1173.85  1177.70
eigval :     1179.12  1181.26  1185.40  1189.25  1198.58  1200.75
eigval :     1212.98  1226.56  1228.39  1230.16  1231.14  1232.67
eigval :     1241.71  1244.90  1248.04  1256.12  1264.95  1280.95
eigval :     1287.53  1287.62  1292.62  1294.96  1322.10  1324.96
eigval :     1328.26  1330.39  1333.30  1343.75  1347.02  1351.42
eigval :     1359.18  1361.58  1364.72  1389.73  1399.82  1401.64
eigval :     1403.27  1407.14  1411.95  1412.96  1413.68  1417.65
eigval :     1418.04  1426.18  1428.32  1442.31  1445.19  1453.31
eigval :     1461.07  1466.77  1470.08  1480.44  1482.83  1483.17
eigval :     1487.92  1491.21  1494.91  1503.81  1520.57  1522.79
eigval :     1544.28  1562.10  1565.95  1567.35  1574.94  1578.32
eigval :     1580.86  1584.56  1588.71  1593.39  3032.48  3034.06
eigval :     3037.02  3038.40  3052.32  3054.85  3082.13  3082.48
eigval :     3082.89  3085.72  3086.08  3086.51  3087.75  3088.38
eigval :     3093.06  3093.30  3094.90  3094.99  3095.39  3097.91
eigval :     3098.23  3099.26  3100.10  3101.01  3101.70  3102.60
eigval :     3104.56  3106.04  3106.51  3109.32  3111.52  3114.57
eigval :     3119.82  3121.60  3124.83

   temp. (K)  partition function   enthalpy   heat capacity  entropy
                                   cal/mol     cal/K/mol   cal/K/mol   J/K/mol
 298.15  VIB  0.105E+23            29004.128    184.296    178.400
         ROT  0.205E+09              888.752      2.981     41.015
         INT  0.216E+31            29892.880    187.277    219.415
         TR   0.226E+29             1481.254      4.968     45.962
         TOT                       31374.1339   192.2448   265.3768  1110.3365

       T/K    H(0)-H(T)+PV         H(T)/Eh          T*S/Eh         G(T)/Eh
   ------------------------------------------------------------------------
    298.15    0.499979E-01    0.757465E+00    0.126089E+00    0.631376E+00
   ------------------------------------------------------------------------

         :::::::::::::::::::::::::::::::::::::::::::::::::::::
         ::                  THERMODYNAMIC                  ::
         :::::::::::::::::::::::::::::::::::::::::::::::::::::
         :: total free energy        -157.930763600916 Eh   ::
         ::.................................................::
         :: total energy             -158.562139202434 Eh   ::
         :: zero point energy           0.707466811811 Eh   ::
         :: G(RRHO) w/o ZPVE           -0.076091210293 Eh   ::
         :: G(RRHO) contrib.            0.631375601518 Eh   ::
         :::::::::::::::::::::::::::::::::::::::::::::::::::::

           -------------------------------------------------
          | TOTAL ENERGY             -158.562139202434 Eh   |
          | TOTAL ENTHALPY           -157.804674525789 Eh   |
          | TOTAL FREE ENERGY        -157.930763600916 Eh   |
          | GRADIENT NORM               0.000074343109 Eh/α |
           -------------------------------------------------

 * finished run on 2025/07/17 at 22:29:40.062
