   * xtb version 6.7.1 (edcfbbe) compiled by 'albert@albert-system' on 2024-07-22

   ID    Z sym.   atoms
    1    6 C      1-6, 8-22, 24-29, 33-38, 42-45, 47-60
    2    7 N      7, 23, 46
    3   16 S      30, 39
    4    8 O      31, 32, 40, 41
    5    1 H      61-95

          program call               : xtb data2507/gas/2Cz-DMAC-TTR/2Cz-DMAC-TTR_gas_T1_crest.xyz --gfn 2 --spinpol --tblite --uhf 2 --ohess vtight --parallel 40 --molden --ceasefiles --namespace data2507/gas/2Cz-DMAC-TTR/2Cz-DMAC-TTR_gas_T1_finalOpt
 * total energy  :  -158.5711548 Eh     change        0.1042156E-07 Eh
 * total energy  :  -158.5711601 Eh     change       -0.5289628E-05 Eh
 * total energy  :  -158.5711635 Eh     change       -0.3376337E-05 Eh
 * total energy  :  -158.5711652 Eh     change       -0.1665667E-05 Eh
 * total energy  :  -158.5711668 Eh     change       -0.1606758E-05 Eh
 * total energy  :  -158.5711686 Eh     change       -0.1826670E-05 Eh
 * total energy  :  -158.5711719 Eh     change       -0.3312328E-05 Eh
 * total energy  :  -158.5711732 Eh     change       -0.1322074E-05 Eh
 * total energy  :  -158.5711745 Eh     change       -0.1298578E-05 Eh
 * total energy  :  -158.5711767 Eh     change       -0.2149775E-05 Eh
 * total energy  :  -158.5711916 Eh     change       -0.3002939E-06 Eh
 * total energy  :  -158.5711912 Eh     change        0.4448805E-06 Eh
 * total energy  :  -158.5711915 Eh     change       -0.2592427E-06 Eh
 * total energy  :  -158.5711917 Eh     change       -0.2460305E-06 Eh
 * total energy  :  -158.5711914 Eh     change        0.2759193E-06 Eh
 * total energy  :  -158.5711917 Eh     change       -0.2263573E-06 Eh
 * total energy  :  -158.5711916 Eh     change        0.2987093E-07 Eh
 * total energy  :  -158.5711916 Eh     change        0.1397723E-07 Eh
 * total energy  :  -158.5711917 Eh     change       -0.6153294E-07 Eh
   *** GEOMETRY OPTIMIZATION CONVERGED AFTER 46 ITERATIONS ***

 final structure:
================
95
 xtb: 6.7.1 (edcfbbe)
C           -0.50099048424364       -3.19417723673187        1.72640231759225
C           -0.44156314851075       -2.76663706848317        0.24740395023964
C           -0.64013308204706       -3.99044426777855       -0.66712338980469
C           -1.55704516472814       -1.77963911737454       -0.02040087207365
C           -2.86693369547114       -2.16879154626455        0.14667208538973
C           -3.93988028397191       -1.29961248142585       -0.08665187447827
N           -5.24351739226673       -1.72894828753200        0.09868577731616
C           -6.24888513025686       -1.01718901693065        0.73517889506373
C           -6.19386612794199        0.21396024782520        1.37204709193944
C           -7.35011951333860        0.68447056031956        1.96886352952258
C           -8.53079464472739       -0.05374225821152        1.94745383203652
C           -8.58239526289916       -1.29707374204779        1.34496025907484
C           -7.43499199548691       -1.78869106851090        0.73919364682737
C           -7.12767955437449       -3.01966851720483        0.06436338742073
C           -7.87838057175038       -4.14049592577703       -0.25994753618072
C           -7.27272525556496       -5.16059742164429       -0.96959442336351
C           -5.94451833744301       -5.06012441225314       -1.37602219072953
C           -5.17685871163102       -3.95241087206595       -1.06282225184599
C           -5.76644979046092       -2.94313498298378       -0.31578802644696
C           -3.66731593400551        0.00817577560853       -0.52761822978585
C           -2.37517139583334        0.41434660376712       -0.70086085390937
C           -1.29165668693242       -0.45023696409280       -0.42988614484608
N           -0.00699247883684        0.00275777260451       -0.57048029704795
C            0.19577344427969        1.38143147557803       -0.85953554761905
C            0.59554132643311        1.78420980464964       -2.15898704035588
C            0.74495563774831        3.12519531187578       -2.43080045704611
C            0.47912209010043        4.07880599757636       -1.45730262491048
C            0.09992612214266        3.67055467109849       -0.16451447410891
C           -0.02467830245727        2.32791758116072        0.12800269561523
S           -0.12643125715467        4.87614547714123        1.11900091146708
O           -1.34291810361819        5.60976622795853        0.92491558076578
O            0.01374559164783        4.18856270524211        2.38347870539528
C            1.30214548203022        5.91885669274598        0.89443013370595
C            2.09294319691401        6.25374415125168        1.98150192853264
C            3.23191025766058        7.01517283674435        1.79391097071287
C            3.59777310725458        7.41987893384416        0.51042723222668
C            2.82205937572352        7.06081806153358       -0.57646043998293
C            1.66626367875122        6.32119387161504       -0.38457876070782
S            0.69110412520548        5.80521786647048       -1.78765528057635
O            1.50743573058828        5.93423800261826       -2.97225931551616
O           -0.57228911712628        6.48397466238101       -1.79628884097778
C            1.08089758442512       -0.80996928827163       -0.38617543410577
C            2.38215070305158       -0.28680051506149       -0.53700879614963
C            3.48818294169530       -1.07388841895955       -0.37344311482452
C            3.33952805248838       -2.43254379975623       -0.04738381542664
N            4.44374757054740       -3.25777500344738        0.09955688497195
C            5.60560294270972       -2.95312783866224        0.79089535310342
C            5.92238401948968       -1.82730843379633        1.53624419835362
C            7.15375843643591       -1.79441593651361        2.16648113106937
C            8.04718025325347       -2.85859539321673        2.07116975055603
C            7.72310805308372       -3.99783665986257        1.35918988141543
C            6.49283502523861       -4.05338510489557        0.71894326893056
C            5.83234136709368       -5.06450135668622       -0.05836736188569
C            6.20262230720266       -6.33293299640238       -0.48344196643978
C            5.32292561782281       -7.04984603674607       -1.27202778033483
C            4.09878202643624       -6.50743611384155       -1.65569266867162
C            3.70841862322962       -5.24580543355350       -1.24292093343485
C            4.57054066935737       -4.53585616615542       -0.42050828765150
C            2.04928962484124       -2.94411759767286        0.13298693079770
C            0.92207963813804       -2.16816765351320       -0.02253561248424
H           -1.46053494525472       -3.64661385855010        1.95936910509881
H           -0.36421901270507       -2.32696224470548        2.36887074243905
H            0.27957680560420       -3.91523361345422        1.95146715912761
H            0.13312320401694       -4.73315742611593       -0.49411235384093
H           -0.60046900444348       -3.68524299703433       -1.71109759041096
H           -1.60147372451110       -4.45998513080568       -0.48056762337092
H           -3.09256562516777       -3.15990224197494        0.50729117724555
H           -5.28052846641334        0.78601353536387        1.41905354836285
H           -7.33289177868994        1.64252577657691        2.46518621794663
H           -9.41360431119245        0.34871238799090        2.42060041956412
H           -9.49141163139068       -1.87874860816018        1.34837695164567
H           -8.91557735839038       -4.20662278185773        0.03041330256342
H           -7.83873896775927       -6.04235919765135       -1.22924454798189
H           -5.50580143957150       -5.85938277238849       -1.95419029225203
H           -4.15964156615913       -3.87230582408403       -1.41422471978741
H           -4.48198330368464        0.67112619875727       -0.77056084692478
H           -2.17477623106309        1.40864205459290       -1.06528144974093
H            0.76677822646527        1.03496342710840       -2.91549503297547
H            1.05777360306171        3.47288555520672       -3.40283704407413
H           -0.29951941623469        2.04033606825095        1.13136428587604
H            1.79151537409613        5.90516293651963        2.95696924227171
H            3.84051460965013        7.29365518901474        2.64063194735063
H            4.48906656310047        8.01111057462272        0.36585028577479
H            3.08506002975893        7.33918496480925       -1.58503867254269
H            2.50136955835410        0.75253121656855       -0.79592194567355
H            4.47350557919142       -0.66594116045526       -0.53198937657366
H            5.22960844442412       -1.00679282106724        1.64098880886631
H            7.42401824097509       -0.92673441449546        2.74890211419408
H            9.00039813135733       -2.79395187303061        2.57368699223032
H            8.40586564360620       -4.83181490155310        1.30477201004017
H            7.16180458783486       -6.74340592314871       -0.20772206535093
H            5.59083341310416       -8.03921273676506       -1.61075850753702
H            3.44285027726297       -7.07988181231822       -2.29414518235017
H            2.77112026328611       -4.82488913190321       -1.57327127204400
H            1.95758786452138       -3.97250123594778        0.44517450789996

 projected vibrational frequencies (cm⁻¹)
eigval :       -0.00    -0.00    -0.00     0.00     0.00     0.00
eigval :        5.84     9.23    12.11    13.52    17.51    23.50
eigval :       30.16    35.86    39.60    44.52    54.95    80.09
eigval :       84.25    88.72   100.11   103.69   108.61   110.15
eigval :      112.60   119.21   123.53   125.83   130.08   144.70
eigval :      151.02   169.09   172.06   179.19   183.13   183.82
eigval :      202.33   206.45   214.55   226.91   240.12   255.14
eigval :      266.03   269.79   270.39   277.04   281.51   289.77
eigval :      309.88   312.51   317.73   322.64   330.90   333.29
eigval :      336.91   352.51   362.07   376.76   383.84   392.47
eigval :      394.72   403.24   407.23   416.61   418.58   423.49
eigval :      430.77   433.06   437.61   441.44   442.99   455.23
eigval :      466.50   481.16   493.72   508.32   514.60   515.16
eigval :      515.43   523.75   527.79   530.90   534.52   535.35
eigval :      535.58   540.78   554.68   557.52   580.32   583.69
eigval :      585.54   589.58   604.37   618.80   627.72   632.66
eigval :      638.55   646.00   655.45   670.19   670.33   672.02
eigval :      672.85   674.50   684.04   693.34   705.92   706.76
eigval :      707.66   735.08   754.24   754.54   768.03   768.33
eigval :      768.65   777.11   777.43   779.24   795.61   818.91
eigval :      820.33   840.23   866.88   867.07   870.86   871.89
eigval :      873.74   883.54   888.76   890.60   895.45   895.89
eigval :      896.34   900.06   901.18   902.41   909.04   909.89
eigval :      912.58   914.64   915.77   916.22   921.37   921.99
eigval :      924.40   925.66   926.80   937.19   958.37   978.88
eigval :      983.97   985.97  1005.13  1010.42  1010.87  1013.42
eigval :     1063.93  1068.32  1069.56  1069.69  1071.19  1074.17
eigval :     1081.78  1083.68  1095.23  1101.45  1112.43  1117.46
eigval :     1126.09  1145.26  1145.56  1146.26  1146.90  1149.97
eigval :     1152.07  1166.34  1168.90  1171.58  1173.59  1177.07
eigval :     1177.59  1177.71  1185.11  1185.71  1198.03  1212.02
eigval :     1219.29  1224.78  1227.69  1228.05  1229.50  1234.55
eigval :     1238.13  1245.73  1249.46  1261.50  1280.26  1284.96
eigval :     1286.77  1292.61  1294.96  1304.87  1320.78  1329.93
eigval :     1334.53  1338.20  1344.51  1348.25  1349.68  1353.57
eigval :     1361.90  1364.05  1369.58  1379.29  1388.64  1395.00
eigval :     1400.83  1401.21  1406.04  1410.56  1411.42  1414.19
eigval :     1414.81  1415.63  1419.43  1444.72  1445.78  1455.36
eigval :     1460.90  1465.70  1471.09  1475.10  1481.76  1483.27
eigval :     1484.68  1487.97  1497.29  1499.99  1513.53  1514.41
eigval :     1537.84  1553.47  1559.80  1560.94  1567.44  1576.63
eigval :     1579.86  1581.48  1585.58  1587.82  3029.54  3036.17
eigval :     3045.00  3047.35  3054.24  3058.30  3082.12  3082.69
eigval :     3084.13  3086.01  3086.07  3087.23  3088.17  3089.41
eigval :     3092.46  3093.99  3094.84  3095.08  3095.55  3096.52
eigval :     3097.05  3098.36  3100.68  3100.89  3101.65  3102.11
eigval :     3102.66  3104.43  3105.26  3105.48  3106.06  3106.31
eigval :     3107.28  3118.75  3119.35

   temp. (K)  partition function   enthalpy   heat capacity  entropy
                                   cal/mol     cal/K/mol   cal/K/mol   J/K/mol
 298.15  VIB  0.779E+23            29242.171    184.055    181.386
         ROT  0.209E+09              888.752      2.981     41.052
         INT  0.163E+32            30130.923    187.036    222.438
         TR   0.226E+29             1481.254      4.968     45.962
         TOT                       31612.1773   192.0038   268.3994  1122.9833

       T/K    H(0)-H(T)+PV         H(T)/Eh          T*S/Eh         G(T)/Eh
   ------------------------------------------------------------------------
    298.15    0.503772E-01    0.757196E+00    0.127525E+00    0.629671E+00
   ------------------------------------------------------------------------

         :::::::::::::::::::::::::::::::::::::::::::::::::::::
         ::                  THERMODYNAMIC                  ::
         :::::::::::::::::::::::::::::::::::::::::::::::::::::
         :: total free energy        -157.941520977952 Eh   ::
         ::.................................................::
         :: total energy             -158.571191703581 Eh   ::
         :: zero point energy           0.706818751786 Eh   ::
         :: G(RRHO) w/o ZPVE           -0.077148026157 Eh   ::
         :: G(RRHO) contrib.            0.629670725628 Eh   ::
         :::::::::::::::::::::::::::::::::::::::::::::::::::::

           -------------------------------------------------
          | TOTAL ENERGY             -158.571191703581 Eh   |
          | TOTAL ENTHALPY           -157.813995740681 Eh   |
          | TOTAL FREE ENERGY        -157.941520977952 Eh   |
          | GRADIENT NORM               0.000088156683 Eh/α |
           -------------------------------------------------

 * finished run on 2025/07/17 at 22:38:42.139
