   * xtb version 6.7.1 (edcfbbe) compiled by 'albert@albert-system' on 2024-07-22

   ID    Z sym.   atoms
    1    6 C      1-5, 7-13, 15-23, 25-43, 45-59, 61, 62
    2    7 N      6, 14, 24, 44, 60
    3    1 H      63-99

          program call               : xtb data2507/toluene/CBPTZ/CBPTZ_toluene_T1_crest.xyz --gfn 2 --uhf 2 --gbsa toluene --ohess vtight --parallel 40 --molden --ceasefiles --namespace data2507/toluene/CBPTZ/CBPTZ_toluene_T1_finalOpt
      * Solvation model:               GBSA
        Solvent                        toluene
        Solvent mass                       9.2140E+01 g/mol
          :  Hamiltonian                  GFN2-xTB          :
 * total energy  :  -155.6215638 Eh     change       -0.2988486E-08 Eh
 * total energy  :  -155.6217345 Eh     change       -0.1707101E-03 Eh
 * total energy  :  -155.6218259 Eh     change       -0.9138418E-04 Eh
 * total energy  :  -155.6218614 Eh     change       -0.3549051E-04 Eh
 * total energy  :  -155.6219029 Eh     change       -0.4156653E-04 Eh
 * total energy  :  -155.6219466 Eh     change       -0.4370587E-04 Eh
 * total energy  :  -155.6219669 Eh     change       -0.2026077E-04 Eh
 * total energy  :  -155.6219883 Eh     change       -0.2142442E-04 Eh
 * total energy  :  -155.6220075 Eh     change       -0.1920735E-04 Eh
 * total energy  :  -155.6220340 Eh     change       -0.2642701E-04 Eh
 * total energy  :  -155.6221598 Eh     change       -0.4453247E-06 Eh
 * total energy  :  -155.6221601 Eh     change       -0.3411426E-06 Eh
 * total energy  :  -155.6221604 Eh     change       -0.2932611E-06 Eh
 * total energy  :  -155.6221607 Eh     change       -0.3404131E-06 Eh
 * total energy  :  -155.6221611 Eh     change       -0.3734947E-06 Eh
 * total energy  :  -155.6221615 Eh     change       -0.3914439E-06 Eh
 * total energy  :  -155.6221619 Eh     change       -0.4137485E-06 Eh
 * total energy  :  -155.6221623 Eh     change       -0.3327177E-06 Eh
 * total energy  :  -155.6221623 Eh     change       -0.3850090E-08 Eh
   *** GEOMETRY OPTIMIZATION CONVERGED AFTER 44 ITERATIONS ***

 final structure:
================
99
 xtb: 6.7.1 (edcfbbe)
C           -6.81178977357842        5.26171048452505       -1.27578415554862
C           -5.51731465807593        5.63054540341456       -0.92972096826826
C           -4.50791858099814        4.69359993429074       -0.90889479637469
C           -4.77332942157029        3.35550367305034       -1.23606236681529
C           -3.72987841566812        2.36644759841892       -1.20343655558156
N           -4.03765501490482        1.07683239177024       -1.54572996504714
C           -3.04224446663062        0.20579494342757       -1.51127131563899
C           -3.35496187894384       -1.18429107826013       -1.86916210071589
C           -2.34898721718221       -2.04313067999147       -2.30340940264359
C           -2.64912553810265       -3.35223751426300       -2.63207409946092
C           -3.95135214718031       -3.81552528645250       -2.52575988937780
C           -4.95640085852808       -2.96273207132415       -2.09700729624578
C           -4.66310359631770       -1.65151560571827       -1.77467574756571
N           -1.79960656021134        0.48850299687876       -1.18140846584707
C           -1.54903893686826        1.78557140624876       -0.79996796668038
C           -0.25286989645577        2.11201867002478       -0.28978042394627
C            0.03401821655211        3.38262440665541        0.24347191648500
C            1.26275458547378        3.63031148374499        0.81174981967223
C            2.22683325523555        2.63288068712052        0.89103601883721
C            1.96566591132600        1.36318578098611        0.36558660312098
C            2.96376420642821        0.28508810697715        0.48138926190884
C            4.29837838915989        0.54456935771318        0.20226389779143
C            5.25352038671752       -0.46617593063922        0.25708076728299
N            6.59417427499442       -0.18011991325702       -0.02188140707190
C            7.40708446121911       -0.88226597602337       -0.88999784233372
C            7.10275392619070       -1.96204438174240       -1.70847632928574
C            8.10957706966089       -2.46726288283725       -2.51058249364605
C            9.38634259681642       -1.91095043652033       -2.51118176647906
C            9.68746984365823       -0.81747466690165       -1.71883555073895
C            8.69343405154064       -0.29356729909101       -0.90558715155992
C            8.64379667940821        0.81935080363023        0.00585969798294
C            9.58031669595566        1.75308680756961        0.42438673629303
C            9.19892730004503        2.70077870928848        1.35739855829611
C            7.90914718899597        2.71173317186302        1.88283348115938
C            6.95936921026813        1.79053779505665        1.48125788680835
C            7.32819626100843        0.85418978619541        0.52456699739412
C            4.86482725196771       -1.76478484828791        0.58428153262529
C            3.53903088504918       -2.03164975900429        0.85797933051851
C            2.58047658278772       -1.02287616357418        0.83141198578192
C            1.17768804456878       -1.32009300817677        1.15157080484776
C            0.50014201028840       -0.60403522300213        2.13884222287539
C           -0.85373267551575       -0.77303836299539        2.32691565260200
C           -1.57367724988306       -1.63655850555297        1.49872704511698
N           -2.96625805037825       -1.68930572633156        1.56927297192946
C           -3.74951562876632       -2.82457877918902        1.46224390349760
C           -3.37762543428017       -4.16242519194462        1.46609542671665
C           -4.37874099781163       -5.11326191631908        1.38653430770548
C           -5.72132668543721       -4.75169854277794        1.32037202885799
C           -6.10072332272591       -3.42215824635722        1.35411835265900
C           -5.11277702016640       -2.45198014194761        1.43167876525986
C           -5.14682646776800       -1.01658782324336        1.52109353569045
C           -6.17861981267673       -0.08965970673113        1.51754135624363
C           -5.86423900841894        1.25367478541612        1.60794287710058
C           -4.53921956141841        1.67147250261263        1.68994759495435
C           -3.49494834553556        0.76481967526452        1.68810995113840
C           -3.80293364247458       -0.58641044394586        1.61137832379145
C           -0.88478637431553       -2.42502635603959        0.57755202060427
C            0.47736631589556       -2.28095795425164        0.42340844792166
C            0.74741533847423        1.12973450670273       -0.25018662708615
N           -2.50779904459908        2.70421072544048       -0.83944961076103
C           -6.08270288355770        2.99538040920266       -1.58615517139072
C           -7.08553676555595        3.94012810238883       -1.60433640187589
H           -7.60024865143548        5.99945205620581       -1.29039391989791
H           -5.30139666195146        6.65882844264082       -0.67557467279173
H           -3.49821807094244        4.96942954638659       -0.64226067189947
H           -1.34081907329012       -1.66434107176725       -2.38131829854682
H           -1.86553145359470       -4.01375723718918       -2.97234377655795
H           -4.18327786827514       -4.83962742552412       -2.77761851037375
H           -5.97139314143506       -3.32129750008302       -2.01430040277012
H           -5.43284849081866       -0.97331956981073       -1.43889918606327
H           -0.72854187504359        4.14591324489380        0.20453718995774
H            1.47595352499604        4.60834262125571        1.22014675156089
H            3.16676791563074        2.83157374663767        1.38306691111209
H            4.59317829464971        1.53646895845452       -0.10600353771516
H            6.11115021229584       -2.38687372550571       -1.73093664612330
H            7.89936421049064       -3.30879137657881       -3.15391156820346
H           10.14717500259839       -2.33493225573712       -3.14949194832002
H           10.67260409974699       -0.37670860385760       -1.73456497255019
H           10.58588739573709        1.73556810598385        0.03248349058583
H            9.91240673382072        3.43823874572549        1.69381839975486
H            7.64606275522205        3.45291335597028        2.62296324646235
H            5.96892894164233        1.79314305295012        1.90906010548910
H            5.60593792837223       -2.54651128880722        0.64877273739279
H            3.23898945171023       -3.03208591856106        1.13190582840082
H            1.04412677330348        0.09411190745223        2.75734968389410
H           -1.36318449830916       -0.23489115773292        3.11150996292542
H           -2.34383978997418       -4.45894119752077        1.54781159070022
H           -4.11170084851052       -6.15940215121198        1.38322246609658
H           -6.47479871042532       -5.52238158510197        1.25719952807286
H           -7.14233589833010       -3.14066337850100        1.32824622807453
H           -7.20556259087733       -0.41293860124526        1.43882299336039
H           -6.64971026435276        1.99436732557476        1.60191796051900
H           -4.31927206956557        2.72750262597905        1.74714156696089
H           -2.47337004404425        1.11284533313722        1.71173591684959
H           -1.43416158737682       -3.09953985906875       -0.05918640698779
H            0.99519959164235       -2.86308004120289       -0.32452487726046
H            0.53084937984910        0.18180680141464       -0.71642795484572
H           -6.28073731549298        1.96454492243359       -1.83848333941443
H           -8.09122887233098        3.65104191173439       -1.87547184024299

          :  Hamiltonian                  GFN2-xTB          :
         :: gradient norm              0.000064865319 Eh/a0 ::
         :: HOMO-LUMO gap              0.151255118044 eV    ::
         :: SCC energy              -158.528070267515 Eh    ::
         :: -> dispersion             -0.164429533651 Eh    ::
         :: -> Gsolv                  -0.064710322025 Eh    ::
         :: repulsion energy           2.905908030723 Eh    ::

    * Orbital Energies and Occupations

         #    Occupation            Energy/Eh            Energy/eV
      -------------------------------------------------------------
         1        2.0000           -0.6881564             -18.7257
       ...           ...                  ...                  ...
       134        2.0000           -0.4087569             -11.1228
       135        2.0000           -0.4075084             -11.0889
       136        2.0000           -0.4024517             -10.9513
       137        2.0000           -0.3976688             -10.8211
       138        2.0000           -0.3932089             -10.6998
       139        2.0000           -0.3900893             -10.6149
       140        2.0000           -0.3886788             -10.5765
       141        2.0000           -0.3876351             -10.5481
       142        1.9983           -0.3739436             -10.1755
       143        1.8899           -0.3698966             -10.0654
       144        1.6921           -0.3686806             -10.0323
       145        1.4197           -0.3676030             -10.0030
       146        0.9491           -0.2807944              -7.6408 (HOMO)
       147        0.0509           -0.2752360              -7.4896 (LUMO)
       148                         -0.2623351              -7.1385
       149                         -0.2544315              -6.9234
       150                         -0.2522016              -6.8628
       151                         -0.2479272              -6.7464
       152                         -0.2410008              -6.5580
       153                         -0.2360651              -6.4237
       154                         -0.2326016              -6.3294
       155                         -0.2312512              -6.2927
       156                         -0.2310180              -6.2863
       157                         -0.2296517              -6.2491
       ...                                ...                  ...
       285                          0.7355577              20.0155
      -------------------------------------------------------------
                  HL-Gap            0.0055584 Eh            0.1513 eV

     #   Z          covCN         q      C6AA      α(0)
     1   6 C        2.919    -0.039    28.965     8.826
     2   6 C        2.916    -0.033    28.831     8.805
     3   6 C        2.923    -0.037    28.929     8.820
     4   6 C        2.980    -0.014    28.365     8.736
     5   6 C        2.933     0.195    23.849     8.009
     6   7 N        1.844    -0.337    29.609     8.064
     7   6 C        2.934     0.227    23.239     7.906
     8   6 C        2.986    -0.006    28.159     8.705
     9   6 C        2.923    -0.030    28.737     8.791
    10   6 C        2.919    -0.031    28.765     8.795
    11   6 C        2.920    -0.028    28.712     8.787
    12   6 C        2.919    -0.029    28.718     8.788
    13   6 C        2.924    -0.027    28.675     8.782
    14   7 N        1.843    -0.333    29.499     8.049
    15   6 C        2.935     0.182    24.102     8.051
    16   6 C        2.977    -0.019    28.466     8.752
    17   6 C        2.921    -0.042    29.037     8.837
    18   6 C        2.914    -0.034    28.851     8.808
    19   6 C        2.923    -0.049    29.214     8.864
    20   6 C        2.972     0.006    27.877     8.661
    21   6 C        2.978     0.013    27.710     8.635
    22   6 C        2.926    -0.046    29.151     8.854
    23   6 C        2.911     0.062    26.602     8.458
    24   7 N        2.802    -0.022    21.675     6.915
    25   6 C        3.072     0.046    26.886     8.502
    26   6 C        2.909    -0.046    29.146     8.853
    27   6 C        2.923    -0.032    28.793     8.800
    28   6 C        2.920    -0.036    28.894     8.815
    29   6 C        2.912    -0.031    28.762     8.794
    30   6 C        3.066    -0.013    28.274     8.719
    31   6 C        3.065    -0.013    28.276     8.720
    32   6 C        2.912    -0.031    28.764     8.794
    33   6 C        2.920    -0.036    28.896     8.815
    34   6 C        2.923    -0.032    28.793     8.800
    35   6 C        2.910    -0.046    29.131     8.850
    36   6 C        3.073     0.046    26.884     8.501
    37   6 C        2.919    -0.043    29.064     8.841
    38   6 C        2.922    -0.031    28.778     8.797
    39   6 C        2.980     0.009    27.812     8.651
    40   6 C        2.978     0.019    27.570     8.613
    41   6 C        2.923    -0.027    28.677     8.782
    42   6 C        2.920    -0.041    29.027     8.835
    43   6 C        2.913     0.068    26.485     8.439
    44   7 N        2.800    -0.035    21.911     6.952
    45   6 C        3.069     0.048    26.850     8.496
    46   6 C        2.910    -0.047    29.172     8.857
    47   6 C        2.923    -0.032    28.803     8.801
    48   6 C        2.920    -0.036    28.884     8.813
    49   6 C        2.912    -0.031    28.772     8.796
    50   6 C        3.066    -0.013    28.280     8.720
    51   6 C        3.066    -0.014    28.294     8.722
    52   6 C        2.912    -0.032    28.791     8.799
    53   6 C        2.920    -0.035    28.865     8.810
    54   6 C        2.923    -0.030    28.755     8.794
    55   6 C        2.910    -0.040    28.987     8.828
    56   6 C        3.069     0.053    26.734     8.478
    57   6 C        2.921    -0.039    28.982     8.828
    58   6 C        2.924    -0.030    28.742     8.792
    59   6 C        2.931    -0.042    29.033     8.837
    60   7 N        1.845    -0.280    28.113     7.858
    61   6 C        2.923    -0.036    28.897     8.815
    62   6 C        2.916    -0.033    28.818     8.803
    63   1 H        0.926     0.032     2.556     2.500
    64   1 H        0.926     0.031     2.571     2.507
    65   1 H        0.926     0.029     2.600     2.521
    66   1 H        0.926     0.041     2.442     2.444
    67   1 H        0.926     0.044     2.392     2.419
    68   1 H        0.926     0.046     2.373     2.409
    69   1 H        0.926     0.042     2.426     2.436
    70   1 H        0.926     0.037     2.490     2.468
    71   1 H        0.926     0.026     2.646     2.544
    72   1 H        0.926     0.030     2.583     2.513
    73   1 H        0.926     0.032     2.560     2.502
    74   1 H        0.926     0.051     2.309     2.376
    75   1 H        0.926     0.040     2.451     2.448
    76   1 H        0.926     0.038     2.469     2.457
    77   1 H        0.926     0.037     2.492     2.469
    78   1 H        0.926     0.039     2.460     2.453
    79   1 H        0.926     0.039     2.458     2.452
    80   1 H        0.926     0.037     2.494     2.470
    81   1 H        0.926     0.038     2.481     2.463
    82   1 H        0.926     0.038     2.480     2.463
    83   1 H        0.926     0.054     2.271     2.356
    84   1 H        0.926     0.052     2.291     2.367
    85   1 H        0.926     0.045     2.383     2.414
    86   1 H        0.926     0.043     2.410     2.428
    87   1 H        0.926     0.043     2.413     2.429
    88   1 H        0.926     0.045     2.388     2.416
    89   1 H        0.926     0.043     2.410     2.428
    90   1 H        0.926     0.042     2.423     2.434
    91   1 H        0.926     0.044     2.402     2.424
    92   1 H        0.926     0.036     2.509     2.477
    93   1 H        0.926     0.026     2.649     2.545
    94   1 H        0.926     0.022     2.701     2.570
    95   1 H        0.926     0.051     2.311     2.377
    96   1 H        0.926     0.052     2.300     2.372
    97   1 H        0.926     0.035     2.515     2.480
    98   1 H        0.926     0.033     2.551     2.498
    99   1 H        0.926     0.031     2.566     2.505

molecular dipole:
                 x           y           z       tot (Debye)
 q only:        2.953      -2.910       1.108
   full:        2.845      -2.648       1.027      10.217

 projected vibrational frequencies (cm⁻¹)
eigval :       -0.00    -0.00    -0.00    -0.00     0.00     0.00
eigval :        8.50    12.73    15.24    15.97    25.42    31.43
eigval :       37.23    40.66    44.30    45.57    49.20    55.24
eigval :       67.83    71.63    81.32    83.99    92.59   103.67
eigval :      105.75   108.67   114.17   121.59   126.99   129.95
eigval :      139.51   158.78   168.37   180.36   189.17   200.56
eigval :      215.11   218.30   228.46   234.84   237.66   245.59
eigval :      257.78   263.58   269.22   276.97   286.70   301.39
eigval :      313.37   328.56   355.79   363.85   367.99   371.68
eigval :      383.31   387.27   390.23   391.50   393.76   399.91
eigval :      403.94   415.89   417.81   422.58   424.51   433.53
eigval :      439.33   441.48   467.01   504.07   506.85   515.34
eigval :      515.75   532.51   536.35   538.58   539.87   545.30
eigval :      548.34   556.46   558.27   562.76   581.08   585.77
eigval :      586.45   587.34   591.58   592.90   600.85   610.08
eigval :      613.49   618.96   636.50   648.38   650.01   656.68
eigval :      665.70   669.15   674.02   675.48   685.01   691.63
eigval :      695.11   709.50   709.98   717.06   736.76   747.44
eigval :      753.30   756.19   764.36   765.58   770.60   774.48
eigval :      775.76   779.87   785.18   803.26   821.34   835.38
eigval :      853.81   857.24   859.40   861.23   865.23   866.86
eigval :      872.06   874.02   874.70   877.38   877.95   883.23
eigval :      895.41   896.01   898.73   900.21   903.26   903.76
eigval :      906.07   909.77   914.70   914.90   915.59   917.48
eigval :      917.79   920.22   920.89   922.21   924.36   926.44
eigval :      928.25   932.18   935.70   945.82   961.61   983.85
eigval :      986.82   989.29   997.28  1010.80  1011.08  1027.87
eigval :     1033.82  1067.19  1069.36  1070.41  1070.92  1075.45
eigval :     1075.74  1085.12  1091.71  1103.17  1109.44  1114.09
eigval :     1115.90  1119.32  1124.93  1136.26  1143.25  1148.83
eigval :     1150.46  1171.16  1173.08  1174.49  1175.62  1176.09
eigval :     1176.51  1177.35  1179.89  1180.84  1184.28  1187.98
eigval :     1195.80  1202.74  1225.51  1228.88  1230.26  1233.12
eigval :     1240.26  1244.38  1261.85  1263.37  1269.06  1269.70
eigval :     1283.11  1285.83  1287.15  1288.85  1292.97  1297.50
eigval :     1310.31  1318.21  1325.65  1330.84  1338.03  1343.49
eigval :     1344.45  1347.09  1351.65  1356.53  1360.13  1363.67
eigval :     1370.70  1380.38  1397.56  1408.53  1414.09  1417.22
eigval :     1418.29  1420.51  1428.96  1432.26  1440.41  1455.33
eigval :     1462.65  1463.60  1464.99  1467.17  1478.07  1481.02
eigval :     1481.70  1494.33  1520.02  1533.39  1544.37  1545.94
eigval :     1561.34  1564.90  1567.82  1569.50  1578.39  1579.07
eigval :     1579.77  1582.27  1583.32  1584.01  1586.46  1589.40
eigval :     1600.67  1604.62  3064.47  3065.62  3066.38  3073.50
eigval :     3078.48  3078.65  3078.95  3080.35  3080.61  3081.05
eigval :     3083.22  3084.10  3084.22  3084.40  3085.12  3085.89
eigval :     3086.18  3086.83  3087.12  3088.91  3089.72  3090.28
eigval :     3091.90  3092.29  3092.72  3093.26  3093.77  3095.01
eigval :     3097.19  3097.87  3098.08  3098.29  3099.10  3099.94
eigval :     3102.21  3104.62  3112.89

   temp. (K)  partition function   enthalpy   heat capacity  entropy
                                   cal/mol     cal/K/mol   cal/K/mol   J/K/mol
 298.15  VIB  0.189E+23            28775.667    183.215    178.886
         ROT  0.152E+09              888.752      2.981     40.418
         INT  0.287E+31            29664.420    186.196    219.304
         TR   0.216E+29             1481.254      4.968     45.865
         TOT                       31145.6736   191.1640   265.1690  1109.4670

       T/K    H(0)-H(T)+PV         H(T)/Eh          T*S/Eh         G(T)/Eh
   ------------------------------------------------------------------------
    298.15    0.496338E-01    0.800652E+00    0.125990E+00    0.674661E+00
   ------------------------------------------------------------------------

         :::::::::::::::::::::::::::::::::::::::::::::::::::::
         ::                  THERMODYNAMIC                  ::
         :::::::::::::::::::::::::::::::::::::::::::::::::::::
         :: total free energy        -154.947501053511 Eh   ::
         ::.................................................::
         :: total energy             -155.622162250101 Eh   ::
         :: zero point energy           0.751017739813 Eh   ::
         :: G(RRHO) w/o ZPVE           -0.076356543222 Eh   ::
         :: G(RRHO) contrib.            0.674661196591 Eh   ::
         :::::::::::::::::::::::::::::::::::::::::::::::::::::

           -------------------------------------------------
          | TOTAL ENERGY             -155.622162250101 Eh   |
          | TOTAL ENTHALPY           -154.821510720099 Eh   |
          | TOTAL FREE ENERGY        -154.947501053511 Eh   |
          | GRADIENT NORM               0.000053093244 Eh/α |
          | HOMO-LUMO GAP               0.151252662852 eV   |
           -------------------------------------------------

 * finished run on 2025/08/22 at 07:51:10.198
