   * xtb version 6.7.1 (edcfbbe) compiled by 'albert@albert-system' on 2024-07-22

   ID    Z sym.   atoms
    1    6 C      1-5, 7-13, 15-23, 25-43, 45-59, 61, 62
    2    7 N      6, 14, 24, 44, 60
    3    1 H      63-99

          program call               : xtb data2507/toluene/CBPTZ/CBPTZ_toluene_S0_finalOpt.xtbopt.xyz --gfn 2 --uhf 2 --gbsa toluene --ohess vtight --parallel 40 --molden --ceasefiles --namespace data2507/toluene/CBPTZ/CBPTZ_toluene_T1_preOpt
      * Solvation model:               GBSA
        Solvent                        toluene
        Solvent mass                       9.2140E+01 g/mol
          :  Hamiltonian                  GFN2-xTB          :
 * total energy  :  -155.6188775 Eh     change        0.5397351E-07 Eh
 * total energy  :  -155.6205704 Eh     change       -0.1692898E-02 Eh
 * total energy  :  -155.6212661 Eh     change       -0.6957528E-03 Eh
 * total energy  :  -155.6213644 Eh     change       -0.9831237E-04 Eh
 * total energy  :  -155.6215720 Eh     change       -0.2075366E-03 Eh
 * total energy  :  -155.6216581 Eh     change       -0.8612708E-04 Eh
 * total energy  :  -155.6217227 Eh     change       -0.6461239E-04 Eh
 * total energy  :  -155.6217436 Eh     change       -0.2086118E-04 Eh
 * total energy  :  -155.6217517 Eh     change       -0.8117661E-05 Eh
 * total energy  :  -155.6217624 Eh     change       -0.1069807E-04 Eh
 * total energy  :  -155.6217983 Eh     change       -0.7178726E-06 Eh
 * total energy  :  -155.6217988 Eh     change       -0.4974001E-06 Eh
 * total energy  :  -155.6217992 Eh     change       -0.4085335E-06 Eh
 * total energy  :  -155.6217995 Eh     change       -0.3653442E-06 Eh
 * total energy  :  -155.6217999 Eh     change       -0.3921211E-06 Eh
 * total energy  :  -155.6218004 Eh     change       -0.4222200E-06 Eh
 * total energy  :  -155.6218008 Eh     change       -0.4257133E-06 Eh
 * total energy  :  -155.6218012 Eh     change       -0.3759962E-06 Eh
 * total energy  :  -155.6218012 Eh     change       -0.2067054E-08 Eh
   *** GEOMETRY OPTIMIZATION CONVERGED AFTER 44 ITERATIONS ***

 final structure:
================
99
 xtb: 6.7.1 (edcfbbe)
C           -6.80187865298487        5.43885644958969        0.10012740161888
C           -5.51274473044266        5.68480179770487        0.55767540580015
C           -4.51201742878013        4.76149276580738        0.35103140002493
C           -4.78095365717187        3.55969275116854       -0.32163280630179
C           -3.74630121351559        2.58481911372455       -0.53174202434890
N           -4.05917251530865        1.42227260437157       -1.18556351078467
C           -3.07007364839533        0.56369077886832       -1.36717869572283
C           -3.39118844476480       -0.69551214672364       -2.05254196911954
C           -2.38982262935710       -1.43169155518362       -2.67971715168473
C           -2.69786835916709       -2.62116288439250       -3.31386332673602
C           -4.00315766463520       -3.08772059316738       -3.32249254611864
C           -5.00383442223624       -2.35550571032502       -2.70310893815686
C           -4.70271966260051       -1.16234786668407       -2.07471355233050
N           -1.82471749272314        0.74974640137740       -0.98104370454459
C           -1.56829236216775        1.90867056036174       -0.28665221211721
C           -0.26823657559318        2.09515541156931        0.28245967848844
C            0.02016074902976        3.18903650241189        1.11915406283031
C            1.25377132896602        3.29013689938754        1.72104042382228
C            2.22102718604411        2.31024743326888        1.53438416202432
C            1.95817473908415        1.21587150036188        0.70462819164413
C            2.96526927562991        0.15422636032086        0.52586355778973
C            4.29330719362359        0.49250972250055        0.30187594935576
C            5.25892163091757       -0.48737583565840        0.09775373922992
N            6.59050734467194       -0.12194973453515       -0.13670411535898
C            7.02170255124972        0.80610916286385       -1.06362917729138
C            6.28896652982470        1.53897128815733       -1.98833790168125
C            6.98115421580809        2.38917729935846       -2.83105861110745
C            8.36774455162333        2.50505672263913       -2.76805401077883
C            9.10510058955395        1.75797211855166       -1.86674448755264
C            8.43257440498576        0.89889437438054       -1.01015459684006
C            8.86355787713742       -0.01930438801061        0.01107528043738
C           10.10451772449450       -0.35418738289770        0.53264870590942
C           10.16324111074441       -1.28252795040140        1.55689749536412
C            9.00413440377931       -1.86134000680087        2.06830826378788
C            7.75625506138696       -1.54283799107303        1.56497252801140
C            7.69333389243443       -0.63025658443567        0.51997726743196
C            4.89230881993729       -1.83216074453454        0.11194134738135
C            3.57431551562203       -2.17630219856538        0.33465276725922
C            2.60379120373374       -1.20443074000983        0.55690355552142
C            1.20577750539797       -1.58912301546051        0.80331222198081
C            0.53207507005315       -1.15328463227407        1.94400502942240
C           -0.81990777795883       -1.37429070426814        2.09040390647447
C           -1.54106675655293       -2.00189514263243        1.07307370902744
N           -2.93408717101812       -2.07346357488310        1.13240591302878
C           -3.71756813369182       -3.14400431228211        0.74133722567732
C           -3.34608061705002       -4.43936755155357        0.40604284345266
C           -4.34751807882803       -5.33861195794202        0.08824052736282
C           -5.68989250102934       -4.97127627303871        0.11490807453278
C           -6.06894686979372       -3.69352451774218        0.48440559720696
C           -5.08077181920302       -2.77518097520821        0.80551837716857
C           -5.11422095040791       -1.40898162343921        1.25472983606715
C           -6.14556834329844       -0.51079892323943        1.48555346269021
C           -5.83050165837524        0.76580521239496        1.91286913856405
C           -4.50528186412359        1.14859392409646        2.09785578893065
C           -3.46129769347908        0.27153155144362        1.86677792264738
C           -3.77006661443221       -1.01643142803658        1.45102075667179
C           -0.85477828478839       -2.52581270095533       -0.02176873598369
C            0.50574337912815       -2.33733164510920       -0.14165027291929
C            0.73302455385230        1.13813873671475        0.06341995982550
N           -2.52258625560319        2.80996315029913       -0.09195485003851
C           -6.08524056704965        3.32321269322141       -0.78044070179716
C           -7.07901214141828        4.25404831846979       -0.57005175774374
H           -7.58331118255630        6.16594558488344        0.26392702433878
H           -5.29397047037670        6.60676438256894        1.07799785827698
H           -3.50635134668715        4.94334202185614        0.70073497544585
H           -1.37896352399886       -1.05238956807296       -2.66365569078991
H           -1.91791044390419       -3.18688769041898       -3.80283926934776
H           -4.24104681019513       -4.01940113460636       -3.81369913174580
H           -6.02146583174842       -2.71606898517340       -2.71067137418030
H           -5.46869969509826       -0.57909565938197       -1.58667586666790
H           -0.74510699912647        3.93276705234459        1.28320822873821
H            1.46841423726067        4.13247582716552        2.36378561734116
H            3.16600041403192        2.38005123346835        2.05188467867702
H            4.57993436722463        1.53318575029774        0.28389398371994
H            5.21602081724036        1.44414886843105       -2.05718713434351
H            6.43362833492852        2.97347944966174       -3.55575675422629
H            8.87210703262863        3.18210888510674       -3.44140475734788
H           10.18100494025982        1.83695375580793       -1.83144109473900
H           11.00294981578933        0.10565728991516        0.14989995548569
H           11.11998130477473       -1.55772850389073        1.97520569842146
H            9.08090752119913       -2.57048945381228        2.87917702429062
H            6.86199168682092       -1.98139642855593        1.98027469647070
H            5.63445750200361       -2.59357776284292       -0.07286785088584
H            3.28695480847775       -3.21720015267418        0.35044494321540
H            1.07616972447031       -0.63007212230114        2.71613005203053
H           -1.32679252884855       -1.05655049783280        2.98870608062555
H           -2.31245450819612       -4.74721912557645        0.41043028151452
H           -4.08101037743792       -6.34996384234765       -0.17980776957645
H           -6.44370342290754       -5.70032831992233       -0.14171507834664
H           -7.11043670043914       -3.41428336079411        0.53005250027497
H           -7.17259738512434       -0.80287049552214        1.32713939725737
H           -6.61569847965423        1.48421564210037        2.09445143681958
H           -4.28503634257117        2.15591599672158        2.41971967935693
H           -2.43955069088816        0.60168877447909        1.97773074387194
H           -1.40505393738656       -3.01998489770589       -0.80617158060849
H            1.02172745354288       -2.70617720099359       -1.01590312322979
H            0.51354998929601        0.33633778289153       -0.62347254942412
H           -6.28619097066874        2.39802039265845       -1.29933919086767
H           -8.08042145207074        4.06131488107126       -0.92862046975328

          :  Hamiltonian                  GFN2-xTB          :
         :: gradient norm              0.000043424974 Eh/a0 ::
         :: HOMO-LUMO gap              0.149820236888 eV    ::
         :: SCC energy              -158.527581520893 Eh    ::
         :: -> dispersion             -0.164085753827 Eh    ::
         :: -> Gsolv                  -0.064630184933 Eh    ::
         :: repulsion energy           2.905780375967 Eh    ::

    * Orbital Energies and Occupations

         #    Occupation            Energy/Eh            Energy/eV
      -------------------------------------------------------------
         1        2.0000           -0.6882645             -18.7286
       ...           ...                  ...                  ...
       134        2.0000           -0.4081664             -11.1068
       135        2.0000           -0.4077362             -11.0951
       136        2.0000           -0.4024105             -10.9501
       137        2.0000           -0.3978195             -10.8252
       138        2.0000           -0.3934548             -10.7065
       139        2.0000           -0.3898236             -10.6076
       140        2.0000           -0.3888562             -10.5813
       141        2.0000           -0.3874074             -10.5419
       142        1.9944           -0.3735500             -10.1648
       143        1.8205           -0.3700661             -10.0700
       144        1.6976           -0.3694164             -10.0523
       145        1.4874           -0.3685745             -10.0294
       146        0.9477           -0.2811285              -7.6499 (HOMO)
       147        0.0523           -0.2756229              -7.5001 (LUMO)
       148                         -0.2614176              -7.1135
       149                         -0.2544490              -6.9239
       150                         -0.2519963              -6.8572
       151                         -0.2476232              -6.7382
       152                         -0.2410249              -6.5586
       153                         -0.2360602              -6.4235
       154                         -0.2327940              -6.3346
       155                         -0.2311237              -6.2892
       156                         -0.2310467              -6.2871
       157                         -0.2296190              -6.2483
       ...                                ...                  ...
       285                          0.7356279              20.0175
      -------------------------------------------------------------
                  HL-Gap            0.0055056 Eh            0.1498 eV

     #   Z          covCN         q      C6AA      α(0)
     1   6 C        2.919    -0.039    28.971     8.826
     2   6 C        2.916    -0.033    28.831     8.805
     3   6 C        2.923    -0.038    28.933     8.821
     4   6 C        2.979    -0.014    28.368     8.737
     5   6 C        2.932     0.194    23.880     8.014
     6   7 N        1.844    -0.335    29.542     8.055
     7   6 C        2.933     0.227    23.244     7.907
     8   6 C        2.986    -0.006    28.156     8.704
     9   6 C        2.923    -0.029    28.736     8.791
    10   6 C        2.919    -0.031    28.763     8.795
    11   6 C        2.920    -0.028    28.709     8.787
    12   6 C        2.919    -0.029    28.715     8.787
    13   6 C        2.924    -0.027    28.675     8.782
    14   7 N        1.843    -0.333    29.486     8.048
    15   6 C        2.934     0.183    24.092     8.050
    16   6 C        2.977    -0.018    28.458     8.751
    17   6 C        2.921    -0.042    29.033     8.836
    18   6 C        2.914    -0.034    28.848     8.807
    19   6 C        2.923    -0.049    29.208     8.863
    20   6 C        2.972     0.006    27.884     8.662
    21   6 C        2.979     0.013    27.721     8.637
    22   6 C        2.926    -0.047    29.155     8.855
    23   6 C        2.911     0.062    26.612     8.459
    24   7 N        2.802    -0.023    21.685     6.916
    25   6 C        3.072     0.047    26.878     8.501
    26   6 C        2.909    -0.046    29.136     8.851
    27   6 C        2.923    -0.032    28.794     8.800
    28   6 C        2.920    -0.036    28.893     8.815
    29   6 C        2.912    -0.031    28.765     8.795
    30   6 C        3.066    -0.013    28.278     8.720
    31   6 C        3.065    -0.013    28.277     8.720
    32   6 C        2.912    -0.031    28.762     8.794
    33   6 C        2.920    -0.036    28.894     8.815
    34   6 C        2.923    -0.032    28.792     8.799
    35   6 C        2.909    -0.046    29.142     8.852
    36   6 C        3.073     0.047    26.877     8.500
    37   6 C        2.919    -0.043    29.064     8.841
    38   6 C        2.922    -0.031    28.783     8.798
    39   6 C        2.980     0.009    27.819     8.652
    40   6 C        2.978     0.019    27.578     8.614
    41   6 C        2.923    -0.027    28.684     8.783
    42   6 C        2.921    -0.041    29.023     8.835
    43   6 C        2.913     0.067    26.496     8.441
    44   7 N        2.800    -0.034    21.902     6.951
    45   6 C        3.069     0.048    26.849     8.496
    46   6 C        2.910    -0.047    29.167     8.856
    47   6 C        2.923    -0.032    28.802     8.801
    48   6 C        2.920    -0.035    28.881     8.813
    49   6 C        2.912    -0.031    28.768     8.795
    50   6 C        3.066    -0.013    28.281     8.720
    51   6 C        3.066    -0.014    28.295     8.722
    52   6 C        2.912    -0.032    28.788     8.798
    53   6 C        2.920    -0.035    28.863     8.810
    54   6 C        2.923    -0.030    28.754     8.794
    55   6 C        2.910    -0.040    28.989     8.829
    56   6 C        3.070     0.053    26.735     8.478
    57   6 C        2.921    -0.040    28.987     8.829
    58   6 C        2.924    -0.030    28.744     8.792
    59   6 C        2.930    -0.042    29.037     8.837
    60   7 N        1.845    -0.277    28.044     7.848
    61   6 C        2.923    -0.036    28.905     8.817
    62   6 C        2.916    -0.033    28.819     8.803
    63   1 H        0.926     0.032     2.559     2.502
    64   1 H        0.926     0.031     2.573     2.508
    65   1 H        0.926     0.029     2.603     2.523
    66   1 H        0.926     0.041     2.438     2.442
    67   1 H        0.926     0.044     2.391     2.418
    68   1 H        0.926     0.046     2.371     2.408
    69   1 H        0.926     0.042     2.422     2.434
    70   1 H        0.926     0.037     2.485     2.465
    71   1 H        0.926     0.026     2.646     2.544
    72   1 H        0.926     0.030     2.586     2.515
    73   1 H        0.926     0.033     2.550     2.497
    74   1 H        0.926     0.050     2.316     2.380
    75   1 H        0.926     0.037     2.489     2.467
    76   1 H        0.926     0.037     2.495     2.470
    77   1 H        0.926     0.037     2.495     2.470
    78   1 H        0.926     0.040     2.453     2.449
    79   1 H        0.926     0.039     2.461     2.453
    80   1 H        0.926     0.037     2.492     2.469
    81   1 H        0.926     0.039     2.468     2.457
    82   1 H        0.926     0.040     2.450     2.448
    83   1 H        0.926     0.053     2.284     2.363
    84   1 H        0.926     0.052     2.299     2.371
    85   1 H        0.926     0.045     2.387     2.416
    86   1 H        0.926     0.043     2.410     2.427
    87   1 H        0.926     0.043     2.409     2.427
    88   1 H        0.926     0.045     2.386     2.415
    89   1 H        0.926     0.043     2.407     2.426
    90   1 H        0.926     0.042     2.421     2.433
    91   1 H        0.926     0.044     2.401     2.423
    92   1 H        0.926     0.036     2.509     2.477
    93   1 H        0.926     0.026     2.647     2.544
    94   1 H        0.926     0.023     2.693     2.566
    95   1 H        0.926     0.051     2.310     2.377
    96   1 H        0.926     0.051     2.305     2.374
    97   1 H        0.926     0.034     2.523     2.484
    98   1 H        0.926     0.032     2.552     2.498
    99   1 H        0.926     0.031     2.568     2.506

molecular dipole:
                 x           y           z       tot (Debye)
 q only:        2.900      -3.093       0.338
   full:        2.784      -2.815       0.320      10.095

 projected vibrational frequencies (cm⁻¹)
eigval :       -0.00    -0.00    -0.00    -0.00     0.00     0.00
eigval :       12.70    14.90    17.58    18.14    27.03    32.51
eigval :       37.45    44.12    45.27    47.65    53.94    56.10
eigval :       68.64    71.98    81.12    86.27    92.56   100.17
eigval :      106.22   109.62   112.90   120.09   127.11   132.66
eigval :      149.44   155.33   167.63   180.84   190.75   199.33
eigval :      213.65   221.41   230.03   234.23   244.16   249.55
eigval :      256.57   261.77   271.38   276.21   276.86   302.66
eigval :      313.02   334.58   356.24   361.73   370.74   370.85
eigval :      375.01   384.96   389.95   390.68   393.67   395.66
eigval :      408.95   414.08   419.26   422.03   422.90   433.74
eigval :      438.00   440.51   468.37   503.90   508.56   515.47
eigval :      515.92   531.19   536.76   538.04   538.13   544.79
eigval :      547.31   554.18   559.57   565.33   581.08   585.30
eigval :      586.42   587.40   591.39   593.56   603.84   606.82
eigval :      611.92   616.84   636.26   648.58   650.16   659.55
eigval :      665.75   668.86   673.61   674.50   685.02   690.21
eigval :      695.22   708.63   709.38   715.83   736.57   746.27
eigval :      753.57   756.23   767.10   767.58   770.30   776.74
eigval :      779.99   780.53   785.50   802.28   820.44   838.86
eigval :      853.98   856.94   860.45   862.12   870.57   872.14
eigval :      873.41   873.53   875.39   876.46   878.25   889.90
eigval :      894.33   895.85   898.45   900.83   903.91   904.25
eigval :      907.74   908.33   911.92   913.99   914.53   916.65
eigval :      920.32   920.65   923.96   925.14   927.31   928.85
eigval :      930.64   932.44   937.35   945.72   959.32   984.17
eigval :      986.86   989.33   997.33  1010.77  1010.93  1021.50
eigval :     1032.00  1068.38  1069.96  1070.39  1072.12  1075.75
eigval :     1075.86  1083.87  1090.85  1102.69  1109.33  1114.34
eigval :     1115.51  1119.42  1125.30  1133.79  1144.44  1148.59
eigval :     1149.08  1172.32  1172.72  1174.45  1175.15  1176.03
eigval :     1177.31  1178.04  1179.86  1181.29  1185.16  1187.66
eigval :     1195.64  1201.86  1226.94  1229.49  1230.75  1233.54
eigval :     1240.47  1244.26  1261.05  1263.03  1268.85  1269.53
eigval :     1282.82  1285.55  1286.87  1289.30  1293.26  1297.77
eigval :     1311.41  1316.98  1325.76  1330.94  1337.16  1342.97
eigval :     1344.24  1346.13  1350.93  1356.33  1359.99  1363.19
eigval :     1371.70  1379.96  1396.61  1407.14  1414.22  1416.90
eigval :     1419.16  1420.59  1428.92  1432.27  1440.23  1455.01
eigval :     1462.46  1463.15  1464.88  1467.76  1478.40  1480.99
eigval :     1481.49  1494.40  1524.53  1535.93  1545.02  1545.87
eigval :     1563.23  1565.87  1568.72  1569.70  1578.29  1579.14
eigval :     1579.30  1581.72  1582.71  1583.39  1586.01  1589.23
eigval :     1600.81  1604.55  3064.55  3064.94  3065.87  3073.91
eigval :     3078.19  3078.21  3078.53  3080.26  3081.26  3082.08
eigval :     3082.98  3083.43  3083.66  3083.99  3084.48  3085.05
eigval :     3085.57  3086.08  3087.15  3089.63  3089.93  3090.55
eigval :     3090.94  3091.69  3092.02  3093.08  3094.68  3094.92
eigval :     3096.80  3097.19  3097.83  3098.50  3099.05  3099.74
eigval :     3101.26  3104.92  3111.82

   temp. (K)  partition function   enthalpy   heat capacity  entropy
                                   cal/mol     cal/K/mol   cal/K/mol   J/K/mol
 298.15  VIB  0.582E+22            28729.739    183.493    177.895
         ROT  0.152E+09              888.752      2.981     40.415
         INT  0.882E+30            29618.491    186.474    218.310
         TR   0.216E+29             1481.254      4.968     45.865
         TOT                       31099.7452   191.4423   264.1753  1105.3095

       T/K    H(0)-H(T)+PV         H(T)/Eh          T*S/Eh         G(T)/Eh
   ------------------------------------------------------------------------
    298.15    0.495606E-01    0.800697E+00    0.125518E+00    0.675179E+00
   ------------------------------------------------------------------------

         :::::::::::::::::::::::::::::::::::::::::::::::::::::
         ::                  THERMODYNAMIC                  ::
         :::::::::::::::::::::::::::::::::::::::::::::::::::::
         :: total free energy        -154.946622120828 Eh   ::
         ::.................................................::
         :: total energy             -155.621801153301 Eh   ::
         :: zero point energy           0.751136643123 Eh   ::
         :: G(RRHO) w/o ZPVE           -0.075957610650 Eh   ::
         :: G(RRHO) contrib.            0.675179032473 Eh   ::
         :::::::::::::::::::::::::::::::::::::::::::::::::::::

           -------------------------------------------------
          | TOTAL ENERGY             -155.621801153301 Eh   |
          | TOTAL ENTHALPY           -154.821103911454 Eh   |
          | TOTAL FREE ENERGY        -154.946622120828 Eh   |
          | GRADIENT NORM               0.000039063814 Eh/α |
          | HOMO-LUMO GAP               0.149815340616 eV   |
           -------------------------------------------------

 * finished run on 2025/08/22 at 07:42:23.384
