   * xtb version 6.7.1 (edcfbbe) compiled by 'albert@albert-system' on 2024-07-22

   ID    Z sym.   atoms
    1    6 C      1-5, 7-13, 15-23, 25-43, 45-59, 61, 62
    2    7 N      6, 14, 24, 44, 60
    3    1 H      63-99

          program call               : xtb data2507/toluene/CBPTZ/CBPTZ.xyz --gfn 2 --gbsa toluene --ohess vtight --parallel 40 --molden --ceasefiles --namespace data2507/toluene/CBPTZ/CBPTZ_toluene_S0_preOpt
      * Solvation model:               GBSA
        Solvent                        toluene
        Solvent mass                       9.2140E+01 g/mol
          :  Hamiltonian                  GFN2-xTB          :
 * total energy  :  -155.6715938 Eh     change       -0.2007226E-08 Eh
 * total energy  :  -155.6879527 Eh     change       -0.1635884E-01 Eh
 * total energy  :  -155.6922296 Eh     change       -0.4276979E-02 Eh
 * total energy  :  -155.6933247 Eh     change       -0.1095103E-02 Eh
 * total energy  :  -155.6939237 Eh     change       -0.5989673E-03 Eh
 * total energy  :  -155.6941896 Eh     change       -0.2659251E-03 Eh
 * total energy  :  -155.6944353 Eh     change       -0.2456658E-03 Eh
 * total energy  :  -155.6946428 Eh     change       -0.2075138E-03 Eh
 * total energy  :  -155.6948305 Eh     change       -0.1876884E-03 Eh
 * total energy  :  -155.6949968 Eh     change       -0.1662713E-03 Eh
 * total energy  :  -155.6970028 Eh     change       -0.2239467E-06 Eh
 * total energy  :  -155.6970030 Eh     change       -0.2078125E-06 Eh
 * total energy  :  -155.6970032 Eh     change       -0.2140676E-06 Eh
 * total energy  :  -155.6970034 Eh     change       -0.1554697E-06 Eh
 * total energy  :  -155.6970035 Eh     change       -0.1372159E-06 Eh
 * total energy  :  -155.6970037 Eh     change       -0.1827762E-06 Eh
 * total energy  :  -155.6970039 Eh     change       -0.2365207E-06 Eh
 * total energy  :  -155.6970041 Eh     change       -0.2050637E-06 Eh
 * total energy  :  -155.6970041 Eh     change       -0.5819345E-08 Eh
   *** GEOMETRY OPTIMIZATION CONVERGED AFTER 94 ITERATIONS ***

 final structure:
================
99
 xtb: 6.7.1 (edcfbbe)
C            5.95275925753478       -3.27717858239348        3.58563839347221
C            5.09374067412241       -2.23656295356720        3.26592808721233
C            4.09986237523037       -2.42323082119194        2.32460857283323
C            3.95353223005246       -3.65981663158966        1.69747850995713
C            2.90065966742403       -3.85937541085955        0.70112358658917
N            2.69508981093961       -5.09249125428510        0.24549731275357
C            1.72831560522445       -5.22633020163968       -0.65915143624979
C            1.45548250250847       -6.56582875544979       -1.18063814440657
C            0.55863973085197       -6.73934660125921       -2.23409524646223
C            0.30254842809440       -8.00526718266696       -2.72472861844875
C            0.93485553138351       -9.10734709473138       -2.16924533072970
C            1.82600152199812       -8.94141477805953       -1.11977115928912
C            2.08834215137714       -7.67773710941280       -0.62641682104252
N            0.99322052273609       -4.21624663551658       -1.11834590297814
C            1.26688656042362       -3.01852466535910       -0.60887755382417
C            0.48842423666344       -1.87372059125308       -1.08330167587800
C           -0.56668457573164       -2.05430981034644       -1.97585916451098
C           -1.28461869054962       -0.95932761827495       -2.41940666205213
C           -0.97134676461382        0.31266506633784       -1.97195775201344
C            0.07407306503925        0.50793984626890       -1.07045154576484
C            0.43113562640105        1.85744088522639       -0.59373749442014
C            1.75666225816022        2.26349589367988       -0.68140950694316
C            2.14764617005400        3.53312002378642       -0.27212259602043
N            3.49358780141383        3.91539162149344       -0.35446175069724
C            4.57022372638394        3.18278110916132        0.10691973712813
C            4.59348742367032        1.96642696082812        0.77525438609578
C            5.82240533797482        1.45406702164204        1.14492184152664
C            7.00625922100241        2.13742012719356        0.87408176233109
C            6.98867505887717        3.36147956519937        0.23547829263653
C            5.76516202183172        3.89368040055075       -0.15134294996011
C            5.38138467631446        5.11188566781553       -0.80868438061317
C            6.09650423465314        6.18832566153332       -1.31838557560988
C            5.40333852326785        7.21352823136573       -1.93072847385873
C            4.01586700298057        7.16648745704033       -2.05217228903359
C            3.28283222513731        6.10684015432796       -1.55265092534343
C            3.97131392372117        5.08510115951341       -0.91335252608786
C            1.18970124805522        4.41595385425817        0.22000403921805
C           -0.13047617457614        4.02056995887461        0.29721521181864
C           -0.53060956487257        2.74431277347950       -0.09073026256485
C           -1.93913365851428        2.34844204627052        0.07547534142251
C           -2.96220976499475        3.16183216308516       -0.40575779109120
C           -4.28568691068319        2.79644881179559       -0.25826348632302
C           -4.61451212684485        1.61483931446028        0.40024367112285
N           -5.95714545282826        1.23591954910085        0.54611707024452
C           -6.97666515393358        2.03185843159966        1.02985000728214
C           -6.92663146448747        3.32351863407647        1.53583940546886
C           -8.10563437936420        3.88772028349109        1.98452110207598
C           -9.30986783574347        3.18746461189529        1.94249279880402
C           -9.36214644006703        1.89401584121532        1.46202082684819
C           -8.18971447542210        1.30495840648525        1.00556509432766
C           -7.87733934570945        0.00793875731823        0.47316706532590
C           -8.63887328082893       -1.12013587168614        0.19492280594271
C           -8.01302426125860       -2.22372033857861       -0.34998196771566
C           -6.64762762034167       -2.20778444048740       -0.62872505258371
C           -5.86904747146831       -1.09800195866874       -0.36067934587663
C           -6.48816701488991        0.00682249426362        0.20740407090491
C           -3.59794303278559        0.81021468048565        0.90878646850915
C           -2.27667891899618        1.17128145682197        0.73983339592391
C            0.80466286788485       -0.59210001243102       -0.64167456748039
N            2.20680735717713       -2.79495469531769        0.30613845095971
C            4.81718305215475       -4.70357353273185        2.02646662510044
C            5.81289721475592       -4.50915396301033        2.96465196209694
H            6.73113338872975       -3.12806727288490        4.31932148633146
H            5.19981281970563       -1.27880012833082        3.75403986806881
H            3.42188647609347       -1.62566831977845        2.06396492789024
H            0.07763944570771       -5.87028677890455       -2.65532713768826
H           -0.39129050216657       -8.13476747791876       -3.54209988651407
H            0.73278567565085      -10.09595500208047       -2.55404684717254
H            2.31650698466373       -9.80029874648963       -0.68619512279223
H            2.77675616126652       -7.53012201892658        0.19118457591824
H           -0.80524151812860       -3.05243658883582       -2.30776073558582
H           -2.09568148123131       -1.09605122365600       -3.11927781378542
H           -1.53190170828784        1.16315843599714       -2.32954464004124
H            2.48972909259200        1.59146163579300       -1.10275856371172
H            3.68141187102189        1.43889127870990        1.00850431593315
H            5.86712764651898        0.50235511097819        1.65348239619153
H            7.94750677884466        1.70285499728512        1.17736127007238
H            7.90498395147483        3.89837454188300        0.04024281904443
H            7.17310905264363        6.21628859043942       -1.23949056075143
H            5.94043170392592        8.06063531881132       -2.33159974292236
H            3.50192754880777        7.97516185553887       -2.55136534847256
H            2.21038533631069        6.07254485531351       -1.66975641413095
H            1.48721867842952        5.39734372498854        0.55660388268788
H           -0.86717837778969        4.70105096281285        0.69796352530768
H           -2.71503928657459        4.07442772574657       -0.92817523757990
H           -5.07093827258810        3.41596326819266       -0.66512931768626
H           -5.99621064191440        3.86842978289673        1.58839023111277
H           -8.09317795326396        4.89291092896652        2.38050250529278
H          -10.21083818887565        3.66392375325121        2.30047589516682
H          -10.29250255657390        1.34602647244972        1.44398399712975
H           -9.69956713429529       -1.12764301330205        0.39734631714538
H           -8.58700363584803       -3.11151884073142       -0.57212576003736
H           -6.18766183536418       -3.08164305704181       -1.06713142979648
H           -4.81492161423695       -1.09164997363920       -0.59301555822083
H           -3.85023582866447       -0.09213283338786        1.44556252587827
H           -1.49655633413192        0.54376098335916        1.14448331045751
H            1.62030693232239       -0.47312857152413        0.05476381441419
H            4.69471316651144       -5.65488345415560        1.53231290143686
H            6.48218869480460       -5.31922033296289        3.21377461135131

          :  Hamiltonian                  GFN2-xTB          :
         :: gradient norm              0.000042248109 Eh/a0 ::
         :: HOMO-LUMO gap              1.792673761400 eV    ::
         :: SCC energy              -158.610485957384 Eh    ::
         :: -> dispersion             -0.141217517500 Eh    ::
         :: -> Gsolv                  -0.069088546130 Eh    ::
         :: repulsion energy           2.913481832754 Eh    ::

    * Orbital Energies and Occupations

         #    Occupation            Energy/Eh            Energy/eV
      -------------------------------------------------------------
         1        2.0000           -0.6915420             -18.8178
       ...           ...                  ...                  ...
       133        2.0000           -0.4144270             -11.2771
       134        2.0000           -0.4135752             -11.2540
       135        2.0000           -0.4130681             -11.2402
       136        2.0000           -0.4062193             -11.0538
       137        2.0000           -0.4052165             -11.0265
       138        2.0000           -0.4049527             -11.0193
       139        2.0000           -0.3950612             -10.7502
       140        2.0000           -0.3817522             -10.3880
       141        2.0000           -0.3814011             -10.3785
       142        2.0000           -0.3789660             -10.3122
       143        2.0000           -0.3784939             -10.2993
       144        2.0000           -0.3643502              -9.9145
       145        2.0000           -0.3602573              -9.8031 (HOMO)
       146                         -0.2943778              -8.0104 (LUMO)
       147                         -0.2939351              -7.9984
       148                         -0.2593972              -7.0586
       149                         -0.2515356              -6.8446
       150                         -0.2471279              -6.7247
       151                         -0.2454338              -6.6786
       152                         -0.2427191              -6.6047
       153                         -0.2348004              -6.3892
       154                         -0.2343399              -6.3767
       155                         -0.2325468              -6.3279
       156                         -0.2225604              -6.0562
       ...                                ...                  ...
       285                          0.7444881              20.2586
      -------------------------------------------------------------
                  HL-Gap            0.0658796 Eh            1.7927 eV

     #   Z          covCN         q      C6AA      α(0)
     1   6 C        2.920    -0.022    28.559     8.764
     2   6 C        2.918    -0.027    28.673     8.781
     3   6 C        2.924    -0.025    28.632     8.775
     4   6 C        2.983    -0.010    28.251     8.719
     5   6 C        2.980     0.218    23.402     7.935
     6   7 N        1.844    -0.324    29.244     8.014
     7   6 C        2.981     0.218    23.405     7.936
     8   6 C        2.983    -0.010    28.256     8.720
     9   6 C        2.923    -0.026    28.649     8.778
    10   6 C        2.918    -0.027    28.680     8.782
    11   6 C        2.920    -0.022    28.558     8.763
    12   6 C        2.918    -0.027    28.680     8.782
    13   6 C        2.923    -0.026    28.649     8.778
    14   7 N        1.844    -0.323    29.238     8.014
    15   6 C        2.981     0.218    23.399     7.935
    16   6 C        2.982    -0.010    28.260     8.720
    17   6 C        2.923    -0.028    28.701     8.785
    18   6 C        2.917    -0.028    28.693     8.784
    19   6 C        2.924    -0.026    28.653     8.778
    20   6 C        2.976     0.017    27.615     8.620
    21   6 C        2.979     0.008    27.834     8.654
    22   6 C        2.928    -0.048    29.187     8.860
    23   6 C        2.910     0.063    26.590     8.456
    24   7 N        2.802    -0.044    22.090     6.981
    25   6 C        3.074     0.046    26.884     8.501
    26   6 C        2.910    -0.052    29.279     8.873
    27   6 C        2.923    -0.036    28.886     8.814
    28   6 C        2.920    -0.043    29.063     8.841
    29   6 C        2.912    -0.035    28.867     8.810
    30   6 C        3.067    -0.019    28.401     8.739
    31   6 C        3.067    -0.018    28.398     8.738
    32   6 C        2.912    -0.035    28.863     8.810
    33   6 C        2.919    -0.042    29.054     8.839
    34   6 C        2.924    -0.035    28.869     8.811
    35   6 C        2.910    -0.052    29.291     8.875
    36   6 C        3.074     0.047    26.878     8.500
    37   6 C        2.920    -0.045    29.108     8.847
    38   6 C        2.925    -0.033    28.824     8.804
    39   6 C        2.978     0.005    27.910     8.666
    40   6 C        2.977     0.011    27.772     8.644
    41   6 C        2.924    -0.034    28.837     8.806
    42   6 C        2.920    -0.043    29.068     8.841
    43   6 C        2.912     0.062    26.600     8.457
    44   7 N        2.802    -0.045    22.114     6.984
    45   6 C        3.075     0.047    26.870     8.499
    46   6 C        2.910    -0.052    29.291     8.874
    47   6 C        2.924    -0.035    28.873     8.812
    48   6 C        2.920    -0.043    29.061     8.840
    49   6 C        2.912    -0.035    28.867     8.810
    50   6 C        3.067    -0.019    28.405     8.739
    51   6 C        3.067    -0.019    28.405     8.739
    52   6 C        2.912    -0.035    28.870     8.811
    53   6 C        2.919    -0.043    29.064     8.841
    54   6 C        2.924    -0.035    28.880     8.813
    55   6 C        2.909    -0.052    29.295     8.875
    56   6 C        3.075     0.047    26.874     8.500
    57   6 C        2.921    -0.043    29.062     8.840
    58   6 C        2.924    -0.031    28.778     8.797
    59   6 C        2.930    -0.031    28.782     8.798
    60   7 N        1.844    -0.323    29.237     8.013
    61   6 C        2.923    -0.026    28.646     8.777
    62   6 C        2.918    -0.027    28.676     8.781
    63   1 H        0.926     0.050     2.324     2.384
    64   1 H        0.926     0.047     2.359     2.402
    65   1 H        0.926     0.049     2.331     2.387
    66   1 H        0.926     0.050     2.319     2.381
    67   1 H        0.926     0.047     2.352     2.398
    68   1 H        0.926     0.050     2.322     2.383
    69   1 H        0.926     0.047     2.352     2.398
    70   1 H        0.926     0.050     2.319     2.382
    71   1 H        0.926     0.051     2.311     2.377
    72   1 H        0.926     0.047     2.353     2.399
    73   1 H        0.926     0.048     2.346     2.395
    74   1 H        0.926     0.042     2.416     2.431
    75   1 H        0.926     0.028     2.620     2.531
    76   1 H        0.926     0.030     2.584     2.514
    77   1 H        0.926     0.028     2.611     2.527
    78   1 H        0.926     0.031     2.572     2.508
    79   1 H        0.926     0.030     2.581     2.512
    80   1 H        0.926     0.028     2.612     2.527
    81   1 H        0.926     0.031     2.574     2.509
    82   1 H        0.926     0.032     2.558     2.501
    83   1 H        0.926     0.047     2.352     2.398
    84   1 H        0.926     0.047     2.354     2.399
    85   1 H        0.926     0.045     2.382     2.413
    86   1 H        0.926     0.045     2.380     2.412
    87   1 H        0.926     0.031     2.573     2.508
    88   1 H        0.926     0.030     2.582     2.513
    89   1 H        0.926     0.028     2.619     2.531
    90   1 H        0.926     0.030     2.588     2.516
    91   1 H        0.926     0.030     2.581     2.512
    92   1 H        0.926     0.028     2.618     2.530
    93   1 H        0.926     0.029     2.597     2.520
    94   1 H        0.926     0.029     2.606     2.524
    95   1 H        0.926     0.040     2.448     2.446
    96   1 H        0.926     0.034     2.530     2.488
    97   1 H        0.926     0.050     2.319     2.381
    98   1 H        0.926     0.050     2.322     2.383
    99   1 H        0.926     0.047     2.353     2.399

molecular dipole:
                 x           y           z       tot (Debye)
 q only:        0.023       0.184      -0.010
   full:        0.048       0.083      -0.016       0.248

 projected vibrational frequencies (cm⁻¹)
eigval :       -0.00    -0.00    -0.00     0.00     0.00     0.00
eigval :        5.00     7.04     9.79    14.51    14.97    19.24
eigval :       26.26    32.74    34.36    37.17    42.71    45.50
eigval :       55.24    60.51    75.89    79.29    85.20    92.30
eigval :       93.24    98.75   104.95   106.89   113.11   141.73
eigval :      144.82   155.61   167.96   178.42   180.49   187.59
eigval :      188.00   212.67   225.67   233.92   237.38   251.05
eigval :      256.32   270.39   271.20   274.41   283.45   288.35
eigval :      321.50   328.41   361.46   364.25   366.59   380.08
eigval :      381.17   390.43   393.70   394.70   398.79   405.97
eigval :      415.92   418.22   419.96   423.08   428.12   432.82
eigval :      436.19   447.54   470.72   503.05   514.04   517.62
eigval :      519.95   530.31   533.86   540.54   541.15   544.75
eigval :      558.02   566.44   582.44   586.52   587.24   588.03
eigval :      595.85   602.53   610.98   613.02   613.98   617.37
eigval :      628.73   634.96   652.86   658.76   663.66   672.09
eigval :      673.78   674.32   676.34   684.13   693.48   701.85
eigval :      707.49   709.57   716.28   746.38   752.95   754.64
eigval :      758.45   767.21   769.30   776.67   778.95   780.52
eigval :      793.58   795.99   805.44   820.15   837.89   846.77
eigval :      866.69   866.84   872.56   873.21   877.86   879.35
eigval :      879.43   880.79   890.98   895.97   897.37   898.19
eigval :      901.29   902.04   902.42   903.15   910.38   912.69
eigval :      913.98   917.88   920.47   921.76   921.98   925.63
eigval :      926.57   928.44   931.84   932.77   934.56   936.01
eigval :      936.52   936.93   962.00   987.84   989.36   992.59
eigval :      999.73  1011.01  1011.60  1035.35  1049.37  1068.62
eigval :     1069.35  1072.20  1073.60  1074.22  1075.15  1087.57
eigval :     1093.31  1107.83  1111.32  1116.16  1117.32  1118.82
eigval :     1135.51  1147.34  1150.55  1151.66  1163.63  1166.84
eigval :     1174.21  1175.43  1176.59  1177.41  1179.92  1180.47
eigval :     1181.66  1182.82  1185.72  1192.90  1201.00  1202.10
eigval :     1205.54  1233.65  1234.98  1235.05  1241.06  1243.58
eigval :     1248.41  1265.24  1266.52  1267.68  1271.50  1286.44
eigval :     1298.49  1300.31  1301.04  1302.80  1310.87  1312.52
eigval :     1325.34  1326.27  1327.91  1354.01  1355.79  1357.00
eigval :     1360.26  1360.54  1361.78  1368.70  1370.71  1372.45
eigval :     1399.09  1410.77  1421.60  1426.57  1427.20  1428.63
eigval :     1430.16  1430.90  1435.96  1463.26  1465.80  1473.63
eigval :     1474.08  1475.60  1479.13  1486.62  1486.66  1504.44
eigval :     1509.27  1512.83  1549.33  1561.57  1572.67  1573.14
eigval :     1574.22  1581.04  1582.87  1583.48  1586.90  1587.11
eigval :     1588.79  1592.40  1593.37  1595.99  1596.98  1597.14
eigval :     1612.68  1612.81  3069.79  3072.11  3072.82  3073.24
eigval :     3076.24  3077.20  3077.22  3078.41  3078.59  3079.70
eigval :     3080.00  3081.38  3082.43  3082.60  3082.77  3083.89
eigval :     3084.94  3086.03  3086.15  3086.89  3088.30  3091.50
eigval :     3091.68  3092.37  3092.69  3093.21  3093.58  3094.38
eigval :     3095.18  3095.65  3097.89  3101.70  3103.11  3103.65
eigval :     3104.64  3106.04  3106.89

   temp. (K)  partition function   enthalpy   heat capacity  entropy
                                   cal/mol     cal/K/mol   cal/K/mol   J/K/mol
 298.15  VIB  0.213E+25            28797.470    179.202    182.303
         ROT  0.227E+09              888.752      2.981     41.215
         INT  0.484E+33            29686.222    182.183    223.518
         TR   0.216E+29             1481.254      4.968     45.865
         TOT                       31167.4762   187.1514   269.3835  1127.1006

       T/K    H(0)-H(T)+PV         H(T)/Eh          T*S/Eh         G(T)/Eh
   ------------------------------------------------------------------------
    298.15    0.496685E-01    0.805854E+00    0.127993E+00    0.677861E+00
   ------------------------------------------------------------------------

         :::::::::::::::::::::::::::::::::::::::::::::::::::::
         ::                  THERMODYNAMIC                  ::
         :::::::::::::::::::::::::::::::::::::::::::::::::::::
         :: total free energy        -155.019142669832 Eh   ::
         ::.................................................::
         :: total energy             -155.697004128986 Eh   ::
         :: zero point energy           0.756185724502 Eh   ::
         :: G(RRHO) w/o ZPVE           -0.078324265348 Eh   ::
         :: G(RRHO) contrib.            0.677861459154 Eh   ::
         :::::::::::::::::::::::::::::::::::::::::::::::::::::

           -------------------------------------------------
          | TOTAL ENERGY             -155.697004128986 Eh   |
          | TOTAL ENTHALPY           -154.891149869587 Eh   |
          | TOTAL FREE ENERGY        -155.019142669832 Eh   |
          | GRADIENT NORM               0.000042248514 Eh/α |
          | HOMO-LUMO GAP               1.792674012296 eV   |
           -------------------------------------------------

 * finished run on 2025/08/22 at 07:36:31.787
