   * xtb version 6.7.1 (edcfbbe) compiled by 'albert@albert-system' on 2024-07-22

   ID    Z sym.   atoms
    1    6 C      1-5, 7-13, 15-23, 25-43, 45-59, 61, 62
    2    7 N      6, 14, 24, 44, 60
    3    1 H      63-99

          program call               : xtb data2507/toluene/CBPTZ/CBPTZ_toluene_S0_crest.xyz --gfn 2 --gbsa toluene --ohess vtight --parallel 40 --molden --ceasefiles --namespace data2507/toluene/CBPTZ/CBPTZ_toluene_S0_finalOpt
      * Solvation model:               GBSA
        Solvent                        toluene
        Solvent mass                       9.2140E+01 g/mol
          :  Hamiltonian                  GFN2-xTB          :
 * total energy  :  -155.7033657 Eh     change       -0.2402629E-08 Eh
 * total energy  :  -155.7034470 Eh     change       -0.8133757E-04 Eh
 * total energy  :  -155.7035104 Eh     change       -0.6335600E-04 Eh
 * total energy  :  -155.7035583 Eh     change       -0.4789365E-04 Eh
 * total energy  :  -155.7035927 Eh     change       -0.3437475E-04 Eh
 * total energy  :  -155.7036317 Eh     change       -0.3899696E-04 Eh
 * total energy  :  -155.7036514 Eh     change       -0.1973791E-04 Eh
 * total energy  :  -155.7036690 Eh     change       -0.1761983E-04 Eh
 * total energy  :  -155.7036947 Eh     change       -0.2570126E-04 Eh
 * total energy  :  -155.7037092 Eh     change       -0.1444121E-04 Eh
 * total energy  :  -155.7037816 Eh     change       -0.4801412E-06 Eh
 * total energy  :  -155.7037822 Eh     change       -0.5920745E-06 Eh
 * total energy  :  -155.7037827 Eh     change       -0.5042980E-06 Eh
 * total energy  :  -155.7037833 Eh     change       -0.6666405E-06 Eh
 * total energy  :  -155.7037841 Eh     change       -0.8166220E-06 Eh
 * total energy  :  -155.7037848 Eh     change       -0.6537161E-06 Eh
 * total energy  :  -155.7037853 Eh     change       -0.5087682E-06 Eh
 * total energy  :  -155.7037858 Eh     change       -0.5314602E-06 Eh
 * total energy  :  -155.7037858 Eh     change       -0.6526790E-08 Eh
   *** GEOMETRY OPTIMIZATION CONVERGED AFTER 44 ITERATIONS ***

 final structure:
================
99
 xtb: 6.7.1 (edcfbbe)
C           -6.76003674738805        5.46337838428905        0.07382637243433
C           -5.47335096310286        5.69640439072857        0.53543118262266
C           -4.48329626448370        4.75439454016855        0.33140842630988
C           -4.77502765240963        3.56612717159696       -0.33645515874420
C           -3.73485496087490        2.55866351419824       -0.54194273499957
N           -4.07272595021864        1.43430554655615       -1.16643814427692
C           -3.08899347887879        0.56184309512761       -1.35830898469263
C           -3.41338492165044       -0.68619326988092       -2.04951078154212
C           -2.41120133854092       -1.42691413498437       -2.67111388123810
C           -2.72400975209844       -2.60954580032103       -3.31529874775576
C           -4.03313530001451       -3.06496667229623       -3.33522380227727
C           -5.03397409845371       -2.32952121430164       -2.71976550281658
C           -4.72930067079022       -1.14126650898038       -2.08416897754309
N           -1.83361467742485        0.74630142701755       -0.96135993634946
C           -1.60018231733289        1.87487182917382       -0.29514779299249
C           -0.26928785466477        2.06017115996486        0.28754765808314
C           -0.00957655062222        3.13410265738593        1.13805849657613
C            1.22588919447857        3.24021186202914        1.74786923512696
C            2.19384380000393        2.27018652449059        1.54424436686840
C            1.94822820997325        1.18578842265320        0.70340266329930
C            2.96361261597490        0.12931698426564        0.52606065964250
C            4.28888058340198        0.48005335649739        0.30114943960459
C            5.26282500924480       -0.49194425948831        0.10203718567807
N            6.59261085428814       -0.11488902262365       -0.13638568321417
C            7.01741917591171        0.79675223083835       -1.08292302662490
C            6.28149364835533        1.50269515086135       -2.02472099850557
C            6.96661952341006        2.34339763197707       -2.88131852573417
C            8.35212299963345        2.47835972076729       -2.81548673196626
C            9.09210229556666        1.76103041141845       -1.89651375418673
C            8.42607042829539        0.90911344892479       -1.02442526980680
C            8.86367777086491        0.02086184539619        0.01634694054613
C           10.10918084581385       -0.28979778833924        0.54770535754840
C           10.17795339653189       -1.19457194151417        1.58853964386122
C            9.02378730326608       -1.77762032080730        2.10844079073017
C            7.77389906329824       -1.48472071520757        1.59682885556663
C            7.70035742518209       -0.59328626556773        0.53544632970462
C            4.90717869054553       -1.83728011271590        0.13406708385225
C            3.59366839768098       -2.19258761026995        0.37242847817119
C            2.61322836918354       -1.22881738526745        0.57555556848392
C            1.21309767082691       -1.62082627828428        0.82262013553122
C            0.54917950370688       -1.21444785406561        1.97628290528882
C           -0.80516975880225       -1.43635711909386        2.12439740602472
C           -1.53143632527688       -2.03264161867554        1.09639558351962
N           -2.93042017953089       -2.09599879321958        1.15869749049983
C           -3.72397128492697       -3.15271895328902        0.75155470705070
C           -3.36607422618600       -4.44985289923609        0.41062611479746
C           -4.37436107378581       -5.33262106015686        0.07402071663831
C           -5.71332699190826       -4.94793643607322        0.08482320517525
C           -6.07891519022345       -3.66938986194607        0.45429230533760
C           -5.08192479003461       -2.76446826764136        0.79549550189647
C           -5.10285384297615       -1.40142196899976        1.24607728699761
C           -6.12571220835835       -0.48859684282105        1.46815088127056
C           -5.80098590504181        0.78015249666865        1.90380057270243
C           -4.47228049602535        1.14297316845309        2.10925335410138
C           -3.43800313763167        0.25307228526056        1.89041515724093
C           -3.75595144278899       -1.02847459193296        1.46224501649793
C           -0.85530018762903       -2.52497578483486       -0.01627961693105
C            0.50588298139383       -2.33487869756667       -0.14011404300544
C            0.72038990561962        1.11079312415235        0.05549160942170
N           -2.51194796437482        2.81953048128741       -0.08584360615176
C           -6.06984979466319        3.33856253233638       -0.79995252236189
C           -7.05555926039512        4.28461617043117       -0.59439675062934
H           -7.53248851457150        6.20074810527800        0.23475179982108
H           -5.24333726871033        6.61484541678682        1.05507725260620
H           -3.47628770005073        4.91891074642465        0.68255465291785
H           -1.39779364161711       -1.05601797123700       -2.64377706018101
H           -1.94539186197653       -3.17955414146242       -3.80089782168231
H           -4.27390260352387       -3.99317487634224       -3.83148012856211
H           -6.05303950242959       -2.68485326902269       -2.73499681593480
H           -5.49305269082938       -0.55626151534081       -1.59581492854881
H           -0.78561684793738        3.86240821412475        1.31384438468767
H            1.43187033840556        4.07291162295668        2.40403478373989
H            3.14023734968295        2.34064445626700        2.06007016996430
H            4.56723676195382        1.52281841789066        0.26833433916504
H            5.20954434807707        1.39440706348108       -2.09558455868058
H            6.41550040273735        2.90632792037483       -3.62071239952159
H            8.85047592630505        3.14818649800988       -3.50100288325214
H           10.16714268572979        1.85430832526484       -1.85562738525270
H           11.00244109437510        0.17278226091542        0.15491198369440
H           11.13699881813370       -1.45103415832609        2.01437698126039
H            9.10780211818027       -2.47165955667013        2.93215761621212
H            6.88456330553769       -1.92920594909930        2.01750879713470
H            5.65666725350169       -2.59433939606049       -0.03963984736906
H            3.31756622074776       -3.23620097639901        0.40675876850884
H            1.09776227947792       -0.70918578247473        2.75773842444917
H           -1.30794833680141       -1.13301634781744        3.03043948651535
H           -2.33555650439676       -4.76922541654339        0.42291742438201
H           -4.11802859860998       -6.34605416715474       -0.19764759264455
H           -6.47230643261768       -5.66654294584964       -0.18659222158972
H           -7.11709409406538       -3.37496570839533        0.48617357115672
H           -7.15438517856454       -0.76879714295839        1.29782928951278
H           -6.57869849594488        1.50790833500687        2.08158341114154
H           -4.24237456136927        2.14576732195656        2.44094800522023
H           -2.41251151038568        0.56475675678487        2.02720059467414
H           -1.41057404887817       -3.00735027496935       -0.80467030946787
H            1.01756014946213       -2.68531875057003       -1.02476851987108
H            0.50379366151872        0.30912262786351       -0.63137599005745
H           -6.27928555768014        2.41443261989772       -1.31579274958282
H           -8.05756814879269        4.10435154701953       -0.95476609203272

          :  Hamiltonian                  GFN2-xTB          :
         :: gradient norm              0.000050792480 Eh/a0 ::
         :: HOMO-LUMO gap              1.865747784722 eV    ::
         :: SCC energy              -158.619440239823 Eh    ::
         :: -> dispersion             -0.164077664867 Eh    ::
         :: -> Gsolv                  -0.061708920452 Eh    ::
         :: repulsion energy           2.915654396193 Eh    ::

    * Orbital Energies and Occupations

         #    Occupation            Energy/Eh            Energy/eV
      -------------------------------------------------------------
         1        2.0000           -0.6896567             -18.7665
       ...           ...                  ...                  ...
       133        2.0000           -0.4144436             -11.2776
       134        2.0000           -0.4132857             -11.2461
       135        2.0000           -0.4120579             -11.2127
       136        2.0000           -0.4102703             -11.1640
       137        2.0000           -0.4072474             -11.0818
       138        2.0000           -0.4052568             -11.0276
       139        2.0000           -0.3955460             -10.7634
       140        2.0000           -0.3838225             -10.4443
       141        2.0000           -0.3811643             -10.3720
       142        2.0000           -0.3805805             -10.3561
       143        2.0000           -0.3787221             -10.3056
       144        2.0000           -0.3667560              -9.9799
       145        2.0000           -0.3621642              -9.8550 (HOMO)
       146                         -0.2935992              -7.9892 (LUMO)
       147                         -0.2916130              -7.9352
       148                         -0.2592690              -7.0551
       149                         -0.2522552              -6.8642
       150                         -0.2493423              -6.7849
       151                         -0.2473457              -6.7306
       152                         -0.2436974              -6.6313
       153                         -0.2358695              -6.4183
       154                         -0.2346237              -6.3844
       155                         -0.2327870              -6.3345
       156                         -0.2273125              -6.1855
       ...                                ...                  ...
       285                          0.7441701              20.2499
      -------------------------------------------------------------
                  HL-Gap            0.0685650 Eh            1.8657 eV

     #   Z          covCN         q      C6AA      α(0)
     1   6 C        2.920    -0.023    28.573     8.766
     2   6 C        2.918    -0.028    28.697     8.785
     3   6 C        2.924    -0.026    28.656     8.779
     4   6 C        2.984    -0.009    28.246     8.718
     5   6 C        2.986     0.227    23.231     7.906
     6   7 N        1.845    -0.329    29.387     8.034
     7   6 C        2.989     0.231    23.171     7.896
     8   6 C        2.985    -0.008    28.219     8.714
     9   6 C        2.924    -0.026    28.661     8.779
    10   6 C        2.918    -0.028    28.712     8.787
    11   6 C        2.920    -0.024    28.594     8.769
    12   6 C        2.918    -0.026    28.658     8.779
    13   6 C        2.924    -0.024    28.600     8.770
    14   7 N        1.844    -0.330    29.401     8.036
    15   6 C        2.986     0.226    23.260     7.911
    16   6 C        2.982    -0.012    28.299     8.726
    17   6 C        2.923    -0.029    28.724     8.789
    18   6 C        2.916    -0.029    28.719     8.788
    19   6 C        2.925    -0.029    28.729     8.790
    20   6 C        2.974     0.015    27.662     8.627
    21   6 C        2.979     0.008    27.839     8.655
    22   6 C        2.927    -0.048    29.193     8.861
    23   6 C        2.911     0.063    26.592     8.456
    24   7 N        2.802    -0.044    22.090     6.981
    25   6 C        3.074     0.046    26.885     8.501
    26   6 C        2.909    -0.052    29.297     8.875
    27   6 C        2.924    -0.035    28.874     8.812
    28   6 C        2.919    -0.043    29.057     8.840
    29   6 C        2.912    -0.035    28.863     8.810
    30   6 C        3.067    -0.018    28.396     8.738
    31   6 C        3.067    -0.018    28.398     8.738
    32   6 C        2.912    -0.035    28.862     8.810
    33   6 C        2.920    -0.043    29.056     8.839
    34   6 C        2.924    -0.035    28.868     8.811
    35   6 C        2.909    -0.052    29.293     8.875
    36   6 C        3.075     0.047    26.880     8.500
    37   6 C        2.920    -0.044    29.089     8.844
    38   6 C        2.922    -0.033    28.811     8.802
    39   6 C        2.980     0.005    27.898     8.664
    40   6 C        2.977     0.011    27.772     8.644
    41   6 C        2.924    -0.033    28.819     8.804
    42   6 C        2.921    -0.045    29.123     8.850
    43   6 C        2.913     0.064    26.558     8.451
    44   7 N        2.800    -0.057    22.341     7.020
    45   6 C        3.074     0.048    26.839     8.494
    46   6 C        2.910    -0.053    29.304     8.876
    47   6 C        2.924    -0.035    28.859     8.810
    48   6 C        2.920    -0.042    29.035     8.836
    49   6 C        2.913    -0.035    28.862     8.810
    50   6 C        3.068    -0.019    28.419     8.741
    51   6 C        3.068    -0.019    28.413     8.740
    52   6 C        2.913    -0.036    28.887     8.813
    53   6 C        2.919    -0.043    29.067     8.841
    54   6 C        2.923    -0.036    28.902     8.816
    55   6 C        2.910    -0.048    29.199     8.861
    56   6 C        3.074     0.052    26.751     8.480
    57   6 C        2.922    -0.044    29.081     8.843
    58   6 C        2.925    -0.032    28.810     8.802
    59   6 C        2.930    -0.031    28.770     8.796
    60   7 N        1.844    -0.327    29.343     8.028
    61   6 C        2.924    -0.025    28.637     8.776
    62   6 C        2.918    -0.027    28.682     8.782
    63   1 H        0.926     0.051     2.313     2.378
    64   1 H        0.926     0.048     2.351     2.398
    65   1 H        0.926     0.048     2.345     2.394
    66   1 H        0.926     0.045     2.380     2.412
    67   1 H        0.926     0.048     2.345     2.395
    68   1 H        0.926     0.050     2.315     2.379
    69   1 H        0.926     0.047     2.361     2.403
    70   1 H        0.926     0.044     2.401     2.423
    71   1 H        0.926     0.048     2.344     2.394
    72   1 H        0.926     0.048     2.339     2.392
    73   1 H        0.926     0.052     2.301     2.372
    74   1 H        0.926     0.048     2.346     2.395
    75   1 H        0.926     0.029     2.603     2.523
    76   1 H        0.926     0.029     2.597     2.520
    77   1 H        0.926     0.028     2.616     2.529
    78   1 H        0.926     0.031     2.575     2.510
    79   1 H        0.926     0.030     2.582     2.513
    80   1 H        0.926     0.028     2.616     2.529
    81   1 H        0.926     0.031     2.579     2.511
    82   1 H        0.926     0.031     2.569     2.507
    83   1 H        0.926     0.048     2.340     2.392
    84   1 H        0.926     0.047     2.353     2.399
    85   1 H        0.926     0.038     2.479     2.462
    86   1 H        0.926     0.036     2.497     2.471
    87   1 H        0.926     0.034     2.524     2.484
    88   1 H        0.926     0.037     2.483     2.464
    89   1 H        0.926     0.036     2.508     2.476
    90   1 H        0.926     0.035     2.512     2.478
    91   1 H        0.926     0.038     2.476     2.460
    92   1 H        0.926     0.029     2.597     2.520
    93   1 H        0.926     0.018     2.759     2.597
    94   1 H        0.926     0.010     2.894     2.660
    95   1 H        0.926     0.045     2.387     2.416
    96   1 H        0.926     0.046     2.376     2.411
    97   1 H        0.926     0.050     2.325     2.385
    98   1 H        0.926     0.049     2.334     2.389
    99   1 H        0.926     0.048     2.348     2.396

molecular dipole:
                 x           y           z       tot (Debye)
 q only:       -0.063      -0.625       0.016
   full:       -0.103      -0.461       0.046       1.206

 projected vibrational frequencies (cm⁻¹)
eigval :       -0.00    -0.00     0.00     0.00     0.00     0.00
eigval :       12.24    13.48    16.88    17.86    29.29    30.81
eigval :       31.43    39.57    42.00    47.28    49.92    58.01
eigval :       70.23    72.62    81.53    85.21    91.41   101.00
eigval :      103.34   108.63   110.83   120.27   121.35   133.15
eigval :      148.65   157.85   170.81   182.70   190.81   194.95
eigval :      199.88   214.00   231.09   234.53   245.81   251.79
eigval :      257.14   271.16   273.18   276.37   283.00   308.80
eigval :      314.52   338.24   357.88   365.04   371.03   374.51
eigval :      384.32   390.86   395.43   396.88   400.77   404.69
eigval :      414.67   418.83   422.16   425.43   428.69   434.73
eigval :      440.21   451.02   470.66   508.33   511.65   517.93
eigval :      518.88   529.67   537.35   541.33   542.52   551.08
eigval :      556.87   567.40   582.60   586.84   587.58   587.75
eigval :      594.82   605.02   608.67   612.54   615.46   618.29
eigval :      628.29   630.09   654.75   657.55   666.64   670.29
eigval :      673.50   675.22   675.60   685.04   693.62   700.79
eigval :      708.35   708.92   716.16   746.97   751.16   754.55
eigval :      758.81   768.57   770.27   773.92   779.00   781.90
eigval :      791.79   795.23   805.17   820.84   840.67   847.40
eigval :      865.67   870.10   870.55   874.36   875.59   877.14
eigval :      878.98   879.89   892.97   896.35   897.64   899.58
eigval :      902.13   902.35   902.43   905.63   908.02   909.45
eigval :      911.64   916.82   918.84   922.07   923.74   924.92
eigval :      925.95   926.67   928.27   930.11   930.50   931.93
eigval :      935.44   937.44   961.91   988.46   990.13   992.27
eigval :     1000.02  1011.05  1011.51  1034.45  1050.12  1069.00
eigval :     1071.03  1072.75  1074.14  1075.73  1076.43  1087.49
eigval :     1095.06  1107.30  1111.85  1116.01  1117.86  1120.81
eigval :     1134.49  1146.92  1151.67  1153.90  1164.52  1169.21
eigval :     1173.65  1174.19  1175.44  1178.28  1179.05  1180.10
eigval :     1180.83  1182.72  1186.12  1192.48  1201.15  1203.04
eigval :     1207.97  1231.54  1235.22  1236.09  1240.07  1244.22
eigval :     1250.78  1264.50  1265.80  1267.90  1271.13  1287.41
eigval :     1298.78  1299.13  1301.27  1303.72  1306.97  1314.88
eigval :     1324.63  1326.48  1327.79  1353.46  1356.25  1357.94
eigval :     1360.36  1362.24  1363.19  1369.45  1372.66  1374.33
eigval :     1395.25  1406.79  1425.05  1426.67  1427.51  1428.94
eigval :     1430.25  1432.13  1440.67  1461.03  1466.25  1473.44
eigval :     1474.39  1475.96  1479.72  1486.49  1487.15  1503.69
eigval :     1512.37  1516.15  1549.89  1562.16  1572.13  1573.27
eigval :     1575.14  1582.23  1584.58  1585.82  1587.10  1588.01
eigval :     1588.69  1593.18  1594.42  1596.81  1597.09  1597.94
eigval :     1612.53  1613.95  3067.69  3071.09  3071.52  3076.19
eigval :     3076.37  3076.89  3077.11  3077.22  3077.62  3078.66
eigval :     3079.06  3081.03  3081.50  3081.60  3082.43  3082.98
eigval :     3084.03  3084.97  3086.14  3088.96  3090.67  3090.82
eigval :     3091.29  3092.14  3092.75  3093.29  3093.45  3094.31
eigval :     3097.50  3097.75  3099.19  3101.21  3104.74  3105.23
eigval :     3106.32  3110.71  3120.18

   temp. (K)  partition function   enthalpy   heat capacity  entropy
                                   cal/mol     cal/K/mol   cal/K/mol   J/K/mol
 298.15  VIB  0.825E+22            28453.427    180.615    176.734
         ROT  0.152E+09              888.752      2.981     40.415
         INT  0.125E+31            29342.180    183.595    217.149
         TR   0.216E+29             1481.254      4.968     45.865
         TOT                       30823.4337   188.5636   263.0144  1100.4523

       T/K    H(0)-H(T)+PV         H(T)/Eh          T*S/Eh         G(T)/Eh
   ------------------------------------------------------------------------
    298.15    0.491203E-01    0.806103E+00    0.124967E+00    0.681136E+00
   ------------------------------------------------------------------------

         :::::::::::::::::::::::::::::::::::::::::::::::::::::
         ::                  THERMODYNAMIC                  ::
         :::::::::::::::::::::::::::::::::::::::::::::::::::::
         :: total free energy        -155.022649605407 Eh   ::
         ::.................................................::
         :: total energy             -155.703785842248 Eh   ::
         :: zero point energy           0.756982607789 Eh   ::
         :: G(RRHO) w/o ZPVE           -0.075846370949 Eh   ::
         :: G(RRHO) contrib.            0.681136236841 Eh   ::
         :::::::::::::::::::::::::::::::::::::::::::::::::::::

           -------------------------------------------------
          | TOTAL ENERGY             -155.703785842248 Eh   |
          | TOTAL ENTHALPY           -154.897682966173 Eh   |
          | TOTAL FREE ENERGY        -155.022649605407 Eh   |
          | GRADIENT NORM               0.000050797589 Eh/α |
          | HOMO-LUMO GAP               1.865747446172 eV   |
           -------------------------------------------------

 * finished run on 2025/08/22 at 07:42:08.822
