   * xtb version 6.7.1 (edcfbbe) compiled by 'albert@albert-system' on 2024-07-22

   ID    Z sym.   atoms
    1    6 C      1-22, 24-26, 28-51, 53, 55, 56
    2    7 N      23, 27, 52, 54
    3    1 H      57-90

          program call               : xtb data2507/toluene/pCbz-PYR/pCbz-PYR_toluene_S0_crest.xyz --gfn 2 --gbsa toluene --ohess vtight --parallel 40 --molden --ceasefiles --namespace data2507/toluene/pCbz-PYR/pCbz-PYR_toluene_S0_finalOpt
      * Solvation model:               GBSA
        Solvent                        toluene
        Solvent mass                       9.2140E+01 g/mol
          :  Hamiltonian                  GFN2-xTB          :
 * total energy  :  -140.5159917 Eh     change       -0.1705843E-08 Eh
 * total energy  :  -140.5160360 Eh     change       -0.4426357E-04 Eh
 * total energy  :  -140.5160538 Eh     change       -0.1777094E-04 Eh
 * total energy  :  -140.5160576 Eh     change       -0.3803982E-05 Eh
 * total energy  :  -140.5160606 Eh     change       -0.3044179E-05 Eh
 * total energy  :  -140.5160635 Eh     change       -0.2915129E-05 Eh
 * total energy  :  -140.5160662 Eh     change       -0.2707561E-05 Eh
 * total energy  :  -140.5160686 Eh     change       -0.2320900E-05 Eh
 * total energy  :  -140.5160716 Eh     change       -0.3019456E-05 Eh
 * total energy  :  -140.5160756 Eh     change       -0.4042996E-05 Eh
 * total energy  :  -140.5161395 Eh     change       -0.1178182E-05 Eh
 * total energy  :  -140.5161410 Eh     change       -0.1527834E-05 Eh
 * total energy  :  -140.5161428 Eh     change       -0.1806164E-05 Eh
 * total energy  :  -140.5161447 Eh     change       -0.1862912E-05 Eh
 * total energy  :  -140.5161464 Eh     change       -0.1714304E-05 Eh
 * total energy  :  -140.5161480 Eh     change       -0.1581362E-05 Eh
 * total energy  :  -140.5161495 Eh     change       -0.1526715E-05 Eh
 * total energy  :  -140.5161511 Eh     change       -0.1596186E-05 Eh
 * total energy  :  -140.5161511 Eh     change       -0.7324388E-08 Eh
   *** GEOMETRY OPTIMIZATION CONVERGED AFTER 44 ITERATIONS ***

 final structure:
================
90
 xtb: 6.7.1 (edcfbbe)
C           10.15681750693291       -2.86067071120679       -2.44540429595247
C            9.95300386962312       -2.33604167317472       -1.17969243538442
C            8.66957503970775       -2.09529252302522       -0.72456494553197
C            7.56624148491072       -2.38064252501147       -1.52641015349248
C            6.19965110838931       -2.12615752367868       -1.04199175911792
C            5.18221758007161       -3.05723227248399       -1.28544216523047
C            3.88474137482962       -2.86075731274132       -0.85263769667450
C            3.60195272524609       -1.69731285839433       -0.15633780210880
C            4.61095123534127       -0.74650023897121        0.09901332365358
C            5.90688276713294       -0.96153811377856       -0.34185594119874
C            3.99380636851989        0.32722146056488        0.83422275949960
C            4.50071934020391        1.48489179982500        1.40111847185491
C            3.65287949930088        2.31544964898646        2.12483169718512
C            4.15987070366765        3.55430906177084        2.73652177086193
C            5.40181814342871        3.57827011843200        3.36775894663514
C            5.87533770269526        4.74084947548364        3.94762576854859
C            5.11953531131595        5.90080633173937        3.90129282211713
C            3.88483039608495        5.88950983273157        3.27350856956020
C            3.40735084046724        4.72642210623678        2.69772730788632
C            2.31326910867756        1.94707746405574        2.29203114554467
C            1.79138498028834        0.79345737028914        1.73739211411214
C            2.62893062455044       -0.00674047206613        0.97423225385718
N            2.38880847021026       -1.22641706898622        0.34527300701729
C            1.16750590022312       -1.83856926557173        0.16649800624843
C           -0.00553153923650       -1.10266049610036        0.00155915223899
C           -1.18686726313406       -1.82617652612714       -0.15895975961002
N           -2.40112979497144       -1.20141361506131       -0.34179253248776
C           -3.61989386293883       -1.65649629289517        0.16083954992103
C           -3.91640847417794       -2.81338095674865        0.86232567891275
C           -5.21688959455168       -2.99432301554612        1.29285923785198
C           -6.22415963787516       -2.05397856696137        1.04262535584063
C           -7.59497726391239       -2.29370698090017        1.52264216752403
C           -8.69243028123910       -1.99765611299909        0.71652562954737
C           -9.97990618775301       -2.22661240963752        1.16619048293703
C          -10.19386569219622       -2.75012692783716        2.43067879648394
C           -9.11070589041397       -3.04446564174057        3.24243580401552
C           -7.82249016639385       -2.82004355787129        2.79265792427164
C           -5.91723896675123       -0.89538125485365        0.33849660824276
C           -4.61825035446377       -0.69624446311430       -0.10080465652439
C           -3.98871307288777        0.36681230011108       -0.84099622835162
C           -4.48264615870569        1.52658779583607       -1.41500904178390
C           -3.62535405223976        2.34346785284667       -2.14309569411504
C           -4.11847497494811        3.58446692287348       -2.76178256867369
C           -3.35451491820001        4.74921507898832       -2.72582026140855
C           -3.81936606177887        5.91474342618672       -3.30699037128573
C           -5.05248658004794        5.93566210307506       -3.93763044040480
C           -5.81940295564454        4.78292880151802       -3.98152592698894
C           -5.35862438932563        3.61801625026528       -3.39607813478832
C           -2.28978414717230        1.95953027899643       -2.30733707180434
C           -1.78082750722129        0.80359224127279       -1.74550809919855
C           -2.62745857955226        0.01717193269806       -0.97804981994897
N           -1.18931865611165       -3.16496598239464       -0.12086894775083
C           -0.02055546270515       -3.75315329155222        0.00975308478811
N            1.15485873646450       -3.17749059658673        0.13671542322850
C            7.78343443894487       -2.90897510245805       -2.79736762813000
C            9.06763377068762       -3.14494307985700       -3.25268622955974
H           11.15965184743786       -3.04732757731932       -2.80122474254183
H           10.79840524297091       -2.11556863900500       -0.54356392725200
H            8.51681713762490       -1.70212765214236        0.27020065496565
H            5.42463667946915       -3.96874611744877       -1.81126207167888
H            3.11775699926589       -3.59495693384921       -1.03755035211450
H            6.67227918240530       -0.22216709995616       -0.16263109267390
H            5.54124875757720        1.74039133504342        1.27358546602279
H            5.98860912581863        2.67276359363024        3.42274558809756
H            6.83741760806294        4.74174081713368        4.43980060062713
H            5.49071537461991        6.80925091286676        4.35291962048997
H            3.29198163493482        6.79209001677674        3.23124473179839
H            2.45017621168051        4.72855135871990        2.19629102351196
H            1.67210579499142        2.56816809462025        2.89961239054274
H            0.76545590323718        0.52332339213590        1.93454647511002
H            0.00061450855075       -0.02823882843825       -0.00173637111398
H           -3.15759951286296       -3.55463571870159        1.05263397488780
H           -5.46988114951830       -3.90102722753731        1.82197011663838
H           -8.53203169070827       -1.60576517204522       -0.27753132880398
H          -10.82050039377557       -1.99792927354816        0.52660950379650
H          -11.19985631770567       -2.92809505238486        2.78200778176305
H           -9.27083567666512       -3.44888497916658        4.23179906164160
H           -6.98316214835302       -3.03629288533948        3.43780689018154
H           -6.67402125621432       -0.14850554659617        0.15412276512060
H           -5.52042024848590        1.79421017495510       -1.28983577289185
H           -2.39850185355740        4.74374474304482       -2.22219208702744
H           -3.21794473446911        6.81171883545030       -3.26659390827295
H           -5.41384126756280        6.84594821978876       -4.39348649820790
H           -6.78021204547762        4.79142255754966       -4.47610475012769
H           -5.95402790441175        2.71801264393477       -3.44891269034760
H           -1.64162009330046        2.57002974701250       -2.91824724040335
H           -0.75784533624775        0.52106553509738       -1.94059688062756
H           -0.02675412228949       -4.83637699650508        0.01316708643405
H            6.93930937139262       -3.11733221437063       -3.43885978755362
H            9.21994169529250       -3.55018765636144       -4.24294033457620

          :  Hamiltonian                  GFN2-xTB          :
         :: gradient norm              0.000066167620 Eh/a0 ::
         :: HOMO-LUMO gap              2.538777317770 eV    ::
         :: SCC energy              -143.162995965909 Eh    ::
         :: -> dispersion             -0.122589645856 Eh    ::
         :: -> Gsolv                  -0.060344955680 Eh    ::
         :: repulsion energy           2.646844881439 Eh    ::

    * Orbital Energies and Occupations

         #    Occupation            Energy/Eh            Energy/eV
      -------------------------------------------------------------
         1        2.0000           -0.7002063             -19.0536
       ...           ...                  ...                  ...
       119        2.0000           -0.4052417             -11.0272
       120        2.0000           -0.4052350             -11.0270
       121        2.0000           -0.4045312             -11.0079
       122        2.0000           -0.4039527             -10.9921
       123        2.0000           -0.4036877             -10.9849
       124        2.0000           -0.4036807             -10.9847
       125        2.0000           -0.3964597             -10.7882
       126        2.0000           -0.3963729             -10.7859
       127        2.0000           -0.3851871             -10.4815
       128        2.0000           -0.3845426             -10.4639
       129        2.0000           -0.3844431             -10.4612
       130        2.0000           -0.3747017             -10.1962
       131        2.0000           -0.3701557             -10.0725 (HOMO)
       132                         -0.2768574              -7.5337 (LUMO)
       133                         -0.2661105              -7.2412
       134                         -0.2530745              -6.8865
       135                         -0.2519967              -6.8572
       136                         -0.2489341              -6.7738
       137                         -0.2488131              -6.7705
       138                         -0.2365197              -6.4360
       139                         -0.2321262              -6.3165
       140                         -0.2233308              -6.0771
       141                         -0.2233214              -6.0769
       142                         -0.2217783              -6.0349
       ...                                ...                  ...
       258                          0.7381845              20.0870
      -------------------------------------------------------------
                  HL-Gap            0.0932983 Eh            2.5388 eV

     #   Z          covCN         q      C6AA      α(0)
     1   6 C        2.920    -0.032    28.804     8.801
     2   6 C        2.918    -0.031    28.763     8.795
     3   6 C        2.925    -0.035    28.871     8.812
     4   6 C        2.977     0.010    27.790     8.647
     5   6 C        2.976     0.004    27.936     8.670
     6   6 C        2.929    -0.037    28.912     8.818
     7   6 C        2.909    -0.047    29.178     8.857
     8   6 C        3.062     0.052    26.770     8.485
     9   6 C        3.060    -0.015    28.317     8.727
    10   6 C        2.918    -0.038    28.953     8.824
    11   6 C        3.062    -0.012    28.257     8.717
    12   6 C        2.918    -0.037    28.929     8.820
    13   6 C        2.976     0.004    27.926     8.668
    14   6 C        2.977     0.010    27.797     8.648
    15   6 C        2.925    -0.035    28.869     8.811
    16   6 C        2.918    -0.030    28.756     8.794
    17   6 C        2.920    -0.032    28.796     8.800
    18   6 C        2.918    -0.030    28.760     8.794
    19   6 C        2.925    -0.035    28.875     8.812
    20   6 C        2.928    -0.038    28.935     8.822
    21   6 C        2.909    -0.051    29.274     8.872
    22   6 C        3.056     0.044    26.958     8.515
    23   7 N        2.801    -0.050    22.199     6.998
    24   6 C        2.918     0.174    24.267     8.078
    25   6 C        2.912    -0.095    30.388     9.039
    26   6 C        2.918     0.174    24.267     8.078
    27   7 N        2.801    -0.050    22.198     6.998
    28   6 C        3.062     0.052    26.770     8.485
    29   6 C        2.909    -0.047    29.178     8.857
    30   6 C        2.929    -0.037    28.913     8.818
    31   6 C        2.976     0.004    27.936     8.670
    32   6 C        2.977     0.010    27.790     8.647
    33   6 C        2.925    -0.035    28.871     8.812
    34   6 C        2.918    -0.031    28.763     8.795
    35   6 C        2.920    -0.032    28.804     8.801
    36   6 C        2.918    -0.031    28.763     8.795
    37   6 C        2.925    -0.035    28.876     8.812
    38   6 C        2.918    -0.038    28.953     8.824
    39   6 C        3.060    -0.015    28.318     8.727
    40   6 C        3.062    -0.012    28.257     8.717
    41   6 C        2.918    -0.037    28.929     8.820
    42   6 C        2.976     0.004    27.926     8.668
    43   6 C        2.977     0.010    27.797     8.648
    44   6 C        2.925    -0.035    28.874     8.812
    45   6 C        2.918    -0.030    28.760     8.794
    46   6 C        2.920    -0.032    28.796     8.800
    47   6 C        2.918    -0.030    28.756     8.794
    48   6 C        2.925    -0.035    28.869     8.811
    49   6 C        2.928    -0.038    28.935     8.821
    50   6 C        2.909    -0.051    29.274     8.872
    51   6 C        3.056     0.044    26.958     8.515
    52   7 N        1.842    -0.292    28.419     7.900
    53   6 C        2.913     0.159    24.556     8.126
    54   7 N        1.842    -0.292    28.419     7.900
    55   6 C        2.925    -0.035    28.876     8.812
    56   6 C        2.918    -0.031    28.763     8.795
    57   1 H        0.926     0.031     2.570     2.507
    58   1 H        0.926     0.032     2.560     2.502
    59   1 H        0.926     0.033     2.540     2.492
    60   1 H        0.926     0.041     2.431     2.438
    61   1 H        0.926     0.047     2.353     2.399
    62   1 H        0.926     0.043     2.412     2.429
    63   1 H        0.926     0.044     2.390     2.418
    64   1 H        0.926     0.034     2.536     2.490
    65   1 H        0.926     0.032     2.553     2.498
    66   1 H        0.926     0.032     2.562     2.503
    67   1 H        0.926     0.032     2.559     2.501
    68   1 H        0.926     0.032     2.553     2.499
    69   1 H        0.926     0.041     2.436     2.441
    70   1 H        0.926     0.029     2.601     2.522
    71   1 H        0.926     0.050     2.319     2.381
    72   1 H        0.926     0.047     2.352     2.398
    73   1 H        0.926     0.041     2.431     2.438
    74   1 H        0.926     0.033     2.540     2.492
    75   1 H        0.926     0.032     2.560     2.502
    76   1 H        0.926     0.031     2.570     2.507
    77   1 H        0.926     0.031     2.567     2.505
    78   1 H        0.926     0.032     2.554     2.499
    79   1 H        0.926     0.043     2.411     2.428
    80   1 H        0.926     0.044     2.390     2.418
    81   1 H        0.926     0.032     2.554     2.499
    82   1 H        0.926     0.032     2.559     2.501
    83   1 H        0.926     0.032     2.562     2.503
    84   1 H        0.926     0.032     2.553     2.498
    85   1 H        0.926     0.034     2.536     2.490
    86   1 H        0.926     0.041     2.436     2.441
    87   1 H        0.926     0.029     2.600     2.522
    88   1 H        0.925     0.042     2.426     2.436
    89   1 H        0.926     0.032     2.555     2.500
    90   1 H        0.926     0.031     2.567     2.505

molecular dipole:
                 x           y           z       tot (Debye)
 q only:        0.004       0.956      -0.004
   full:        0.005       1.089      -0.004       2.767

 projected vibrational frequencies (cm⁻¹)
eigval :       -0.00    -0.00     0.00     0.00     0.00     0.00
eigval :        8.36     9.18    11.26    31.54    33.00    37.94
eigval :       39.56    41.12    42.87    43.33    46.52    56.94
eigval :       60.61    65.87    73.19    84.50    93.59    95.85
eigval :      114.09   125.33   126.50   147.26   152.19   167.29
eigval :      179.44   191.60   207.15   210.71   220.26   240.91
eigval :      246.41   246.69   263.88   271.77   282.34   307.37
eigval :      314.08   326.91   347.89   359.94   363.51   371.79
eigval :      371.94   372.60   373.18   380.66   385.44   394.47
eigval :      396.18   406.27   420.48   433.00   438.98   445.09
eigval :      465.06   476.34   477.61   482.58   484.69   504.50
eigval :      505.77   551.23   554.05   566.03   573.34   577.39
eigval :      585.11   586.34   589.28   592.25   592.61   611.48
eigval :      611.66   616.94   622.13   627.61   631.01   647.98
eigval :      667.29   667.65   673.53   673.85   679.17   685.90
eigval :      689.15   689.54   711.65   712.02   722.15   731.07
eigval :      742.00   742.49   754.65   758.19   758.91   759.22
eigval :      770.20   815.97   826.59   829.89   829.91   852.34
eigval :      859.39   864.57   872.60   873.23   874.03   874.97
eigval :      880.20   880.73   881.68   883.76   900.99   901.53
eigval :      902.20   902.37   902.65   905.36   910.29   915.07
eigval :      916.98   917.00   922.22   929.41   930.16   930.35
eigval :      930.39   932.25   932.30   932.34   932.61   937.05
eigval :      971.31   971.52   980.57   981.57  1020.01  1026.84
eigval :     1027.79  1033.48  1070.28  1070.45  1071.47  1074.05
eigval :     1084.63  1085.00  1085.61  1085.64  1118.38  1120.29
eigval :     1120.37  1120.70  1120.91  1136.38  1157.14  1160.02
eigval :     1173.03  1179.37  1179.70  1179.80  1180.31  1194.03
eigval :     1198.51  1199.30  1200.06  1204.57  1212.85  1213.98
eigval :     1220.12  1222.22  1231.32  1240.67  1245.56  1268.65
eigval :     1274.74  1280.10  1280.28  1280.50  1280.52  1281.25
eigval :     1295.59  1297.71  1299.22  1303.26  1315.64  1316.40
eigval :     1317.06  1317.18  1321.46  1336.33  1341.37  1344.20
eigval :     1351.80  1355.64  1401.53  1401.85  1417.91  1420.18
eigval :     1427.64  1428.35  1429.75  1430.94  1431.93  1457.25
eigval :     1457.87  1458.35  1464.19  1465.86  1491.62  1491.66
eigval :     1493.70  1493.73  1507.63  1552.10  1565.70  1567.28
eigval :     1573.68  1574.08  1581.21  1581.29  1582.63  1582.77
eigval :     1592.32  1592.39  1596.03  1596.05  1601.08  1601.12
eigval :     1610.29  1610.32  3047.58  3066.02  3066.29  3066.88
eigval :     3067.04  3067.69  3067.76  3069.07  3069.11  3076.34
eigval :     3076.45  3076.70  3076.75  3079.57  3079.62  3080.33
eigval :     3080.41  3082.43  3082.63  3086.62  3086.76  3088.32
eigval :     3088.39  3088.75  3088.88  3091.11  3091.32  3093.47
eigval :     3093.63  3096.28  3096.44  3113.45  3113.95  3142.28

   temp. (K)  partition function   enthalpy   heat capacity  entropy
                                   cal/mol     cal/K/mol   cal/K/mol   J/K/mol
 298.15  VIB  0.264E+21            25605.755    161.675    160.445
         ROT  0.967E+08              888.752      2.981     39.520
         INT  0.256E+29            26494.507    164.656    199.965
         TR   0.185E+29             1481.254      4.968     45.560
         TOT                       27975.7612   169.6244   245.5255  1027.2787

       T/K    H(0)-H(T)+PV         H(T)/Eh          T*S/Eh         G(T)/Eh
   ------------------------------------------------------------------------
    298.15    0.445822E-01    0.734601E+00    0.116657E+00    0.617944E+00
   ------------------------------------------------------------------------

         :::::::::::::::::::::::::::::::::::::::::::::::::::::
         ::                  THERMODYNAMIC                  ::
         :::::::::::::::::::::::::::::::::::::::::::::::::::::
         :: total free energy        -139.898207382092 Eh   ::
         ::.................................................::
         :: total energy             -140.516151082640 Eh   ::
         :: zero point energy           0.690018573981 Eh   ::
         :: G(RRHO) w/o ZPVE           -0.072074873433 Eh   ::
         :: G(RRHO) contrib.            0.617943700548 Eh   ::
         :::::::::::::::::::::::::::::::::::::::::::::::::::::

           -------------------------------------------------
          | TOTAL ENERGY             -140.516151082640 Eh   |
          | TOTAL ENTHALPY           -139.781550295395 Eh   |
          | TOTAL FREE ENERGY        -139.898207382092 Eh   |
          | GRADIENT NORM               0.000066164070 Eh/α |
          | HOMO-LUMO GAP               2.538777155443 eV   |
           -------------------------------------------------

 * finished run on 2025/08/24 at 16:51:50.313
