   * xtb version 6.7.1 (edcfbbe) compiled by 'albert@albert-system' on 2024-07-22

   ID    Z sym.   atoms
    1    6 C      1-22, 24-26, 28-51, 53, 55, 56
    2    7 N      23, 27, 52, 54
    3    1 H      57-90

          program call               : xtb data2507/toluene/pCbz-PYR/pCbz-PYR_toluene_S0_finalOpt.xtbopt.xyz --gfn 2 --uhf 2 --gbsa toluene --ohess vtight --parallel 40 --molden --ceasefiles --namespace data2507/toluene/pCbz-PYR/pCbz-PYR_toluene_T1_preOpt
      * Solvation model:               GBSA
        Solvent                        toluene
        Solvent mass                       9.2140E+01 g/mol
          :  Hamiltonian                  GFN2-xTB          :
 * total energy  :  -140.4154080 Eh     change       -0.5031183E-08 Eh
 * total energy  :  -140.4179794 Eh     change       -0.2571409E-02 Eh
 * total energy  :  -140.4186261 Eh     change       -0.6466972E-03 Eh
 * total energy  :  -140.4187039 Eh     change       -0.7773412E-04 Eh
 * total energy  :  -140.4187604 Eh     change       -0.5654905E-04 Eh
 * total energy  :  -140.4187884 Eh     change       -0.2796055E-04 Eh
 * total energy  :  -140.4188172 Eh     change       -0.2879045E-04 Eh
 * total energy  :  -140.4188403 Eh     change       -0.2310308E-04 Eh
 * total energy  :  -140.4188572 Eh     change       -0.1687919E-04 Eh
 * total energy  :  -140.4188678 Eh     change       -0.1062962E-04 Eh
 * total energy  :  -140.4189133 Eh     change       -0.4465169E-06 Eh
 * total energy  :  -140.4189137 Eh     change       -0.3970726E-06 Eh
 * total energy  :  -140.4189141 Eh     change       -0.4208950E-06 Eh
 * total energy  :  -140.4189144 Eh     change       -0.3296120E-06 Eh
 * total energy  :  -140.4189146 Eh     change       -0.2305596E-06 Eh
 * total energy  :  -140.4189148 Eh     change       -0.1697486E-06 Eh
 * total energy  :  -140.4189148 Eh     change        0.1947382E-07 Eh
 * total energy  :  -140.4189149 Eh     change       -0.1282284E-06 Eh
 * total energy  :  -140.4189150 Eh     change       -0.6429124E-07 Eh
   *** GEOMETRY OPTIMIZATION CONVERGED AFTER 32 ITERATIONS ***

 final structure:
================
90
 xtb: 6.7.1 (edcfbbe)
C           10.14390302277149       -2.88731765102066       -2.44091031241050
C            9.94011271278311       -2.31996716099856       -1.19279331906734
C            8.65820150372834       -2.06559392807197       -0.74436317530953
C            7.55026857634338       -2.38295848804002       -1.53304095446474
C            6.18962050651337       -2.12216583712683       -1.05369074069764
C            5.15685511466059       -3.03966312747514       -1.32101217256756
C            3.86124157987832       -2.82646930701563       -0.89791358549011
C            3.58742248170014       -1.66770301586593       -0.18334310792373
C            4.61333415872954       -0.72512210153288        0.09437484815847
C            5.90707361598800       -0.96083862099875       -0.33420569207252
C            4.00090659902667        0.33497455259552        0.84345527340412
C            4.49496667278139        1.49493341323331        1.41257406776621
C            3.64280602059870        2.31514302919398        2.14971049682157
C            4.13900292520401        3.55589059002146        2.75226701481659
C            5.41577851397536        3.61787353566348        3.31400288711219
C            5.87876236393551        4.78654168042054        3.88735753560691
C            5.08089264245769        5.91988283759882        3.90500517283089
C            3.81307651619145        5.87330913093250        3.34679372332970
C            3.34447052278074        4.70379514949279        2.77962036244915
C            2.30314899514461        1.92667301943723        2.33179495590169
C            1.79246510180013        0.77164138317818        1.77513898568543
C            2.63095186225552       -0.01604457805938        0.99577209402475
N            2.39143994409574       -1.21646583343656        0.34608952388308
C            1.16904571578907       -1.83575562671290        0.17205565100777
C           -0.00589484314921       -1.11221760979926       -0.00090635721710
C           -1.18828978347767       -1.82407003111194       -0.17142310952282
N           -2.40400692818102       -1.19274237264886       -0.34887200078086
C           -3.60513041207774       -1.62944215698422        0.18108704001638
C           -3.89179349244650       -2.78209401920709        0.90052022213093
C           -5.18994735933321       -2.97974766788915        1.32339899643351
C           -6.21292386816050       -2.05279575163954        1.05094144684613
C           -7.57665942061932       -2.29708951557650        1.53026957862732
C           -8.68063220212645       -1.97133519812503        0.73940900795195
C           -9.96549006557275       -2.21030024556173        1.18782669058493
C          -10.17622186230810       -2.77018463664142        2.43815882540491
C           -9.08942684191338       -3.09259186959443        3.23591474546851
C           -7.80324754988718       -2.86216248671696        2.78691512324861
C           -5.91751675910667       -0.89785481348673        0.32637061927439
C           -4.62098244314737       -0.67760945733329       -0.10189942687784
C           -3.99691976446781        0.37288421527924       -0.85484779942648
C           -4.47851548159527        1.53546513809306       -1.42926947417763
C           -3.61713144565872        2.34398468894371       -2.16855073077788
C           -4.10017443343642        3.58730222353060       -2.77652138988573
C           -3.29505146835251        4.72772658538688       -2.80546032573676
C           -3.75171703621048        5.89985184826386       -3.37701174407735
C           -5.01780973898872        5.95637816158871       -3.93821159105719
C           -5.82594448864071        4.83035207405800       -3.91934139171307
C           -5.37498119360706        3.65920465099841       -3.34148149861078
C           -2.28124133819284        1.94135069167027       -2.34718528818817
C           -1.78299983649955        0.78340023190923       -1.78527636803561
C           -2.63044146211422        0.00733347929486       -1.00394036267487
N           -1.18798646789589       -3.19881207390831       -0.10652839737980
C           -0.01986374353698       -3.78135301290295        0.00410116717221
N            1.15431597609937       -3.21065917931948        0.11244788064869
C            7.76980788183301       -2.95576271509210       -2.78742202289310
C            9.05311759867923       -3.20164783763577       -3.23644319777520
H           11.14650291173559       -3.08331927405355       -2.79177438678178
H           10.78593800322348       -2.07753711578182       -0.56544178602561
H            8.50826069934282       -1.64383841026479        0.23873205072997
H            5.39073954773387       -3.94673891966190       -1.85703887245441
H            3.07969719114357       -3.54141225153984       -1.09936731959818
H            6.68473910535023       -0.23943781104189       -0.13522962858562
H            5.52916581613368        1.76859790515670        1.27083437440767
H            6.03630140099569        2.73374251087149        3.32445394598946
H            6.86595443098015        4.81487006005724        4.32607323025246
H            5.44493730125423        6.83366713382476        4.35127829342074
H            3.18818525199045        6.75499990395584        3.35232151424862
H            2.36254443044310        4.68176162561867        2.32963855717914
H            1.66413127502663        2.53230178359680        2.95611259767644
H            0.77228637077108        0.48282548389419        1.97720615100026
H           -0.00028788122195       -0.03548538984351       -0.00281514772690
H           -3.11798295194150       -3.50426344915831        1.10599629180890
H           -5.43374231732892       -3.88190315724411        1.86330594245217
H           -8.52548910950419       -1.55544574799954       -0.24537735082199
H          -10.80818898350568       -1.96163847443473        0.55871634942637
H          -11.18110734900561       -2.95420944216467        2.78895996935011
H           -9.24687352247495       -3.52359964199433        4.21431239594711
H           -6.96311369664990       -3.09747608003012        3.42377592431282
H           -6.68720076799031       -0.16917591396804        0.12311313688809
H           -5.51005615617939        1.82020242278883       -1.28997737986878
H           -2.31436800930438        4.69793491968037       -2.35321035160140
H           -3.11882563148758        6.77581462189055       -3.38357822046889
H           -5.37258838905576        6.87219051002168       -4.38780778526545
H           -6.81177641041152        4.86637346239367       -4.36053424100336
H           -6.00347368039236        2.78069856997345       -3.35075206115200
H           -1.63527295007538        2.53815637739354       -2.97286417607820
H           -0.76552777972100        0.48352498064318       -1.98484468315817
H           -0.02557705644840       -4.86553944410867        0.00646639860011
H            6.92668673714226       -3.18491075032190       -3.42258770816952
H            9.20521398697950       -3.63842792805641       -4.21312417757962

          :  Hamiltonian                  GFN2-xTB          :
         :: gradient norm              0.000044699711 Eh/a0 ::
         :: HOMO-LUMO gap              0.356179641859 eV    ::
         :: SCC energy              -143.046022954749 Eh    ::
         :: -> dispersion             -0.122489755013 Eh    ::
         :: -> Gsolv                  -0.061385057434 Eh    ::
         :: repulsion energy           2.627107972893 Eh    ::

    * Orbital Energies and Occupations

         #    Occupation            Energy/Eh            Energy/eV
      -------------------------------------------------------------
         1        2.0000           -0.6870512             -18.6956
       ...           ...                  ...                  ...
       120        2.0000           -0.4060952             -11.0504
       121        2.0000           -0.4059041             -11.0452
       122        2.0000           -0.4058771             -11.0445
       123        2.0000           -0.4050216             -11.0212
       124        2.0000           -0.3996838             -10.8759
       125        2.0000           -0.3968976             -10.8001
       126        2.0000           -0.3966849             -10.7943
       127        2.0000           -0.3823243             -10.4036
       128        2.0000           -0.3822473             -10.4015
       129        1.9897           -0.3735694             -10.1653
       130        1.9193           -0.3715472             -10.1103
       131        1.0911           -0.3670506              -9.9880
       132        0.9989           -0.2680314              -7.2935 (HOMO)
       133        0.0010           -0.2549425              -6.9373 (LUMO)
       134        0.0000           -0.2518858              -6.8542
       135        0.0000           -0.2518675              -6.8537
       136        0.0000           -0.2505695              -6.8183
       137        0.0000           -0.2471209              -6.7245
       138                         -0.2340480              -6.3688
       139                         -0.2321584              -6.3174
       140                         -0.2237963              -6.0898
       141                         -0.2237939              -6.0897
       142                         -0.2235106              -6.0820
       143                         -0.2235057              -6.0819
       ...                                ...                  ...
       258                          0.7405085              20.1503
      -------------------------------------------------------------
                  HL-Gap            0.0130889 Eh            0.3562 eV

     #   Z          covCN         q      C6AA      α(0)
     1   6 C        2.919    -0.030    28.757     8.794
     2   6 C        2.917    -0.030    28.739     8.791
     3   6 C        2.924    -0.034    28.839     8.807
     4   6 C        2.976     0.012    27.744     8.640
     5   6 C        2.975     0.009    27.820     8.652
     6   6 C        2.926    -0.042    29.051     8.839
     7   6 C        2.907    -0.040    28.990     8.829
     8   6 C        3.070     0.049    26.833     8.494
     9   6 C        3.056    -0.016    28.360     8.734
    10   6 C        2.916    -0.035    28.874     8.811
    11   6 C        3.057    -0.016    28.345     8.731
    12   6 C        2.916    -0.035    28.866     8.810
    13   6 C        2.975     0.006    27.874     8.660
    14   6 C        2.976     0.011    27.769     8.644
    15   6 C        2.924    -0.034    28.852     8.809
    16   6 C        2.917    -0.030    28.745     8.792
    17   6 C        2.919    -0.031    28.772     8.796
    18   6 C        2.917    -0.030    28.747     8.792
    19   6 C        2.924    -0.034    28.854     8.809
    20   6 C        2.926    -0.044    29.083     8.844
    21   6 C        2.907    -0.044    29.103     8.846
    22   6 C        3.064     0.038    27.086     8.534
    23   7 N        2.795    -0.022    21.675     6.915
    24   6 C        2.898     0.127    25.213     8.233
    25   6 C        2.907    -0.074    29.841     8.957
    26   6 C        2.898     0.127    25.213     8.233
    27   7 N        2.795    -0.022    21.675     6.915
    28   6 C        3.070     0.049    26.833     8.494
    29   6 C        2.907    -0.040    28.990     8.829
    30   6 C        2.926    -0.042    29.051     8.839
    31   6 C        2.975     0.009    27.820     8.652
    32   6 C        2.976     0.012    27.744     8.640
    33   6 C        2.924    -0.034    28.839     8.807
    34   6 C        2.917    -0.030    28.739     8.791
    35   6 C        2.919    -0.030    28.757     8.794
    36   6 C        2.917    -0.030    28.738     8.791
    37   6 C        2.924    -0.034    28.838     8.807
    38   6 C        2.916    -0.035    28.874     8.811
    39   6 C        3.056    -0.016    28.360     8.734
    40   6 C        3.057    -0.016    28.345     8.731
    41   6 C        2.916    -0.035    28.866     8.810
    42   6 C        2.975     0.006    27.874     8.660
    43   6 C        2.976     0.011    27.769     8.644
    44   6 C        2.924    -0.034    28.854     8.809
    45   6 C        2.917    -0.030    28.747     8.792
    46   6 C        2.919    -0.031    28.772     8.796
    47   6 C        2.917    -0.030    28.745     8.792
    48   6 C        2.924    -0.034    28.852     8.809
    49   6 C        2.926    -0.044    29.083     8.844
    50   6 C        2.907    -0.044    29.103     8.846
    51   6 C        3.064     0.038    27.086     8.534
    52   7 N        1.835    -0.310    28.881     7.964
    53   6 C        2.872     0.163    24.487     8.112
    54   7 N        1.835    -0.310    28.881     7.964
    55   6 C        2.924    -0.034    28.838     8.807
    56   6 C        2.917    -0.030    28.738     8.791
    57   1 H        0.926     0.034     2.536     2.490
    58   1 H        0.926     0.034     2.528     2.486
    59   1 H        0.926     0.036     2.504     2.474
    60   1 H        0.926     0.041     2.438     2.442
    61   1 H        0.926     0.051     2.305     2.374
    62   1 H        0.926     0.045     2.381     2.413
    63   1 H        0.926     0.045     2.384     2.414
    64   1 H        0.926     0.035     2.516     2.481
    65   1 H        0.926     0.033     2.539     2.492
    66   1 H        0.926     0.033     2.546     2.495
    67   1 H        0.926     0.033     2.546     2.495
    68   1 H        0.926     0.034     2.534     2.489
    69   1 H        0.926     0.039     2.461     2.453
    70   1 H        0.926     0.030     2.581     2.512
    71   1 H        0.926     0.038     2.480     2.463
    72   1 H        0.926     0.051     2.305     2.374
    73   1 H        0.926     0.041     2.438     2.442
    74   1 H        0.926     0.036     2.504     2.474
    75   1 H        0.926     0.034     2.528     2.486
    76   1 H        0.926     0.034     2.536     2.490
    77   1 H        0.926     0.034     2.537     2.491
    78   1 H        0.926     0.035     2.517     2.481
    79   1 H        0.926     0.045     2.381     2.413
    80   1 H        0.926     0.045     2.384     2.414
    81   1 H        0.926     0.034     2.534     2.489
    82   1 H        0.926     0.033     2.546     2.495
    83   1 H        0.926     0.033     2.546     2.495
    84   1 H        0.926     0.033     2.539     2.492
    85   1 H        0.926     0.035     2.516     2.481
    86   1 H        0.926     0.039     2.461     2.453
    87   1 H        0.926     0.030     2.581     2.512
    88   1 H        0.925     0.027     2.630     2.536
    89   1 H        0.926     0.035     2.517     2.481
    90   1 H        0.926     0.034     2.537     2.491

molecular dipole:
                 x           y           z       tot (Debye)
 q only:        0.007       1.362      -0.003
   full:        0.008       1.462      -0.003       3.715

 projected vibrational frequencies (cm⁻¹)
eigval :       -0.00    -0.00    -0.00     0.00     0.00     0.00
eigval :        5.00     8.47    11.03    31.01    32.36    36.30
eigval :       39.26    41.84    43.37    43.97    50.75    56.57
eigval :       58.63    65.37    73.43    89.22    93.60    95.87
eigval :      108.15   120.67   123.26   143.70   149.75   168.32
eigval :      169.40   181.58   205.56   209.24   218.57   238.69
eigval :      240.17   242.37   258.60   274.16   281.88   305.64
eigval :      313.46   327.10   338.30   348.17   361.31   367.30
eigval :      370.51   370.78   371.28   371.58   376.55   377.76
eigval :      386.45   387.77   399.54   416.12   421.87   435.92
eigval :      458.13   474.12   475.66   476.12   478.34   495.32
eigval :      499.40   516.09   550.19   551.20   568.11   572.40
eigval :      579.55   582.49   585.89   587.44   589.28   589.87
eigval :      603.19   612.82   613.39   615.24   619.13   623.40
eigval :      635.03   660.09   662.52   663.33   669.95   670.09
eigval :      675.92   679.03   680.58   693.70   695.98   721.46
eigval :      731.70   732.79   745.35   754.54   755.45   755.64
eigval :      757.29   812.94   817.56   818.91   820.30   849.89
eigval :      850.82   858.50   861.00   862.06   865.12   865.76
eigval :      873.59   873.99   874.62   875.78   892.02   898.49
eigval :      899.23   899.43   899.51   899.89   901.33   902.95
eigval :      905.58   905.83   908.60   915.02   928.23   928.99
eigval :      929.09   929.25   929.54   930.11   930.27   930.33
eigval :      965.46   965.56   971.72   972.67   978.06   981.98
eigval :     1019.89  1022.03  1058.62  1060.94  1062.81  1065.02
eigval :     1082.01  1083.10  1083.39  1083.56  1096.17  1119.38
eigval :     1119.75  1121.16  1121.33  1127.19  1128.86  1129.38
eigval :     1154.03  1172.30  1177.68  1178.09  1180.97  1181.31
eigval :     1189.35  1194.05  1194.22  1197.89  1202.28  1211.04
eigval :     1213.65  1214.58  1219.86  1231.54  1241.67  1249.06
eigval :     1249.64  1260.65  1270.75  1275.89  1279.77  1280.00
eigval :     1280.19  1280.23  1281.89  1296.81  1316.86  1317.39
eigval :     1318.51  1319.19  1319.45  1321.28  1325.87  1331.13
eigval :     1342.90  1354.99  1361.39  1387.79  1394.76  1398.00
eigval :     1407.57  1417.44  1424.13  1424.42  1425.35  1427.94
eigval :     1434.79  1440.52  1441.91  1446.55  1463.87  1465.15
eigval :     1477.53  1477.64  1480.84  1485.81  1509.30  1510.43
eigval :     1514.46  1529.78  1537.61  1537.90  1548.27  1556.68
eigval :     1567.79  1567.91  1568.60  1569.03  1589.27  1589.29
eigval :     1590.12  1591.40  3028.27  3067.39  3067.72  3067.89
eigval :     3067.98  3069.21  3069.33  3069.43  3069.58  3078.51
eigval :     3078.59  3079.63  3079.71  3081.51  3081.67  3082.31
eigval :     3082.38  3082.47  3082.63  3088.80  3088.94  3089.21
eigval :     3089.50  3089.60  3089.72  3091.31  3092.06  3093.00
eigval :     3093.25  3095.35  3096.83  3105.19  3105.52  3113.01

   temp. (K)  partition function   enthalpy   heat capacity  entropy
                                   cal/mol     cal/K/mol   cal/K/mol   J/K/mol
 298.15  VIB  0.780E+21            25988.851    164.086    163.296
         ROT  0.966E+08              888.752      2.981     39.520
         INT  0.753E+29            26877.603    167.067    202.815
         TR   0.185E+29             1481.254      4.968     45.560
         TOT                       28358.8569   172.0355   248.3757  1039.2041

       T/K    H(0)-H(T)+PV         H(T)/Eh          T*S/Eh         G(T)/Eh
   ------------------------------------------------------------------------
    298.15    0.451927E-01    0.729497E+00    0.118011E+00    0.611486E+00
   ------------------------------------------------------------------------

         :::::::::::::::::::::::::::::::::::::::::::::::::::::
         ::                  THERMODYNAMIC                  ::
         :::::::::::::::::::::::::::::::::::::::::::::::::::::
         :: total free energy        -139.807428933258 Eh   ::
         ::.................................................::
         :: total energy             -140.418914974621 Eh   ::
         :: zero point energy           0.684304655470 Eh   ::
         :: G(RRHO) w/o ZPVE           -0.072818614107 Eh   ::
         :: G(RRHO) contrib.            0.611486041363 Eh   ::
         :::::::::::::::::::::::::::::::::::::::::::::::::::::

           -------------------------------------------------
          | TOTAL ENERGY             -140.418914974621 Eh   |
          | TOTAL ENTHALPY           -139.689417603980 Eh   |
          | TOTAL FREE ENERGY        -139.807428933258 Eh   |
          | GRADIENT NORM               0.000046473936 Eh/α |
          | HOMO-LUMO GAP               0.356166905466 eV   |
           -------------------------------------------------

 * finished run on 2025/08/24 at 16:51:59.565
