   * xtb version 6.7.1 (edcfbbe) compiled by 'albert@albert-system' on 2024-07-22

   ID    Z sym.   atoms
    1    6 C      1-22, 24-26, 28-51, 53, 55, 56
    2    7 N      23, 27, 52, 54
    3    1 H      57-90

          program call               : xtb data2507/toluene/pCbz-PYR/pCbz-PYR_toluene_T1_crest.xyz --gfn 2 --uhf 2 --gbsa toluene --ohess vtight --parallel 40 --molden --ceasefiles --namespace data2507/toluene/pCbz-PYR/pCbz-PYR_toluene_T1_finalOpt
      * Solvation model:               GBSA
        Solvent                        toluene
        Solvent mass                       9.2140E+01 g/mol
          :  Hamiltonian                  GFN2-xTB          :
 * total energy  :  -140.4188535 Eh     change       -0.5510373E-08 Eh
 * total energy  :  -140.4189153 Eh     change       -0.6179735E-04 Eh
 * total energy  :  -140.4189464 Eh     change       -0.3105725E-04 Eh
 * total energy  :  -140.4189514 Eh     change       -0.5064271E-05 Eh
 * total energy  :  -140.4189550 Eh     change       -0.3568321E-05 Eh
 * total energy  :  -140.4189576 Eh     change       -0.2610019E-05 Eh
 * total energy  :  -140.4189599 Eh     change       -0.2339551E-05 Eh
 * total energy  :  -140.4189617 Eh     change       -0.1787968E-05 Eh
 * total energy  :  -140.4189634 Eh     change       -0.1656872E-05 Eh
 * total energy  :  -140.4189648 Eh     change       -0.1385685E-05 Eh
 * total energy  :  -140.4189762 Eh     change       -0.8157133E-06 Eh
 * total energy  :  -140.4189770 Eh     change       -0.7968605E-06 Eh
 * total energy  :  -140.4189777 Eh     change       -0.6598493E-06 Eh
 * total energy  :  -140.4189782 Eh     change       -0.5529631E-06 Eh
 * total energy  :  -140.4189787 Eh     change       -0.4989422E-06 Eh
 * total energy  :  -140.4189793 Eh     change       -0.5618672E-06 Eh
 * total energy  :  -140.4189799 Eh     change       -0.6022427E-06 Eh
 * total energy  :  -140.4189804 Eh     change       -0.4988312E-06 Eh
 * total energy  :  -140.4189804 Eh     change       -0.6326417E-08 Eh
   *** GEOMETRY OPTIMIZATION CONVERGED AFTER 44 ITERATIONS ***

 final structure:
================
90
 xtb: 6.7.1 (edcfbbe)
C           10.17993624584501       -2.77580110205167       -2.42550653825823
C            9.65293642283792       -1.49408937475382       -2.45860689372027
C            8.36542637834213       -1.25932476621364       -2.01571313156387
C            7.57395541088654       -2.30514074468742       -1.53596681777499
C            6.20779998682222       -2.05719967638318       -1.06590549302662
C            5.18526064568663       -2.98394338440846       -1.34076818077992
C            3.88518901424713       -2.78255239887699       -0.92559387062828
C            3.59998101982766       -1.63526326422515       -0.19733593368724
C            4.61610011863415       -0.68543984146566        0.09145965399173
C            5.91089881542925       -0.90033195042189       -0.34517322721939
C            3.99390597070869        0.35660367936508        0.85735703104253
C            4.47501434461830        1.51694797631932        1.43686619698856
C            3.61330271995857        2.32188298315944        2.17950111862106
C            4.09496783544521        3.56412478496113        2.79074202705762
C            5.36981962642366        3.63673314956753        3.35544706231325
C            5.81935638147199        4.80766326060773        3.93493161955348
C            5.00981166998939        5.93265149789052        3.95567632498722
C            3.74363607906886        5.87536109380384        3.39473967630917
C            3.28835730546755        4.70347795826128        2.82161175896903
C            2.27767841522008        1.91763141407826        2.35700709460700
C            1.77966617466427        0.76239949836821        1.78941891897081
C            2.62702500731403       -0.00912201546073        1.00350523957989
N            2.39990104091775       -1.20380544268830        0.33892527248331
C            1.18423826920627       -1.83332877538579        0.15550424210587
C            0.00236827722894       -1.11930370871959       -0.00904259907957
C           -1.17252595825071       -1.84010525838629       -0.19237006090291
N           -2.39345346399862       -1.21763350621891       -0.36465680359611
C           -3.59248585621090       -1.67283327018723        0.15456338388099
C           -3.87129274559138       -2.83951073986814        0.85405138427787
C           -5.16879532102509       -3.05474167330860        1.27033223912372
C           -6.19851186548042       -2.13178135438310        1.01049648802037
C           -7.56140455853255       -2.39566611460576        1.48190295399989
C           -8.66581523675818       -2.07010729533363        0.69174138770766
C           -9.94970411149386       -2.32772042070427        1.13269027881102
C          -10.15884852917927       -2.90636530048124        2.37471525259860
C           -9.07150981832356       -3.22874463964802        3.17174782017702
C           -7.78623987021190       -2.97980305187673        2.73004563327733
C           -5.91105515046623       -0.96252043370721        0.30619553696950
C           -4.61507402939328       -0.72411424937308       -0.11430605137564
C           -3.99716476334914        0.34500453090416       -0.84576192332515
C           -4.48499772316116        1.51664358449168       -1.39617766863946
C           -3.62680684641851        2.34737998818275       -2.11411579331939
C           -4.11472108827911        3.60366926654323       -2.69073759338068
C           -3.31476351676284        4.74810824063869       -2.68682201406288
C           -3.77566616814684        5.93339404868210       -3.22689513436295
C           -5.04091408886847        5.99939955608144       -3.78892527749517
C           -5.84385017312967        4.86958705149992       -3.80266944115742
C           -5.38861170020355        3.68499712822101       -3.25636001900763
C           -2.28842199687578        1.95640617132370       -2.29999664818951
C           -1.78410282272857        0.78959730053424       -1.76256466529194
C           -2.62761223606963       -0.00752354793222       -0.99828610778300
N           -1.15891546450611       -3.21560070039504       -0.14542195178475
C            0.01478720777529       -3.78811361812066       -0.04108853235630
N            1.18305122804582       -3.20734702522647        0.07671930656092
C            8.11584595706345       -3.59193361119466       -1.51168502158898
C            9.40655254165466       -3.82230828309412       -1.94781385263323
H           11.18738372743677       -2.95787659134238       -2.76989643061567
H           10.24904026129330       -0.67512748795962       -2.83507439700918
H            7.95535296397857       -0.26112686397094       -2.06460948562828
H            5.41957542851956       -3.86254530337623       -1.92203419631347
H            3.10748545113462       -3.49532614591698       -1.14867098150030
H            6.69011611863605       -0.19411775403729       -0.10256320055748
H            5.50673575519580        1.80217596584761        1.29989524654225
H            5.99949852278862        2.75902458261507        3.36312337931024
H            6.80526232296661        4.84424082068821        4.37592460833886
H            5.36354644397140        6.84825673604573        4.40653126654628
H            3.10960714773065        6.75050368670395        3.40270675487041
H            2.30760648626264        4.67307443545908        2.36951244269517
H            1.63164794337901        2.51134740863276        2.98556720956079
H            0.76197272276923        0.46189625216221        1.98683651517448
H           -0.00249788964036       -0.04271607512202        0.00420665952356
H           -3.09207300406612       -3.55872079733552        1.04918750290005
H           -5.40662533162149       -3.96757119801524        1.79476706266911
H           -8.51149912781317       -1.63932389625140       -0.28676871163934
H          -10.79285365086068       -2.07894924086435        0.50422329651614
H          -11.16299771760316       -3.10476346943640        2.71976257894549
H           -9.22781904166617       -3.67419887924406        4.14384791864447
H           -6.94565071149062       -3.21536229744953        3.36624913344813
H           -6.68656437559392       -0.23709948739656        0.11338264256944
H           -5.51862526388409        1.79182585546686       -1.25318120644884
H           -2.33482800618898        4.71029814811463       -2.23355678201665
H           -3.14681466711747        6.81209843002203       -3.20807192398137
H           -5.39919665046378        6.92556958990844       -4.21380453697220
H           -6.82900666416286        4.91333998727485       -4.24467437045937
H           -6.01293639951375        2.80412415230228       -3.29094146488263
H           -1.64517098340292        2.57058645861721       -2.91149310107672
H           -0.76469532468759        0.50009812914909       -1.96742758705878
H            0.01972491106050       -4.87222756814441       -0.05364239995395
H            7.52746762222979       -4.40946506347376       -1.12163069070685
H            9.81362700144136       -4.82277061386230       -1.91378416043979

          :  Hamiltonian                  GFN2-xTB          :
         :: gradient norm              0.000046828122 Eh/a0 ::
         :: HOMO-LUMO gap              0.355433947342 eV    ::
         :: SCC energy              -143.046139130439 Eh    ::
         :: -> dispersion             -0.122495055214 Eh    ::
         :: -> Gsolv                  -0.061378610951 Eh    ::
         :: repulsion energy           2.627158755924 Eh    ::

    * Orbital Energies and Occupations

         #    Occupation            Energy/Eh            Energy/eV
      -------------------------------------------------------------
         1        2.0000           -0.6869907             -18.6940
       ...           ...                  ...                  ...
       120        2.0000           -0.4061083             -11.0508
       121        2.0000           -0.4060311             -11.0487
       122        2.0000           -0.4058330             -11.0433
       123        2.0000           -0.4050967             -11.0232
       124        2.0000           -0.4000147             -10.8850
       125        2.0000           -0.3967032             -10.7948
       126        2.0000           -0.3965184             -10.7898
       127        2.0000           -0.3823260             -10.4036
       128        2.0000           -0.3821636             -10.3992
       129        1.9922           -0.3737523             -10.1703
       130        1.9194           -0.3714638             -10.1080
       131        1.0884           -0.3669340              -9.9848
       132        0.9989           -0.2679637              -7.2917 (HOMO)
       133        0.0010           -0.2549017              -6.9362 (LUMO)
       134        0.0000           -0.2518543              -6.8533
       135        0.0000           -0.2517147              -6.8495
       136        0.0000           -0.2504990              -6.8164
       137        0.0000           -0.2471861              -6.7263
       138                         -0.2339242              -6.3654
       139                         -0.2322722              -6.3204
       140                         -0.2238149              -6.0903
       141                         -0.2237422              -6.0883
       142                         -0.2236887              -6.0869
       143                         -0.2234477              -6.0803
       ...                                ...                  ...
       258                          0.7406127              20.1531
      -------------------------------------------------------------
                  HL-Gap            0.0130621 Eh            0.3554 eV

     #   Z          covCN         q      C6AA      α(0)
     1   6 C        2.919    -0.030    28.746     8.792
     2   6 C        2.917    -0.030    28.737     8.791
     3   6 C        2.924    -0.034    28.837     8.806
     4   6 C        2.976     0.012    27.738     8.639
     5   6 C        2.975     0.009    27.819     8.652
     6   6 C        2.926    -0.042    29.049     8.839
     7   6 C        2.907    -0.040    28.987     8.828
     8   6 C        3.071     0.049    26.831     8.493
     9   6 C        3.056    -0.016    28.361     8.734
    10   6 C        2.916    -0.035    28.875     8.812
    11   6 C        3.058    -0.016    28.347     8.731
    12   6 C        2.916    -0.035    28.868     8.811
    13   6 C        2.975     0.006    27.877     8.661
    14   6 C        2.976     0.011    27.770     8.644
    15   6 C        2.924    -0.034    28.854     8.809
    16   6 C        2.917    -0.030    28.746     8.792
    17   6 C        2.919    -0.031    28.775     8.797
    18   6 C        2.917    -0.030    28.748     8.792
    19   6 C        2.924    -0.034    28.855     8.809
    20   6 C        2.926    -0.044    29.085     8.844
    21   6 C        2.907    -0.045    29.105     8.846
    22   6 C        3.064     0.038    27.089     8.535
    23   7 N        2.795    -0.022    21.676     6.915
    24   6 C        2.898     0.127    25.215     8.233
    25   6 C        2.907    -0.074    29.844     8.958
    26   6 C        2.898     0.127    25.211     8.233
    27   7 N        2.795    -0.022    21.679     6.915
    28   6 C        3.070     0.049    26.833     8.494
    29   6 C        2.907    -0.040    28.994     8.829
    30   6 C        2.926    -0.042    29.052     8.839
    31   6 C        2.975     0.009    27.823     8.652
    32   6 C        2.976     0.012    27.744     8.640
    33   6 C        2.924    -0.034    28.839     8.807
    34   6 C        2.917    -0.030    28.740     8.791
    35   6 C        2.919    -0.030    28.758     8.794
    36   6 C        2.917    -0.030    28.739     8.791
    37   6 C        2.924    -0.034    28.839     8.807
    38   6 C        2.916    -0.035    28.875     8.812
    39   6 C        3.056    -0.016    28.362     8.734
    40   6 C        3.057    -0.016    28.346     8.731
    41   6 C        2.916    -0.035    28.868     8.811
    42   6 C        2.975     0.006    27.877     8.661
    43   6 C        2.976     0.011    27.769     8.644
    44   6 C        2.924    -0.034    28.855     8.809
    45   6 C        2.917    -0.030    28.747     8.792
    46   6 C        2.919    -0.031    28.774     8.796
    47   6 C        2.918    -0.030    28.746     8.792
    48   6 C        2.924    -0.034    28.853     8.809
    49   6 C        2.926    -0.044    29.085     8.844
    50   6 C        2.907    -0.045    29.106     8.846
    51   6 C        3.064     0.038    27.087     8.534
    52   7 N        1.835    -0.310    28.883     7.964
    53   6 C        2.872     0.163    24.489     8.112
    54   7 N        1.835    -0.309    28.867     7.962
    55   6 C        2.924    -0.033    28.829     8.805
    56   6 C        2.917    -0.029    28.734     8.790
    57   1 H        0.926     0.034     2.530     2.487
    58   1 H        0.926     0.034     2.525     2.485
    59   1 H        0.926     0.036     2.501     2.473
    60   1 H        0.926     0.041     2.436     2.441
    61   1 H        0.926     0.051     2.305     2.374
    62   1 H        0.926     0.045     2.381     2.413
    63   1 H        0.926     0.045     2.385     2.415
    64   1 H        0.926     0.035     2.518     2.481
    65   1 H        0.926     0.033     2.540     2.493
    66   1 H        0.926     0.033     2.548     2.496
    67   1 H        0.926     0.033     2.547     2.496
    68   1 H        0.926     0.034     2.535     2.490
    69   1 H        0.926     0.039     2.464     2.455
    70   1 H        0.926     0.030     2.582     2.513
    71   1 H        0.926     0.038     2.479     2.462
    72   1 H        0.926     0.051     2.304     2.374
    73   1 H        0.926     0.041     2.439     2.442
    74   1 H        0.926     0.036     2.505     2.475
    75   1 H        0.926     0.034     2.528     2.487
    76   1 H        0.926     0.034     2.536     2.490
    77   1 H        0.926     0.033     2.537     2.491
    78   1 H        0.926     0.035     2.518     2.482
    79   1 H        0.926     0.045     2.383     2.414
    80   1 H        0.926     0.045     2.386     2.415
    81   1 H        0.926     0.034     2.535     2.490
    82   1 H        0.926     0.033     2.547     2.496
    83   1 H        0.926     0.033     2.547     2.496
    84   1 H        0.926     0.033     2.540     2.492
    85   1 H        0.926     0.035     2.517     2.481
    86   1 H        0.926     0.039     2.463     2.454
    87   1 H        0.926     0.030     2.582     2.513
    88   1 H        0.925     0.027     2.628     2.535
    89   1 H        0.926     0.036     2.504     2.474
    90   1 H        0.926     0.034     2.530     2.487

molecular dipole:
                 x           y           z       tot (Debye)
 q only:        0.071       1.329      -0.012
   full:        0.072       1.426      -0.005       3.630

 projected vibrational frequencies (cm⁻¹)
eigval :       -0.00    -0.00    -0.00     0.00     0.00     0.00
eigval :        3.68     8.69    11.58    31.18    32.23    37.21
eigval :       39.28    40.92    42.64    44.07    49.21    55.51
eigval :       57.75    64.00    74.29    88.40    94.10    95.77
eigval :      109.24   121.97   129.03   143.54   148.64   164.52
eigval :      173.10   178.34   206.75   208.88   218.65   235.65
eigval :      240.88   248.54   258.71   276.71   287.34   301.70
eigval :      314.54   317.60   343.61   347.51   358.25   368.39
eigval :      370.02   370.27   372.27   372.58   374.90   383.10
eigval :      386.37   388.32   402.74   421.24   422.33   426.43
eigval :      451.69   473.79   474.80   477.00   488.23   496.56
eigval :      497.83   514.56   550.22   551.23   568.74   572.58
eigval :      580.20   582.72   585.82   586.44   589.27   590.87
eigval :      602.93   612.89   613.78   617.80   618.92   623.64
eigval :      634.99   659.57   662.69   664.15   669.13   669.92
eigval :      676.40   679.64   680.67   694.55   699.61   721.39
eigval :      731.77   733.02   745.38   751.33   754.99   756.06
eigval :      757.67   811.72   816.85   819.14   820.74   849.14
eigval :      851.09   858.58   859.70   861.77   865.06   865.72
eigval :      873.15   873.88   874.78   875.65   891.86   896.39
eigval :      898.43   899.65   899.95   899.96   901.76   902.89
eigval :      903.21   907.09   908.29   914.60   925.42   928.77
eigval :      928.85   929.10   929.37   929.39   930.37   930.85
eigval :      965.54   965.82   970.74   973.19   977.69   983.14
eigval :     1019.77  1022.08  1058.76  1061.57  1063.08  1065.06
eigval :     1082.12  1083.15  1083.46  1083.71  1096.82  1119.26
eigval :     1119.64  1121.06  1121.12  1127.19  1129.33  1129.97
eigval :     1153.25  1172.66  1177.34  1178.04  1181.27  1181.62
eigval :     1189.65  1193.92  1194.54  1197.73  1202.43  1211.09
eigval :     1213.71  1214.96  1220.39  1231.94  1241.36  1249.25
eigval :     1250.53  1260.54  1271.34  1276.13  1279.75  1280.05
eigval :     1280.23  1280.98  1281.87  1296.89  1317.04  1317.35
eigval :     1318.46  1319.12  1319.38  1321.56  1326.07  1331.20
eigval :     1343.15  1355.14  1361.41  1388.32  1395.10  1398.16
eigval :     1406.87  1417.95  1424.13  1424.39  1425.39  1428.01
eigval :     1435.12  1440.54  1442.03  1446.53  1463.94  1464.99
eigval :     1477.62  1477.98  1480.66  1486.44  1509.17  1510.46
eigval :     1515.41  1530.48  1538.06  1538.42  1548.61  1556.60
eigval :     1567.96  1568.04  1568.66  1569.06  1589.23  1589.39
eigval :     1590.12  1591.35  3029.04  3067.18  3067.84  3067.87
eigval :     3068.45  3068.92  3069.22  3069.23  3070.37  3078.32
eigval :     3078.54  3079.42  3079.82  3081.07  3081.52  3082.00
eigval :     3082.07  3082.63  3083.12  3088.78  3088.93  3089.31
eigval :     3089.40  3089.88  3090.22  3091.20  3091.74  3092.95
eigval :     3093.38  3095.02  3096.67  3104.90  3106.60  3113.61

   temp. (K)  partition function   enthalpy   heat capacity  entropy
                                   cal/mol     cal/K/mol   cal/K/mol   J/K/mol
 298.15  VIB  0.101E+22            25983.256    163.984    163.430
         ROT  0.193E+09              888.752      2.981     40.894
         INT  0.195E+30            26872.008    166.965    204.324
         TR   0.185E+29             1481.254      4.968     45.560
         TOT                       28353.2624   171.9330   249.8845  1045.5167

       T/K    H(0)-H(T)+PV         H(T)/Eh          T*S/Eh         G(T)/Eh
   ------------------------------------------------------------------------
    298.15    0.451838E-01    0.729529E+00    0.118728E+00    0.610801E+00
   ------------------------------------------------------------------------

         :::::::::::::::::::::::::::::::::::::::::::::::::::::
         ::                  THERMODYNAMIC                  ::
         :::::::::::::::::::::::::::::::::::::::::::::::::::::
         :: total free energy        -139.808179570959 Eh   ::
         ::.................................................::
         :: total energy             -140.418980366452 Eh   ::
         :: zero point energy           0.684345185233 Eh   ::
         :: G(RRHO) w/o ZPVE           -0.073544389740 Eh   ::
         :: G(RRHO) contrib.            0.610800795493 Eh   ::
         :::::::::::::::::::::::::::::::::::::::::::::::::::::

           -------------------------------------------------
          | TOTAL ENERGY             -140.418980366452 Eh   |
          | TOTAL ENTHALPY           -139.689451381508 Eh   |
          | TOTAL FREE ENERGY        -139.808179570959 Eh   |
          | GRADIENT NORM               0.000048906266 Eh/α |
          | HOMO-LUMO GAP               0.355436621345 eV   |
           -------------------------------------------------

 * finished run on 2025/08/24 at 17:02:41.118
