   * xtb version 6.7.1 (edcfbbe) compiled by 'albert@albert-system' on 2024-07-22

   ID    Z sym.   atoms
    1    6 C      1-22, 24-26, 28-51, 53, 55, 56
    2    7 N      23, 27, 52, 54
    3    1 H      57-90

          program call               : xtb data2507/toluene/pCbz-PYR/pCbz-PYR.xyz --gfn 2 --gbsa toluene --ohess vtight --parallel 40 --molden --ceasefiles --namespace data2507/toluene/pCbz-PYR/pCbz-PYR_toluene_S0_preOpt
      * Solvation model:               GBSA
        Solvent                        toluene
        Solvent mass                       9.2140E+01 g/mol
          :  Hamiltonian                  GFN2-xTB          :
 * total energy  :  -140.4895923 Eh     change       -0.1237851E-08 Eh
 * total energy  :  -140.5067838 Eh     change       -0.1719149E-01 Eh
 * total energy  :  -140.5116553 Eh     change       -0.4871571E-02 Eh
 * total energy  :  -140.5129713 Eh     change       -0.1315954E-02 Eh
 * total energy  :  -140.5137749 Eh     change       -0.8036290E-03 Eh
 * total energy  :  -140.5140905 Eh     change       -0.3155597E-03 Eh
 * total energy  :  -140.5143849 Eh     change       -0.2943749E-03 Eh
 * total energy  :  -140.5146899 Eh     change       -0.3050445E-03 Eh
 * total energy  :  -140.5148879 Eh     change       -0.1979995E-03 Eh
 * total energy  :  -140.5150480 Eh     change       -0.1600923E-03 Eh
 * total energy  :  -140.5160626 Eh     change       -0.1580580E-05 Eh
 * total energy  :  -140.5160644 Eh     change       -0.1757664E-05 Eh
 * total energy  :  -140.5160666 Eh     change       -0.2227573E-05 Eh
 * total energy  :  -140.5160693 Eh     change       -0.2653013E-05 Eh
 * total energy  :  -140.5160717 Eh     change       -0.2465725E-05 Eh
 * total energy  :  -140.5160736 Eh     change       -0.1816935E-05 Eh
 * total energy  :  -140.5160747 Eh     change       -0.1182670E-05 Eh
 * total energy  :  -140.5160756 Eh     change       -0.8291010E-06 Eh
 * total energy  :  -140.5160756 Eh     change       -0.4865143E-08 Eh
   *** GEOMETRY OPTIMIZATION CONVERGED AFTER 68 ITERATIONS ***

 final structure:
================
90
 xtb: 6.7.1 (edcfbbe)
C           10.22313990071856       -3.10464154219921       -2.11267421071041
C            9.97932341762041       -2.56641996704815       -0.85980811532305
C            8.68319674568177       -2.30443509952805       -0.45515350868941
C            7.60695407952183       -2.58200726971323       -1.29558691600424
C            6.22689949720886       -2.30950515899972       -0.86197837781678
C            5.21012449900338       -3.23371318985583       -1.13237159720051
C            3.90176453506481       -3.02553946088797       -0.73991749463455
C            3.60669441327326       -1.85709444914540       -0.05710876159510
C            4.61360200727467       -0.90983448562513        0.21829397610193
C            5.92107938548050       -1.13735852429081       -0.18033557778312
C            3.98117518516790        0.17681292410417        0.92064020593721
C            4.47582725620187        1.34642775269911        1.47333479005459
C            3.61359787179195        2.18977018360465        2.16473304975319
C            4.11071243892121        3.44565005987449        2.74956489287491
C            4.98622777075133        4.25870449010530        2.03240829759942
C            5.45380665420683        5.44150271739851        2.57495295385003
C            5.06016178752032        5.82897114951805        3.84536312707972
C            4.19314601709555        5.02657230171261        4.56880175565888
C            3.71949683550129        3.84639001183755        4.02531392129237
C            2.27189728713240        1.82271292259631        2.31382718942874
C            1.75955752463136        0.66265714567325        1.76305253802324
C            2.61193106722345       -0.15117621629098        1.03136425601374
N            2.38277933008281       -1.37702170503882        0.40950352084548
C            1.16571276455839       -1.98859462257163        0.20237514136807
C           -0.00487893326139       -1.25456454468516        0.01286965969208
C           -1.18011833384933       -1.97922487596535       -0.18381682355589
N           -2.39232989448023       -1.35827604663263       -0.39075768806641
C           -3.62211236533556       -1.83631433724666        0.06262174700413
C           -3.92862367836290       -3.00904233733741        0.73297902303264
C           -5.24144452189567       -3.21453640864681        1.11195090343997
C           -6.25156482924840       -2.28345355966876        0.84041830692306
C           -7.63708789032385       -2.55328250240766        1.25783977042588
C           -8.70319968904777       -2.26477170098879        0.40823813748467
C          -10.00465643520396       -2.52369036499512        0.79730575844613
C          -10.26396756498795       -3.06985230903773        2.04360639534103
C           -9.21229474247124       -3.35637667926014        2.89843859666602
C           -7.90993219488735       -3.10247760552722        2.50900412225815
C           -5.93421331895127       -1.10674698080151        0.17209942384328
C           -4.62213588278550       -0.88170548372124       -0.21234564112275
C           -3.97967041279725        0.20618751841243       -0.90336891153654
C           -4.46650289938643        1.37953338411815       -1.45526597787108
C           -3.59423465743229        2.22864685348511       -2.12639332442850
C           -4.07784100549974        3.48899188220404       -2.71239844305136
C           -3.32218498515046        4.65541916599478       -2.61127389368533
C           -3.77809406231461        5.84001028041712       -3.16010448803498
C           -4.99377803156117        5.87886311440452       -3.82295932802973
C           -5.75257645143059        4.72493166344220       -3.93086795925948
C           -5.30066913671035        3.54064533728409       -3.37832305224510
C           -2.25104728143456        1.86036690012601       -2.26134199258060
C           -1.74918143362009        0.69080457191716       -1.72168315482956
C           -2.61101055560695       -0.12653606344372       -1.00484339164865
N           -1.17942732160143       -3.31845993874140       -0.15752710358951
C           -0.01375423058431       -3.90487474181684        0.00331914439136
N            1.15609998362611       -3.32751943907548        0.16702092167352
C            7.86427013629027       -3.12320829314152       -2.55356152715268
C            9.16128274561475       -3.38016929469520       -2.95848942847175
H           11.23592638432765       -3.30859216103871       -2.42848459560673
H           10.80318839631944       -2.35219096776659       -0.19400649854949
H            8.49881781291846       -1.90083463786988        0.53002481690166
H            5.46135849586253       -4.14975198699950       -1.64604736821334
H            3.13567306064274       -3.75537703957386       -0.94422487624894
H            6.68641719260204       -0.40279169285765        0.01810485515226
H            5.52543338876607        1.58362929454282        1.39261688825314
H            5.28432682020559        3.96896804525896        1.03496534059818
H            6.12673285427348        6.06502864046843        2.00378355290817
H            5.42766545514665        6.75190422281286        4.26974012652612
H            3.88614967042570        5.32092727594388        5.56229999930421
H            3.05661065094964        3.21755806565020        4.60207896948280
H            1.60948395072861        2.47209884953107        2.86643898284675
H            0.72641131704989        0.40337335132600        1.93463089179085
H           -0.00132994787684       -0.18047304695442        0.01750041793777
H           -3.16795440123306       -3.74450749917268        0.93728136170739
H           -5.50147082016016       -4.13385971503885        1.61530268986777
H           -8.50654979754035       -1.85493675558116       -0.57195355618471
H          -10.82065972571223       -2.30101989983991        0.12461847044535
H          -11.28092569303056       -3.27125800172981        2.34735314326313
H           -9.40813204841732       -3.77784224900282        3.87414725212865
H           -7.09541963704731       -3.31306935716720        3.18703219038001
H           -6.69410854755858       -0.36637667387434       -0.02566236328962
H           -5.51020635894301        1.63381594800593       -1.35395296493581
H           -2.38058170601595        4.63582539003551       -2.08150356508642
H           -3.18336165506583        6.73775339661153       -3.06893116867518
H           -5.34829524557107        6.80407087216136       -4.25339693327053
H           -6.69988939237557        4.74767788551932       -4.45039019338709
H           -5.88919789968495        2.64047288635964       -3.48157391140586
H           -1.58919217121007        2.49631781700146       -2.83010800254119
H           -0.71813375477603        0.42443570078237       -1.89505589510051
H           -0.01751611160262       -4.98814837183844        0.00015331586895
H            7.04188220158291       -3.32531598937502       -3.22462744412121
H            9.34491986505609       -3.79565472825979       -3.93913576637277

          :  Hamiltonian                  GFN2-xTB          :
         :: gradient norm              0.000052148316 Eh/a0 ::
         :: HOMO-LUMO gap              2.546958052241 eV    ::
         :: SCC energy              -143.162893370677 Eh    ::
         :: -> dispersion             -0.122505164859 Eh    ::
         :: -> Gsolv                  -0.060332461861 Eh    ::
         :: repulsion energy           2.646817788580 Eh    ::

    * Orbital Energies and Occupations

         #    Occupation            Energy/Eh            Energy/eV
      -------------------------------------------------------------
         1        2.0000           -0.6998606             -19.0442
       ...           ...                  ...                  ...
       119        2.0000           -0.4052840             -11.0283
       120        2.0000           -0.4050946             -11.0232
       121        2.0000           -0.4044021             -11.0043
       122        2.0000           -0.4039102             -10.9910
       123        2.0000           -0.4036513             -10.9839
       124        2.0000           -0.4036216             -10.9831
       125        2.0000           -0.3963826             -10.7861
       126        2.0000           -0.3962868             -10.7835
       127        2.0000           -0.3847915             -10.4707
       128        2.0000           -0.3844359             -10.4610
       129        2.0000           -0.3843220             -10.4579
       130        2.0000           -0.3747220             -10.1967
       131        2.0000           -0.3701675             -10.0728 (HOMO)
       132                         -0.2765685              -7.5258 (LUMO)
       133                         -0.2658799              -7.2350
       134                         -0.2529253              -6.8824
       135                         -0.2518152              -6.8522
       136                         -0.2487655              -6.7693
       137                         -0.2486618              -6.7664
       138                         -0.2363933              -6.4326
       139                         -0.2320152              -6.3135
       140                         -0.2233829              -6.0786
       141                         -0.2231870              -6.0732
       142                         -0.2217422              -6.0339
       ...                                ...                  ...
       258                          0.7383712              20.0921
      -------------------------------------------------------------
                  HL-Gap            0.0935990 Eh            2.5470 eV

     #   Z          covCN         q      C6AA      α(0)
     1   6 C        2.920    -0.032    28.804     8.801
     2   6 C        2.918    -0.031    28.763     8.795
     3   6 C        2.925    -0.035    28.871     8.812
     4   6 C        2.977     0.010    27.789     8.647
     5   6 C        2.976     0.004    27.936     8.670
     6   6 C        2.929    -0.037    28.913     8.818
     7   6 C        2.909    -0.048    29.180     8.858
     8   6 C        3.062     0.052    26.769     8.484
     9   6 C        3.060    -0.015    28.318     8.727
    10   6 C        2.918    -0.038    28.954     8.824
    11   6 C        3.062    -0.012    28.256     8.717
    12   6 C        2.918    -0.037    28.930     8.820
    13   6 C        2.976     0.004    27.926     8.668
    14   6 C        2.977     0.010    27.796     8.648
    15   6 C        2.925    -0.035    28.869     8.811
    16   6 C        2.918    -0.030    28.756     8.794
    17   6 C        2.920    -0.032    28.794     8.800
    18   6 C        2.918    -0.030    28.758     8.794
    19   6 C        2.924    -0.035    28.872     8.812
    20   6 C        2.928    -0.038    28.936     8.822
    21   6 C        2.909    -0.051    29.275     8.872
    22   6 C        3.055     0.044    26.960     8.515
    23   7 N        2.801    -0.050    22.197     6.997
    24   6 C        2.918     0.174    24.270     8.079
    25   6 C        2.912    -0.096    30.405     9.042
    26   6 C        2.918     0.174    24.271     8.079
    27   7 N        2.801    -0.049    22.194     6.997
    28   6 C        3.061     0.052    26.770     8.485
    29   6 C        2.909    -0.047    29.179     8.857
    30   6 C        2.929    -0.037    28.913     8.818
    31   6 C        2.976     0.004    27.935     8.670
    32   6 C        2.977     0.010    27.789     8.647
    33   6 C        2.925    -0.035    28.871     8.812
    34   6 C        2.918    -0.031    28.763     8.795
    35   6 C        2.920    -0.032    28.805     8.801
    36   6 C        2.918    -0.031    28.763     8.795
    37   6 C        2.925    -0.035    28.876     8.812
    38   6 C        2.918    -0.038    28.954     8.824
    39   6 C        3.060    -0.015    28.317     8.726
    40   6 C        3.062    -0.012    28.256     8.717
    41   6 C        2.918    -0.037    28.930     8.820
    42   6 C        2.976     0.004    27.925     8.668
    43   6 C        2.977     0.010    27.797     8.648
    44   6 C        2.925    -0.035    28.874     8.812
    45   6 C        2.918    -0.030    28.759     8.794
    46   6 C        2.920    -0.032    28.796     8.800
    47   6 C        2.918    -0.030    28.757     8.794
    48   6 C        2.925    -0.035    28.869     8.811
    49   6 C        2.928    -0.038    28.936     8.822
    50   6 C        2.909    -0.051    29.275     8.872
    51   6 C        3.055     0.044    26.960     8.515
    52   7 N        1.842    -0.292    28.428     7.902
    53   6 C        2.912     0.159    24.557     8.126
    54   7 N        1.842    -0.292    28.428     7.902
    55   6 C        2.925    -0.035    28.876     8.812
    56   6 C        2.918    -0.031    28.764     8.795
    57   1 H        0.926     0.031     2.570     2.507
    58   1 H        0.926     0.032     2.561     2.502
    59   1 H        0.926     0.033     2.541     2.493
    60   1 H        0.926     0.041     2.431     2.438
    61   1 H        0.926     0.048     2.347     2.396
    62   1 H        0.926     0.043     2.413     2.429
    63   1 H        0.926     0.044     2.395     2.420
    64   1 H        0.926     0.034     2.535     2.490
    65   1 H        0.926     0.032     2.552     2.498
    66   1 H        0.926     0.032     2.561     2.502
    67   1 H        0.926     0.032     2.560     2.502
    68   1 H        0.926     0.032     2.555     2.500
    69   1 H        0.926     0.041     2.433     2.439
    70   1 H        0.926     0.029     2.595     2.519
    71   1 H        0.926     0.050     2.317     2.380
    72   1 H        0.926     0.048     2.345     2.395
    73   1 H        0.926     0.041     2.431     2.438
    74   1 H        0.926     0.033     2.541     2.493
    75   1 H        0.926     0.032     2.560     2.502
    76   1 H        0.926     0.031     2.570     2.507
    77   1 H        0.926     0.031     2.567     2.505
    78   1 H        0.926     0.032     2.554     2.499
    79   1 H        0.926     0.043     2.413     2.429
    80   1 H        0.926     0.044     2.390     2.418
    81   1 H        0.926     0.032     2.553     2.499
    82   1 H        0.926     0.032     2.559     2.502
    83   1 H        0.926     0.032     2.561     2.503
    84   1 H        0.926     0.032     2.552     2.498
    85   1 H        0.926     0.034     2.535     2.490
    86   1 H        0.926     0.041     2.436     2.441
    87   1 H        0.926     0.029     2.595     2.519
    88   1 H        0.925     0.041     2.431     2.438
    89   1 H        0.926     0.032     2.554     2.499
    90   1 H        0.926     0.031     2.566     2.505

molecular dipole:
                 x           y           z       tot (Debye)
 q only:       -0.003       0.967      -0.009
   full:        0.000       1.104      -0.002       2.806

 projected vibrational frequencies (cm⁻¹)
eigval :       -0.00    -0.00    -0.00    -0.00    -0.00     0.00
eigval :        8.29     9.32     9.95    29.99    34.30    37.23
eigval :       40.46    40.84    41.85    42.78    48.69    56.90
eigval :       60.38    67.54    70.91    85.55    92.41    96.39
eigval :      112.67   124.02   128.58   142.15   150.28   169.18
eigval :      178.54   192.06   208.48   211.50   219.64   238.24
eigval :      245.71   254.29   255.30   272.32   293.40   305.87
eigval :      315.95   321.13   341.70   351.43   363.62   367.36
eigval :      371.43   372.93   373.14   381.37   392.40   394.14
eigval :      397.84   401.17   421.95   434.98   437.86   445.80
eigval :      462.48   477.11   477.60   483.20   488.31   501.83
eigval :      505.31   551.65   554.12   566.51   573.71   577.57
eigval :      585.44   586.44   588.16   592.39   594.20   611.41
eigval :      612.15   617.22   623.12   626.88   629.69   647.56
eigval :      667.42   668.55   671.75   673.38   679.59   686.73
eigval :      689.14   689.57   711.17   711.70   722.47   731.21
eigval :      742.12   742.62   754.39   757.35   758.41   758.72
eigval :      769.86   814.61   825.13   827.78   828.41   851.57
eigval :      859.04   864.04   872.31   872.66   873.42   874.13
eigval :      879.80   880.47   881.13   883.37   901.23   901.42
eigval :      901.89   902.52   902.62   904.87   910.14   911.88
eigval :      914.44   915.20   920.25   927.72   929.61   930.15
eigval :      930.25   930.80   931.91   932.13   932.23   937.03
eigval :      971.29   971.54   980.56   981.60  1019.96  1027.02
eigval :     1027.72  1033.50  1070.46  1070.69  1071.96  1074.90
eigval :     1085.03  1085.81  1086.45  1086.68  1118.73  1120.02
eigval :     1120.64  1121.24  1121.45  1135.83  1156.69  1159.88
eigval :     1172.51  1179.87  1180.60  1181.93  1181.98  1194.24
eigval :     1198.98  1200.28  1201.50  1205.26  1213.12  1214.53
eigval :     1221.16  1223.10  1232.36  1240.71  1245.42  1267.89
eigval :     1274.56  1280.44  1280.53  1281.55  1281.83  1282.07
eigval :     1295.71  1297.95  1299.25  1303.62  1315.60  1316.24
eigval :     1316.79  1317.13  1321.52  1336.04  1341.67  1344.54
eigval :     1351.84  1355.83  1401.46  1401.81  1418.16  1420.16
eigval :     1427.95  1428.66  1429.63  1431.08  1432.22  1457.43
eigval :     1458.14  1458.40  1464.58  1466.18  1491.81  1492.02
eigval :     1493.97  1494.10  1507.92  1552.50  1565.73  1567.47
eigval :     1573.63  1574.04  1581.20  1581.32  1582.62  1582.76
eigval :     1592.46  1592.60  1596.13  1596.21  1601.09  1601.20
eigval :     1610.45  1610.48  3046.97  3066.57  3066.63  3066.77
eigval :     3066.79  3068.12  3068.29  3068.32  3068.34  3076.43
eigval :     3076.51  3076.52  3076.95  3079.74  3079.88  3079.93
eigval :     3080.02  3083.32  3083.70  3086.20  3086.26  3088.26
eigval :     3088.54  3088.57  3088.67  3090.68  3090.78  3093.94
eigval :     3094.33  3096.51  3096.89  3113.55  3113.98  3146.27

   temp. (K)  partition function   enthalpy   heat capacity  entropy
                                   cal/mol     cal/K/mol   cal/K/mol   J/K/mol
 298.15  VIB  0.312E+21            25623.335    161.728    160.705
         ROT  0.194E+09              888.752      2.981     40.901
         INT  0.605E+29            26512.087    164.709    201.606
         TR   0.185E+29             1481.254      4.968     45.560
         TOT                       27993.3412   169.6774   247.1661  1034.1430

       T/K    H(0)-H(T)+PV         H(T)/Eh          T*S/Eh         G(T)/Eh
   ------------------------------------------------------------------------
    298.15    0.446102E-01    0.734597E+00    0.117437E+00    0.617160E+00
   ------------------------------------------------------------------------

         :::::::::::::::::::::::::::::::::::::::::::::::::::::
         ::                  THERMODYNAMIC                  ::
         :::::::::::::::::::::::::::::::::::::::::::::::::::::
         :: total free energy        -139.898915153053 Eh   ::
         ::.................................................::
         :: total energy             -140.516075581578 Eh   ::
         :: zero point energy           0.689986795941 Eh   ::
         :: G(RRHO) w/o ZPVE           -0.072826367416 Eh   ::
         :: G(RRHO) contrib.            0.617160428525 Eh   ::
         :::::::::::::::::::::::::::::::::::::::::::::::::::::

           -------------------------------------------------
          | TOTAL ENERGY             -140.516075581578 Eh   |
          | TOTAL ENTHALPY           -139.781478556922 Eh   |
          | TOTAL FREE ENERGY        -139.898915153053 Eh   |
          | GRADIENT NORM               0.000052154902 Eh/α |
          | HOMO-LUMO GAP               2.546958231618 eV   |
           -------------------------------------------------

 * finished run on 2025/08/24 at 16:47:15.936
