   * xtb version 6.7.1 (edcfbbe) compiled by 'albert@albert-system' on 2024-07-22

   ID    Z sym.   atoms
    1    6 C      1, 2, 4-9, 11-14, 16-33, 35-52, 54-70
    2    7 N      3, 15, 34, 53
    3   14 Si     10
    4    1 H      71-114

          program call               : xtb data2507/gas/SiCz3Py1/SiCz3Py1_gas_S0_finalOpt.xtbopt.xyz --gfn 2 --spinpol --tblite --uhf 2 --ohess vtight --parallel 40 --molden --ceasefiles --namespace data2507/gas/SiCz3Py1/SiCz3Py1_gas_T1_preOpt
 * total energy  :  -174.9977182 Eh     change       -0.1881588E-07 Eh
 * total energy  :  -174.9991144 Eh     change       -0.1396197E-02 Eh
 * total energy  :  -175.0002494 Eh     change       -0.1134965E-02 Eh
 * total energy  :  -175.0018020 Eh     change       -0.1552672E-02 Eh
 * total energy  :  -175.0027533 Eh     change       -0.9512763E-03 Eh
 * total energy  :  -175.0040368 Eh     change       -0.1283450E-02 Eh
 * total energy  :  -175.0043650 Eh     change       -0.3282387E-03 Eh
 * total energy  :  -175.0046425 Eh     change       -0.2775374E-03 Eh
 * total energy  :  -175.0049268 Eh     change       -0.2842762E-03 Eh
 * total energy  :  -175.0051169 Eh     change       -0.1901267E-03 Eh
 * total energy  :  -175.0056492 Eh     change       -0.5713320E-06 Eh
 * total energy  :  -175.0056498 Eh     change       -0.5970495E-06 Eh
 * total energy  :  -175.0056505 Eh     change       -0.6674358E-06 Eh
 * total energy  :  -175.0056512 Eh     change       -0.6473858E-06 Eh
 * total energy  :  -175.0056522 Eh     change       -0.1042796E-05 Eh
 * total energy  :  -175.0056532 Eh     change       -0.1046770E-05 Eh
 * total energy  :  -175.0056543 Eh     change       -0.1094027E-05 Eh
 * total energy  :  -175.0056560 Eh     change       -0.1701517E-05 Eh
 * total energy  :  -175.0056561 Eh     change       -0.3921238E-07 Eh
   *** GEOMETRY OPTIMIZATION CONVERGED AFTER 60 ITERATIONS ***

 final structure:
================
114
 xtb: 6.7.1 (edcfbbe)
C           -1.14572739814838       -0.76333472250478       -9.10979156010381
C           -0.59438474420129        0.36203368476537       -9.75113958177251
N           -0.10492989192680        1.35459958692269       -9.01606268036067
C           -0.02795698410531        1.30235698809153       -7.73016292045975
C           -0.44914986806423        0.16384181395331       -6.95724459774801
C           -0.39485209325658        0.15702504737357       -5.55328193976512
C           -1.14113666494656       -0.78328641614644       -4.76758336515176
C           -1.01781669533992       -0.83984408534149       -3.41391941996187
C           -0.17415832906469        0.03831436453061       -2.69741926440791
Si          -0.05352830082021        0.01893980044133       -0.83233020234739
C            1.74723162357463        0.30606190103549       -0.30886067032305
C            2.07687593532042        1.11096325348811        0.77633477344418
C            3.39100500352406        1.30952528271241        1.15243365026312
C            4.41654544668431        0.69151087195796        0.44296446720575
N            5.75301961911915        0.88442949165051        0.81875615306532
C            6.26582739901917        0.72763245285103        2.09030598748371
C            5.63239853670053        0.31465908391242        3.25414097068077
C            6.39484097816480        0.21419684217831        4.40221926525217
C            7.75669075374880        0.50707846168956        4.39924644010150
C            8.39740986608315        0.89579858125460        3.23894118702655
C            7.65268137314111        1.00427535387003        2.07271877980066
C            7.98195042435659        1.35076501068290        0.71778640620606
C            9.15885773131151        1.73127839699068        0.08794748269427
C            9.12212154497924        2.02344540106583       -1.26155246037543
C            7.92926458655529        1.95445727576839       -1.97773695806110
C            6.74504876851054        1.57850533495446       -1.37310709787783
C            6.78054244203729        1.26019771556874       -0.02264354697594
C            4.10424745236242       -0.11691367330721       -0.64664247042645
C            2.78554401508164       -0.29658046231965       -1.01354316416409
C           -0.64342405273417       -1.64833108392746       -0.15367463122842
C            0.25155433639650       -2.64576593305622        0.21779516915360
C           -0.18782380639051       -3.87264036406875        0.67514617772522
C           -1.55248750334521       -4.12683949845214        0.77771915551561
N           -2.00809697094787       -5.36860341597626        1.24152040626167
C           -2.94823628118867       -6.16550530914327        0.62057440318323
C           -3.61123166595696       -5.97533196261673       -0.58385876252270
C           -4.49588543766072       -6.95423327458453       -0.99420935302437
C           -4.71455989234079       -8.10179558389369       -0.23537149307697
C           -4.03934687585743       -8.30811730485069        0.95180161457523
C           -3.14559367536403       -7.33866487986156        1.38528583866480
C           -2.27926864709947       -7.23165052403018        2.52643483894782
C           -2.04134113486837       -8.04596610549222        3.62495627892000
C           -1.13492531053467       -7.62339277859608        4.57769710775144
C           -0.48150345478292       -6.39957418015311        4.45221012793862
C           -0.70175331205996       -5.57158609748771        3.36811805556361
C           -1.59317258171489       -6.00190446634041        2.39521028357444
C           -2.46205230470518       -3.13649934083474        0.41695160358533
C           -2.00458499637673       -1.91884651751763       -0.04547874583338
C           -1.12085738944429        1.36948257879541       -0.02949295249711
C           -1.49378158982857        2.50565438326407       -0.74065275853711
C           -2.25909087935053        3.49841951002570       -0.16125525707136
C           -2.68280063232340        3.36675821307705        1.15816558133109
N           -3.46171500408947        4.36734479175203        1.75555525694186
C           -3.20900729872346        4.96505857852391        2.97334628411468
C           -2.14607485222384        4.77755176513878        3.84592433877491
C           -2.11940867085831        5.53433983766446        5.00169149838879
C           -3.11749603969200        6.46363227035071        5.28571387179529
C           -4.16477623604783        6.67214674736932        4.40947122131447
C           -4.21343881874188        5.92385782643421        3.24149631641181
C           -5.11617154803311        5.89118807541208        2.12417949578794
C           -6.28419185595775        6.57623676271592        1.81930576085141
C           -6.93537010688477        6.28019522803050        0.63766106983125
C           -6.44349310683376        5.30503967558428       -0.22703403813722
C           -5.28328546351501        4.60935911592393        0.05459062599482
C           -4.61173900449971        4.91930671415216        1.22905257954285
C           -2.32818820063802        2.23095196487615        1.88091161199513
C           -1.55499035554948        1.25256444631253        1.28833321460853
C            0.56605806957516        0.97146599973041       -3.46292561949455
C            0.45194416108162        1.04756119300534       -4.81587888921227
C           -1.04645733330955       -0.87520074502052       -7.75554746964199
H           -1.56644106525124       -1.55627106868688       -9.70937533488491
H           -0.52169082891503        0.45059645920752      -10.82187001638197
H            0.27036180295740        2.21424639969055       -7.23361446359106
H           -1.81196824139906       -1.46593139008791       -5.26628376357911
H           -1.58515613562243       -1.57425482103761       -2.85838904289559
H            1.28859234695662        1.60104956279636        1.32956478169582
H            3.63329143148225        1.95599406319584        1.98334048733773
H            4.58124115629214        0.06872258584597        3.26206803681506
H            5.92495367412248       -0.10215436429427        5.32180096831855
H            8.31739139429787        0.41864517446224        5.31780699185112
H            9.45596831934637        1.10735658543503        3.23338007839131
H           10.08023564393049        1.80033087066706        0.64620797038512
H           10.02698929141756        2.31913081393142       -1.77115292177600
H            7.92898272945049        2.20394641096412       -3.02847588704215
H            5.82221202535440        1.54506294623720       -1.93220503880422
H            4.89799143151575       -0.61012996489026       -1.18848482937199
H            2.55197661463994       -0.91978110382977       -1.86495929490670
H            1.31291287322942       -2.45827806974121        0.14225787761346
H            0.51890175947815       -4.64606147623516        0.93819021103316
H           -3.43455294985689       -5.09802065100210       -1.18753611498978
H           -5.02689038934330       -6.82847004747485       -1.92621445441933
H           -5.41614182092802       -8.84244102074441       -0.58916555358595
H           -4.19687531210292       -9.20502604064411        1.53154612439183
H           -2.55949166982015       -8.98710523146627        3.73040729916028
H           -0.93346472966508       -8.24315104192696        5.43865301003465
H            0.21030266915085       -6.08909072399431        5.22127782238008
H           -0.20385746128009       -4.61704370949701        3.28820076198022
H           -3.52117026282512       -3.32393760092242        0.51759357485004
H           -2.71766944272815       -1.15363488400938       -0.31735074330639
H           -1.17295188984178        2.61300671347781       -1.76654432917358
H           -2.52023788440849        4.38645280442299       -0.71796967646066
H           -1.35883059249850        4.07255005944617        3.62540036911965
H           -1.30440926170578        5.40511339495940        5.69854341073969
H           -3.06229042910049        7.03378349581425        6.20104196795851
H           -4.92914631642123        7.40412763152079        4.62227252475815
H           -6.67411821010530        7.32092132684135        2.49663532462555
H           -7.84425744313310        6.80339044087244        0.38049346195374
H           -6.98284427628833        5.08508692364173       -1.13647657178169
H           -4.91914328299850        3.84319143570527       -0.61305631738280
H           -2.67574909127399        2.11662405206262        2.89742802675275
H           -1.28889002753338        0.37217503040650        1.85649541278220
H            1.22998125917280        1.64940247011515       -2.94297075712648
H            1.03206136597000        1.78340467364885       -5.35258855499880
H           -1.36804110930142       -1.78473469330243       -7.27315903311511

 projected vibrational frequencies (cm⁻¹)
eigval :       -0.00    -0.00    -0.00    -0.00     0.00     0.00
eigval :        5.33     5.87     6.60     7.93     8.42    10.17
eigval :       10.62    13.07    17.84    34.81    36.50    37.18
eigval :       43.87    46.49    50.04    53.44    71.27    72.16
eigval :       73.16    78.68    88.57   100.74   102.74   103.20
eigval :      103.87   125.25   125.97   131.68   139.18   143.19
eigval :      144.38   144.89   154.52   166.86   171.42   182.87
eigval :      200.55   211.07   218.78   239.30   255.53   256.21
eigval :      261.34   271.16   271.21   271.26   278.19   292.30
eigval :      304.23   317.92   334.36   340.32   349.18   357.95
eigval :      369.49   370.15   372.38   385.93   387.68   387.82
eigval :      388.36   397.21   399.87   401.20   401.78   417.86
eigval :      422.24   422.79   424.35   435.19   435.69   438.03
eigval :      446.73   480.48   481.80   482.79   505.50   514.37
eigval :      517.73   517.99   518.14   523.42   536.00   536.01
eigval :      536.08   540.05   540.06   540.12   561.12   580.86
eigval :      581.04   581.09   585.69   593.70   594.22   594.76
eigval :      598.29   613.04   613.67   613.97   619.57   634.91
eigval :      657.77   661.19   663.00   673.82   673.92   674.00
eigval :      678.48   679.62   680.61   682.13   708.62   708.78
eigval :      708.82   724.01   738.40   743.27   744.94   758.24
eigval :      759.17   759.67   766.57   768.97   769.09   769.38
eigval :      773.00   779.75   779.81   780.10   791.85   805.03
eigval :      808.26   809.16   810.44   867.04   867.15   867.58
eigval :      872.51   872.63   873.00   875.22   883.05   883.44
eigval :      885.12   898.01   898.03   898.08   900.07   902.58
eigval :      902.80   902.96   903.04   903.18   903.48   911.70
eigval :      919.67   920.03   920.48   920.95   921.00   921.41
eigval :      922.22   927.28   928.13   929.18   931.52   932.15
eigval :      932.69   935.16   935.43   937.40   959.66   992.45
eigval :     1012.05  1012.06  1012.10  1014.12  1014.96  1015.36
eigval :     1059.06  1069.91  1069.93  1070.00  1073.32  1073.39
eigval :     1073.59  1117.07  1117.57  1117.76  1117.85  1121.22
eigval :     1135.30  1137.27  1137.70  1139.01  1143.39  1147.72
eigval :     1149.85  1150.51  1150.59  1150.73  1152.62  1175.93
eigval :     1176.06  1176.20  1180.25  1180.35  1180.38  1184.11
eigval :     1184.37  1185.48  1202.12  1207.49  1208.15  1210.13
eigval :     1223.62  1235.52  1235.59  1235.69  1244.15  1244.35
eigval :     1244.49  1244.68  1262.46  1272.23  1273.16  1274.87
eigval :     1298.20  1298.30  1298.61  1299.55  1299.83  1300.08
eigval :     1309.31  1309.71  1311.08  1311.82  1313.70  1331.96
eigval :     1354.07  1354.68  1356.40  1357.23  1357.27  1357.42
eigval :     1363.39  1363.83  1364.63  1365.00  1387.67  1393.45
eigval :     1393.93  1395.39  1423.11  1423.19  1423.30  1427.20
eigval :     1427.39  1428.87  1449.24  1469.87  1471.72  1471.82
eigval :     1471.98  1483.79  1485.20  1485.96  1486.40  1486.98
eigval :     1487.15  1487.38  1506.74  1553.59  1554.90  1555.94
eigval :     1572.04  1572.22  1572.29  1582.27  1583.01  1585.78
eigval :     1586.58  1587.54  1588.68  1592.48  1593.14  1593.31
eigval :     1593.37  1609.13  1610.21  1612.91  3049.84  3056.09
eigval :     3062.86  3065.88  3070.30  3070.84  3071.62  3073.73
eigval :     3075.93  3076.85  3077.06  3077.10  3077.14  3077.59
eigval :     3077.67  3078.27  3078.95  3082.01  3082.15  3082.35
eigval :     3083.31  3083.45  3083.66  3084.29  3084.92  3085.14
eigval :     3085.81  3086.28  3086.64  3087.65  3089.21  3089.32
eigval :     3089.59  3090.82  3090.95  3091.27  3093.32  3095.28
eigval :     3095.40  3095.77  3096.60  3096.93  3097.74  3105.26

   temp. (K)  partition function   enthalpy   heat capacity  entropy
                                   cal/mol     cal/K/mol   cal/K/mol   J/K/mol
 298.15  VIB  0.214E+31            34158.171    210.485    219.136
         ROT  0.348E+09              888.752      2.981     42.064
         INT  0.745E+39            35046.924    213.466    261.201
         TR   0.265E+29             1481.254      4.968     46.277
         TOT                       36528.1776   218.4344   307.4775  1286.4860

       T/K    H(0)-H(T)+PV         H(T)/Eh          T*S/Eh         G(T)/Eh
   ------------------------------------------------------------------------
    298.15    0.582114E-01    0.928485E+00    0.146092E+00    0.782393E+00
   ------------------------------------------------------------------------

         :::::::::::::::::::::::::::::::::::::::::::::::::::::
         ::                  THERMODYNAMIC                  ::
         :::::::::::::::::::::::::::::::::::::::::::::::::::::
         :: total free energy        -174.223263303905 Eh   ::
         ::.................................................::
         :: total energy             -175.005656142567 Eh   ::
         :: zero point energy           0.870273981950 Eh   ::
         :: G(RRHO) w/o ZPVE           -0.087881143288 Eh   ::
         :: G(RRHO) contrib.            0.782392838662 Eh   ::
         :::::::::::::::::::::::::::::::::::::::::::::::::::::

           -------------------------------------------------
          | TOTAL ENERGY             -175.005656142567 Eh   |
          | TOTAL ENTHALPY           -174.077170804321 Eh   |
          | TOTAL FREE ENERGY        -174.223263303905 Eh   |
          | GRADIENT NORM               0.000157029716 Eh/α |
           -------------------------------------------------

 * finished run on 2025/08/30 at 09:51:56.238
