   * xtb version 6.7.1 (edcfbbe) compiled by 'albert@albert-system' on 2024-07-22

   ID    Z sym.   atoms
    1    6 C      1, 2, 4-9, 11-14, 16-33, 35-52, 54-70
    2    7 N      3, 15, 34, 53
    3   14 Si     10
    4    1 H      71-114

          program call               : xtb data2507/gas/SiCz3Py1/SiCz3Py1_gas_T1_crest.xyz --gfn 2 --spinpol --tblite --uhf 2 --ohess vtight --parallel 40 --molden --ceasefiles --namespace data2507/gas/SiCz3Py1/SiCz3Py1_gas_T1_finalOpt
 * total energy  :  -175.0055932 Eh     change        0.2378405E-07 Eh
 * total energy  :  -175.0056249 Eh     change       -0.3166719E-04 Eh
 * total energy  :  -175.0056349 Eh     change       -0.9999019E-05 Eh
 * total energy  :  -175.0056366 Eh     change       -0.1670862E-05 Eh
 * total energy  :  -175.0056362 Eh     change        0.3644587E-06 Eh
 * total energy  :  -175.0056375 Eh     change       -0.1309065E-05 Eh
 * total energy  :  -175.0056382 Eh     change       -0.6542062E-06 Eh
 * total energy  :  -175.0056394 Eh     change       -0.1260240E-05 Eh
 * total energy  :  -175.0056392 Eh     change        0.2316772E-06 Eh
 * total energy  :  -175.0056402 Eh     change       -0.9992245E-06 Eh
 * total energy  :  -175.0056549 Eh     change       -0.2514507E-06 Eh
 * total energy  :  -175.0056552 Eh     change       -0.3259512E-06 Eh
 * total energy  :  -175.0056555 Eh     change       -0.3212151E-06 Eh
 * total energy  :  -175.0056562 Eh     change       -0.6217150E-06 Eh
 * total energy  :  -175.0056565 Eh     change       -0.3091551E-06 Eh
 * total energy  :  -175.0056567 Eh     change       -0.2704007E-06 Eh
 * total energy  :  -175.0056570 Eh     change       -0.2368573E-06 Eh
 * total energy  :  -175.0056574 Eh     change       -0.4259989E-06 Eh
 * total energy  :  -175.0056574 Eh     change       -0.6864155E-08 Eh
   *** GEOMETRY OPTIMIZATION CONVERGED AFTER 44 ITERATIONS ***

 final structure:
================
114
 xtb: 6.7.1 (edcfbbe)
C           -1.51076288918094       -0.31526987933463       -9.10880741240188
C           -0.41811911627915        0.26069635120468       -9.78412232479558
N            0.56189555662776        0.81642463238602       -9.08009354509516
C            0.60803263607053        0.77842436605901       -7.79219810142469
C           -0.38452107455727        0.12181019669829       -6.98316162173306
C           -0.32898225347632        0.13854225705897       -5.57927893758695
C           -1.47245279171511       -0.16713692307584       -4.76852614451503
C           -1.39008349274133       -0.23013663102201       -3.41202719434685
C           -0.18686938459152        0.02836296123369       -2.71787690067001
Si          -0.07705537944300        0.01712641778020       -0.85214980567326
C            1.57147559678950       -0.75675849703572       -0.31988068256128
C            2.30925214386067       -0.24727562884343        0.74329305212718
C            3.50634106244573       -0.81872142899434        1.12789182268877
C            3.99276258647273       -1.93265888605344        0.44988825598483
N            5.20384118777064       -2.52216102680476        0.83752556343701
C            5.54297146508095       -2.89859771755545        2.12111314958552
C            4.79209691469080       -2.83922610589586        3.28685306923419
C            5.36794816342253       -3.31484616500053        4.44943543014830
C            6.65550432859707       -3.84634193590455        4.45894589605352
C            7.39841199940869       -3.93013421659840        3.29744014267736
C            6.84159123351223       -3.45865195714134        2.11672405792530
C            7.30281125173029       -3.40714724056497        0.75692862200754
C            8.48458399871672       -3.78381411153628        0.13401220564735
C            8.61372691901892       -3.56921329031014       -1.22437873724034
C            7.58913709295790       -2.97381332301443       -1.95666690247653
C            6.40375001192685       -2.59007645845869       -1.35920211953921
C            6.25882149274281       -2.82523189064461        0.00095230901460
C            3.26756876244593       -2.45473895361196       -0.61769065576529
C            2.07721859792898       -1.86492629143792       -0.99356445529751
C           -1.50362691804564       -0.98367338575529       -0.10995770340332
C           -1.32396611879828       -2.28455687576111        0.34755026388340
C           -2.37556607806997       -3.01861831034908        0.86014346339130
C           -3.64595624313972       -2.45438919301492        0.93168356777680
N           -4.71855950294039       -3.19039458796475        1.45393980975035
C           -5.94792226377936       -3.36284917462280        0.85116661267134
C           -6.39604001602043       -2.91870389846817       -0.38505725284674
C           -7.68059529709192       -3.25776388359688       -0.76482740468809
C           -8.50268940867331       -4.02718619954070        0.05537100173014
C           -8.05373919627342       -4.49247167507465        1.27594482191766
C           -6.76679300735935       -4.16482340863349        1.67963557983160
C           -5.98367858168200       -4.48262212042163        2.84147897731789
C           -6.23884221855110       -5.20949100550736        3.99606289716211
C           -5.24609093951950       -5.30299103452636        4.95187382632858
C           -4.01777226709933       -4.67063104521400        4.77357253486170
C           -3.74021270791136       -3.94139373794635        3.63316644050576
C           -4.72514988934140       -3.86391457691757        2.65836758738157
C           -3.84216585923464       -1.15124327848619        0.48271497854408
C           -2.78059500146827       -0.43494098722916       -0.03293670329928
C           -0.15708327029302        1.76424536845352       -0.11036113566271
C            0.24648576349803        2.87370912720808       -0.84671476164628
C            0.21540841391072        4.14495157033601       -0.30841859056221
C           -0.23899623571577        4.33634729684698        0.99345651919952
N           -0.27440349921895        5.62253903622574        1.54954861311947
C            0.25324307994320        5.98671255489246        2.77156347907673
C            0.96036125348575        5.22500705782843        3.69142125107238
C            1.40575236023598        5.85058924982712        4.84015714677985
C            1.16553234365097        7.20300240669660        5.07179082477369
C            0.48372937975684        7.97192494282922        4.14882025765021
C            0.02619862331512        7.36591121343641        2.98698468338499
C           -0.67960129228005        7.84770877292591        1.83202960988932
C           -1.18528964716378        9.08868077396866        1.47043406724805
C           -1.84847526592288        9.20676114656747        0.26454498190945
C           -2.02282392370672        8.10400378666333       -0.56858573151270
C           -1.52899714721289        6.85854095845014       -0.23045984986904
C           -0.84053752460249        6.73907159992337        0.96876778014852
C           -0.65923703390457        3.23892616427755        1.73979607682078
C           -0.61163350030817        1.97374034857239        1.18894730664525
C            0.94812627960170        0.33098351308620       -3.50853145096427
C            0.88457028745699        0.40444830528040       -4.86488790625828
C           -1.48010234308318       -0.41200196666855       -7.75008290989056
H           -2.31809282180329       -0.74251807712201       -9.68408960355195
H           -0.31917494036331        0.25045290653045      -10.85636691289142
H            1.38291103259867        1.36940015935115       -7.32596197965804
H           -2.41934785696922       -0.35754882718513       -5.25006461855574
H           -2.27119206519699       -0.48047318597269       -2.83694164917991
H            1.94362259926876        0.62131053098737        1.27203849658586
H            4.08014138713005       -0.39829662001325        1.94092094664072
H            3.78700319277138       -2.44519201504120        3.28559150513079
H            4.80550896397436       -3.27702509422487        5.37069537187268
H            7.07118577343180       -4.20538681263849        5.38858958943596
H            8.38998599648187       -4.35684295301947        3.30228375210670
H            9.28498725260438       -4.23067434583098        0.70413149082673
H            9.52407272239244       -3.85713656455155       -1.72864711796231
H            7.72546334353393       -2.80483725577067       -3.01457455074497
H            5.62233359845136       -2.11329956417211       -1.93139481173268
H            3.63574907552080       -3.32872427670759       -1.13486826200432
H            1.52299029013736       -2.27249113693070       -1.82694716615071
H           -0.34156471832778       -2.73145590060721        0.29692185706193
H           -2.22547487280952       -4.03567755184471        1.19167367365593
H           -5.75979173338285       -2.33735884310075       -1.03509512124876
H           -8.05423950577236       -2.92178014788781       -1.72080679111907
H           -9.50148206748790       -4.26873847371684       -0.27629778093467
H           -8.68533190382321       -5.10226536802399        1.90412486817076
H           -7.19630632622081       -5.68638064708595        4.14160742437829
H           -5.42339296245916       -5.86577398549556        5.85618321952462
H           -3.26652364245901       -4.74906168096664        5.54554168611077
H           -2.79170692489686       -3.44041693897910        3.51150580119473
H           -4.82271636774705       -0.70412592823464        0.55775719892716
H           -2.94048603237989        0.57881357036537       -0.37161812616119
H            0.59640315960895        2.73437681441851       -1.85912170090927
H            0.55677874384681        4.99350291179864       -0.88299119479544
H            1.16692062871860        4.18066851071781        3.51233392227480
H            1.95579972946508        5.27890332614891        5.57302630368538
H            1.52778582398132        7.65461341598565        5.98324651592351
H            0.31199212160045        9.02366192344292        4.32112387158270
H           -1.06406657787900        9.93992285137219        2.12317028837343
H           -2.24723419496366       10.16390582635669       -0.03676691213972
H           -2.55911550655354        8.22409259557168       -1.49827411647928
H           -1.68426890973248        6.00607450080073       -0.87431016022020
H           -1.03462237795313        3.38849901565243        2.74172002558886
H           -0.94248237075574        1.12845617551567        1.77600139176969
H            1.88759059298666        0.52016621728778       -3.00615619737590
H            1.77764263530239        0.64684121791358       -5.42146649385543
H           -2.26250804446255       -0.95007535356986       -7.23846695643541

 projected vibrational frequencies (cm⁻¹)
eigval :       -0.00    -0.00     0.00     0.00     0.00     0.00
eigval :        3.66     5.73     6.72     7.86     8.42    10.37
eigval :       10.70    12.88    19.68    34.69    36.43    37.21
eigval :       43.90    46.57    50.13    53.25    70.87    72.01
eigval :       73.44    79.10    88.89   100.76   102.77   103.21
eigval :      103.97   125.19   125.82   131.74   138.69   143.34
eigval :      144.36   144.83   154.83   166.78   171.30   182.47
eigval :      200.63   210.31   218.57   239.25   255.50   256.22
eigval :      261.31   271.12   271.13   271.22   277.97   292.73
eigval :      304.16   318.12   334.11   340.87   348.67   358.30
eigval :      369.37   370.05   372.25   385.88   387.03   387.75
eigval :      388.10   396.88   399.85   401.27   401.86   417.64
eigval :      422.20   422.81   424.25   435.30   435.75   438.14
eigval :      447.41   480.38   481.92   482.74   505.32   513.62
eigval :      517.69   518.02   518.15   523.64   535.99   536.04
eigval :      536.07   540.03   540.09   540.09   560.55   580.86
eigval :      581.05   581.11   585.91   593.74   594.25   594.75
eigval :      599.03   613.16   613.67   614.05   619.40   634.49
eigval :      657.54   660.85   662.99   673.83   673.91   674.01
eigval :      678.29   679.49   680.58   681.55   708.65   708.71
eigval :      708.77   724.15   738.52   743.14   745.18   758.17
eigval :      759.08   759.60   766.81   769.01   769.16   769.28
eigval :      773.67   779.78   779.87   779.99   791.48   801.54
eigval :      808.52   808.75   810.34   867.00   867.28   867.54
eigval :      872.61   872.64   872.88   874.75   882.97   883.38
eigval :      885.01   897.93   897.94   898.02   900.27   902.62
eigval :      902.84   902.90   903.11   903.27   903.35   912.14
eigval :      919.72   920.06   920.45   921.03   921.10   921.33
eigval :      921.94   927.47   928.08   929.22   931.38   932.11
eigval :      932.69   935.28   935.37   937.38   960.45   992.43
eigval :     1011.93  1011.98  1011.99  1013.86  1014.84  1015.18
eigval :     1059.92  1069.71  1069.71  1069.74  1073.04  1073.06
eigval :     1073.27  1116.03  1117.49  1117.63  1117.89  1121.57
eigval :     1134.98  1137.26  1137.58  1138.78  1143.07  1147.54
eigval :     1149.98  1150.46  1150.56  1150.61  1153.10  1175.96
eigval :     1176.21  1176.58  1180.34  1180.41  1180.46  1184.21
eigval :     1184.61  1185.70  1203.06  1207.63  1208.16  1210.20
eigval :     1224.51  1235.51  1235.55  1235.66  1243.58  1244.34
eigval :     1244.57  1244.90  1262.53  1272.46  1273.02  1274.77
eigval :     1298.15  1298.22  1298.52  1299.59  1299.91  1300.15
eigval :     1309.28  1309.72  1310.90  1311.74  1312.31  1332.17
eigval :     1353.36  1353.85  1356.43  1357.22  1357.27  1357.43
eigval :     1363.32  1363.93  1364.77  1364.85  1388.36  1393.53
eigval :     1394.18  1395.52  1423.31  1423.38  1423.51  1427.46
eigval :     1427.63  1429.06  1449.42  1469.91  1471.80  1471.84
eigval :     1471.98  1483.30  1485.15  1486.10  1486.50  1487.09
eigval :     1487.26  1487.45  1506.74  1553.30  1554.81  1555.93
eigval :     1572.05  1572.15  1572.24  1581.95  1583.21  1585.65
eigval :     1586.23  1587.75  1588.56  1592.65  1593.06  1593.22
eigval :     1593.30  1608.34  1608.84  1612.75  3049.96  3056.39
eigval :     3062.88  3066.59  3070.35  3070.96  3071.87  3073.43
eigval :     3076.21  3076.94  3077.39  3077.40  3077.44  3077.90
eigval :     3078.14  3078.37  3078.95  3082.38  3082.46  3082.50
eigval :     3083.65  3083.71  3083.85  3084.46  3085.19  3085.39
eigval :     3085.69  3086.50  3086.85  3088.02  3089.64  3089.74
eigval :     3089.89  3091.13  3091.30  3091.43  3093.06  3095.84
eigval :     3095.93  3096.09  3096.20  3097.23  3097.87  3105.07

   temp. (K)  partition function   enthalpy   heat capacity  entropy
                                   cal/mol     cal/K/mol   cal/K/mol   J/K/mol
 298.15  VIB  0.286E+31            34161.107    210.506    219.448
         ROT  0.347E+09              888.752      2.981     42.063
         INT  0.993E+39            35049.859    213.487    261.511
         TR   0.265E+29             1481.254      4.968     46.277
         TOT                       36531.1134   218.4548   307.7873  1287.7819

       T/K    H(0)-H(T)+PV         H(T)/Eh          T*S/Eh         G(T)/Eh
   ------------------------------------------------------------------------
    298.15    0.582160E-01    0.928487E+00    0.146240E+00    0.782248E+00
   ------------------------------------------------------------------------

         :::::::::::::::::::::::::::::::::::::::::::::::::::::
         ::                  THERMODYNAMIC                  ::
         :::::::::::::::::::::::::::::::::::::::::::::::::::::
         :: total free energy        -174.223409588691 Eh   ::
         ::.................................................::
         :: total energy             -175.005657409924 Eh   ::
         :: zero point energy           0.870271441120 Eh   ::
         :: G(RRHO) w/o ZPVE           -0.088023619888 Eh   ::
         :: G(RRHO) contrib.            0.782247821232 Eh   ::
         :::::::::::::::::::::::::::::::::::::::::::::::::::::

           -------------------------------------------------
          | TOTAL ENERGY             -175.005657409924 Eh   |
          | TOTAL ENTHALPY           -174.077169933973 Eh   |
          | TOTAL FREE ENERGY        -174.223409588691 Eh   |
          | GRADIENT NORM               0.000054604275 Eh/α |
           -------------------------------------------------

 * finished run on 2025/08/30 at 10:25:34.742
