   * xtb version 6.7.1 (edcfbbe) compiled by 'albert@albert-system' on 2024-07-22

   ID    Z sym.   atoms
    1    6 C      1, 2, 4-9, 11-14, 16-33, 35-52, 54-70
    2    7 N      3, 15, 34, 53
    3   14 Si     10
    4    1 H      71-114

          program call               : xtb data2507/gas/SiCz3Py1/SiCz3Py1_gas_S0_crest.xyz --gfn 2 --ohess vtight --parallel 40 --molden --ceasefiles --namespace data2507/gas/SiCz3Py1/SiCz3Py1_gas_S0_finalOpt
          :  Hamiltonian                  GFN2-xTB          :
 * total energy  :  -175.1046365 Eh     change       -0.5965006E-08 Eh
 * total energy  :  -175.1046374 Eh     change       -0.9719512E-06 Eh
 * total energy  :  -175.1046386 Eh     change       -0.1188944E-05 Eh
 * total energy  :  -175.1046421 Eh     change       -0.3434317E-05 Eh
 * total energy  :  -175.1046440 Eh     change       -0.1881003E-05 Eh
 * total energy  :  -175.1046448 Eh     change       -0.8779824E-06 Eh
 * total energy  :  -175.1046458 Eh     change       -0.9768435E-06 Eh
 * total energy  :  -175.1046471 Eh     change       -0.1261656E-05 Eh
 * total energy  :  -175.1046488 Eh     change       -0.1702005E-05 Eh
 * total energy  :  -175.1046512 Eh     change       -0.2468016E-05 Eh
 * total energy  :  -175.1046751 Eh     change       -0.3347931E-06 Eh
 * total energy  :  -175.1046753 Eh     change       -0.2125967E-06 Eh
 * total energy  :  -175.1046754 Eh     change       -0.1770863E-06 Eh
 * total energy  :  -175.1046756 Eh     change       -0.1787086E-06 Eh
 * total energy  :  -175.1046758 Eh     change       -0.1789597E-06 Eh
 * total energy  :  -175.1046760 Eh     change       -0.1961858E-06 Eh
 * total energy  :  -175.1046762 Eh     change       -0.2123690E-06 Eh
 * total energy  :  -175.1046764 Eh     change       -0.1792586E-06 Eh
 * total energy  :  -175.1046764 Eh     change       -0.3043908E-08 Eh
   *** GEOMETRY OPTIMIZATION CONVERGED AFTER 44 ITERATIONS ***

 final structure:
================
114
 xtb: 6.7.1 (edcfbbe)
C           -0.66603664801222       -0.78133512321050       -9.07263111967200
C           -0.69359434070319        0.49059066113806       -9.62527529637624
N           -0.63761551251956        1.59345310440794       -8.89815900275658
C           -0.54449788585861        1.47621801623126       -7.58840316477675
C           -0.49709495796061        0.25280838474073       -6.91665298397570
C           -0.38798645040049        0.18991847275094       -5.45525018712021
C           -1.12124356984110       -0.74349758024742       -4.72585937507857
C           -1.02105942270949       -0.79379825191017       -3.34952715736581
C           -0.18631223223236        0.07558849419372       -2.65449576450156
Si          -0.05672478158929        0.03121181998905       -0.76624282458701
C            1.75185730802015        0.30782258794980       -0.28100179044742
C            2.10201003669885        1.09303300697534        0.81299821831256
C            3.42248403168261        1.27812880606870        1.17186605620231
C            4.43507611871289        0.66416879377772        0.43967857656336
N            5.77582486815840        0.84021079765432        0.80133765685813
C            6.29965177406992        0.67220781960487        2.06845104203979
C            5.67447749098492        0.25812514399043        3.23585544404474
C            6.44718873519636        0.14366539333744        4.37561698888697
C            7.81173030737340        0.42366680043564        4.36112896887948
C            8.44406030156367        0.81189633538578        3.19703608218423
C            7.68852475341773        0.93413394088263        2.03841834548803
C            8.00897228445243        1.28352002171135        0.68274947636102
C            9.18505878456405        1.65572509100360        0.04522806458174
C            9.14092098809937        1.95610045190077       -1.30142104761066
C            7.94130981519332        1.90398944798633       -2.00770759534332
C            6.75838761439346        1.53642945097643       -1.39552250472261
C            6.80100339057412        1.20907272690910       -0.04786117171260
C            4.10121017982157       -0.12555492689414       -0.65768985357379
C            2.77674865875659       -0.29126636470661       -1.00931241524414
C           -0.64568179011276       -1.64676611750642       -0.11672661545247
C            0.25274783426651       -2.65423546191226        0.22091694644021
C           -0.18300319827588       -3.88601747649685        0.66781194412725
C           -1.54629952005032       -4.13681193062233        0.79694137684289
N           -1.99671085363767       -5.38195699549012        1.25137421882840
C           -2.96114572703154       -6.16268244896349        0.64466350480668
C           -3.65663918039511       -5.94955421980406       -0.53686886243092
C           -4.55742628477546       -6.91709533428567       -0.93883577838903
C           -4.76109479789522       -8.07636899016326       -0.19372620123775
C           -4.05408177787127       -8.30549822416938        0.96959553952890
C           -3.14288669453933       -7.34755667759147        1.39409200015948
C           -2.24362235085636       -7.26614060101559        2.51090558378763
C           -1.98120608151549       -8.10186192448998        3.58836949469478
C           -1.04607152035924       -7.70312123752877        4.52225896690928
C           -0.38766282024554       -6.48159645304562        4.39984748283498
C           -0.63181016057525       -5.63307502517882        3.33703142211110
C           -1.55247773704517       -6.03968126905437        2.38195541388457
C           -2.45830785781719       -3.13579781918857        0.47189023491149
C           -2.00608966231717       -1.91301478039482        0.01846728678416
C           -1.14501089856043        1.38343030077132       -0.01176332746577
C           -1.56847091849998        2.47947206897073       -0.75704297913379
C           -2.34237563457825        3.47534070540768       -0.19467842647951
C           -2.72178477511803        3.39033430888169        1.14211901911402
N           -3.50887818788271        4.39334072869211        1.71994820120608
C           -3.24367006941770        5.04299144859882        2.90976196723309
C           -2.15751417727192        4.91549242556288        3.76363649394265
C           -2.12310619775990        5.71782767210994        4.88801620364954
C           -3.13654494572697        6.63425833141780        5.15939581654905
C           -4.20709359488685        6.78329421263023        4.30067305487304
C           -4.26385645500828        5.98804885242967        3.16378498614242
C           -5.19038917006466        5.89232875496617        2.07062615886835
C           -6.38218009243268        6.53835156204503        1.76986046760920
C           -7.05466774327736        6.18305133245871        0.61783710893980
C           -6.56067658307789        5.18682239781347       -0.22127596360893
C           -5.37738178162401        4.52975692768704        0.05672642533216
C           -4.68433246962924        4.89981755636228        1.20034072671336
C           -2.31301602453666        2.29537301245655        1.89945729806885
C           -1.53286959506733        1.31284268852531        1.32410173249328
C            0.54832234252964        1.00179317592602       -3.39100185582914
C            0.45029582944354        1.06458660505497       -4.76640992127272
C           -0.56473451341315       -0.89980266670345       -7.69799413220649
H           -0.71543634765251       -1.65615179313560       -9.70270780231648
H           -0.76319033438570        0.63808180161823      -10.69482337750567
H           -0.52297346193007        2.40812672095297       -7.03778803922958
H           -1.78881494493632       -1.41874823431878       -5.24209283841056
H           -1.59846813345238       -1.52363227965637       -2.80006293474093
H            1.32445556349478        1.57835742840267        1.38507442473090
H            3.68018503977629        1.91028004831269        2.00881158532319
H            4.62130461474884        0.02104429762295        3.25379119950916
H            5.98308271659965       -0.17376882491598        5.29784881045889
H            8.38030513892573        0.32490388465877        5.27382285897403
H            9.50462020578692        1.01285620019758        3.18133178173367
H           10.11126251067301        1.71214142404767        0.59695436353596
H           10.04451870998154        2.24547463589537       -1.81697621616425
H            7.93470772489449        2.16033455088406       -3.05693250697494
H            5.83099190533887        1.51717665892126       -1.94802841290905
H            4.88344460660501       -0.61613731648666       -1.21807742273121
H            2.52877027785974       -0.90160864417294       -1.86629462698861
H            1.31325732594848       -2.46999323108094        0.12726245135046
H            0.52596239606876       -4.66569111195366        0.90436214204894
H           -3.49307228324673       -5.06308953212773       -1.13111108429580
H           -5.11360283682547       -6.77285498104050       -1.85348155292868
H           -5.47630673304679       -8.80739627990846       -0.54028712281436
H           -4.19940663891296       -9.21132017789226        1.53861756500068
H           -2.50386688807629       -9.04080766182917        3.69146184826192
H           -0.82519762798105       -8.33922300869242        5.36642112229043
H            0.32740642317741       -6.18915812452124        5.15468693714221
H           -0.12937382571018       -4.68045081916928        3.26134709026902
H           -3.51573627214042       -3.31949630412632        0.59325161418641
H           -2.72200358678856       -1.14023808360387       -0.22381925893666
H           -1.28223312592094        2.55452526454714       -1.79617095893728
H           -2.64476331317628        4.33112512234997       -0.77997608760755
H           -1.35760135615326        4.22164654193892        3.55299350648588
H           -1.28942620813103        5.63521832245436        5.56978799062418
H           -3.07425111843137        7.24119449264863        6.05033830090921
H           -4.98418405887626        7.50518102534044        4.50174052972889
H           -6.77291215889829        7.29874113780561        2.42908130181884
H           -7.98195395430506        6.67474195563933        0.36405168430399
H           -7.11689581418971        4.91911285894907       -1.10760925736897
H           -5.01281734438296        3.74653604380476       -0.59084614730149
H           -2.62498505990953        2.21525410639941        2.93042702608907
H           -1.22786938385936        0.46298009736657        1.91837746155040
H            1.21234275565316        1.67994853062153       -2.87322351069400
H            1.04178108834274        1.78098960038107       -5.31822996505359
H           -0.51751248913173       -1.87396851869609       -7.23176542593020

          :  Hamiltonian                  GFN2-xTB          :
         :: gradient norm              0.000038241747 Eh/a0 ::
         :: HOMO-LUMO gap              2.629937313714 eV    ::
         :: SCC energy              -178.423380828169 Eh    ::
         :: -> dispersion             -0.163237570168 Eh    ::
         :: repulsion energy           3.318704434131 Eh    ::

    * Orbital Energies and Occupations

         #    Occupation            Energy/Eh            Energy/eV
      -------------------------------------------------------------
         1        2.0000           -0.7655340             -20.8312
       ...           ...                  ...                  ...
       152        2.0000           -0.4054701             -11.0334
       153        2.0000           -0.4049090             -11.0181
       154        2.0000           -0.4032533             -10.9731
       155        2.0000           -0.3986481             -10.8478
       156        2.0000           -0.3967545             -10.7962
       157        2.0000           -0.3948326             -10.7439
       158        2.0000           -0.3787504             -10.3063
       159        2.0000           -0.3783319             -10.2949
       160        2.0000           -0.3780116             -10.2862
       161        2.0000           -0.3692472             -10.0477
       162        2.0000           -0.3632147              -9.8836
       163        2.0000           -0.3626733              -9.8688
       164        2.0000           -0.3624613              -9.8631 (HOMO)
       165                         -0.2658129              -7.2331 (LUMO)
       166                         -0.2545221              -6.9259
       167                         -0.2518324              -6.8527
       168                         -0.2489945              -6.7755
       169                         -0.2478501              -6.7443
       170                         -0.2432569              -6.6194
       171                         -0.2425738              -6.6008
       172                         -0.2409461              -6.5565
       173                         -0.2349349              -6.3929
       174                         -0.2338828              -6.3643
       175                         -0.2330758              -6.3423
       ...                                ...                  ...
       329                          0.7466602              20.3177
      -------------------------------------------------------------
                  HL-Gap            0.0966484 Eh            2.6299 eV

     #   Z          covCN         q      C6AA      α(0)
     1   6 C        2.912    -0.039    28.969     8.826
     2   6 C        2.914     0.058    26.709     8.475
     3   7 N        1.835    -0.218    26.600     7.643
     4   6 C        2.918     0.056    26.751     8.481
     5   6 C        2.973     0.000    28.016     8.682
     6   6 C        2.977     0.009    27.803     8.649
     7   6 C        2.922    -0.033    28.823     8.804
     8   6 C        2.934    -0.032    28.798     8.801
     9   6 C        2.863    -0.095    30.392     9.036
    10  14 Si       3.616     0.487    98.198    19.020
    11   6 C        2.862    -0.099    30.482     9.050
    12   6 C        2.935    -0.032    28.787     8.799
    13   6 C        2.920    -0.043    29.070     8.842
    14   6 C        2.914     0.066    26.520     8.445
    15   7 N        2.802    -0.045    22.099     6.982
    16   6 C        3.075     0.047    26.875     8.500
    17   6 C        2.910    -0.051    29.269     8.871
    18   6 C        2.924    -0.034    28.835     8.806
    19   6 C        2.920    -0.041    29.013     8.833
    20   6 C        2.913    -0.033    28.816     8.803
    21   6 C        3.068    -0.017    28.359     8.732
    22   6 C        3.068    -0.017    28.360     8.732
    23   6 C        2.913    -0.033    28.817     8.803
    24   6 C        2.920    -0.041    29.012     8.833
    25   6 C        2.924    -0.033    28.834     8.806
    26   6 C        2.910    -0.051    29.267     8.871
    27   6 C        3.075     0.047    26.875     8.500
    28   6 C        2.919    -0.044    29.081     8.843
    29   6 C        2.938    -0.031    28.765     8.796
    30   6 C        2.862    -0.099    30.480     9.049
    31   6 C        2.935    -0.032    28.791     8.800
    32   6 C        2.920    -0.043    29.073     8.842
    33   6 C        2.914     0.066    26.522     8.445
    34   7 N        2.802    -0.045    22.098     6.982
    35   6 C        3.075     0.047    26.874     8.499
    36   6 C        2.910    -0.051    29.267     8.871
    37   6 C        2.924    -0.034    28.837     8.806
    38   6 C        2.920    -0.041    29.015     8.833
    39   6 C        2.913    -0.033    28.816     8.802
    40   6 C        3.068    -0.017    28.359     8.732
    41   6 C        3.068    -0.017    28.360     8.732
    42   6 C        2.913    -0.033    28.816     8.803
    43   6 C        2.920    -0.041    29.012     8.833
    44   6 C        2.924    -0.033    28.833     8.806
    45   6 C        2.910    -0.051    29.267     8.871
    46   6 C        3.075     0.047    26.874     8.499
    47   6 C        2.919    -0.043    29.079     8.843
    48   6 C        2.938    -0.031    28.765     8.796
    49   6 C        2.862    -0.099    30.482     9.050
    50   6 C        2.935    -0.031    28.785     8.799
    51   6 C        2.920    -0.043    29.069     8.841
    52   6 C        2.914     0.066    26.518     8.444
    53   7 N        2.802    -0.044    22.098     6.982
    54   6 C        3.075     0.047    26.874     8.499
    55   6 C        2.910    -0.051    29.265     8.871
    56   6 C        2.924    -0.034    28.835     8.806
    57   6 C        2.920    -0.041    29.013     8.833
    58   6 C        2.913    -0.033    28.816     8.802
    59   6 C        3.068    -0.017    28.359     8.732
    60   6 C        3.068    -0.017    28.359     8.732
    61   6 C        2.913    -0.033    28.816     8.803
    62   6 C        2.920    -0.041    29.012     8.833
    63   6 C        2.924    -0.033    28.833     8.806
    64   6 C        2.910    -0.051    29.267     8.871
    65   6 C        3.075     0.047    26.874     8.500
    66   6 C        2.919    -0.044    29.080     8.843
    67   6 C        2.938    -0.031    28.770     8.797
    68   6 C        2.937    -0.031    28.765     8.796
    69   6 C        2.922    -0.034    28.851     8.808
    70   6 C        2.933    -0.016    28.422     8.743
    71   1 H        0.926     0.036     2.509     2.477
    72   1 H        0.925     0.039     2.464     2.455
    73   1 H        0.925     0.039     2.463     2.454
    74   1 H        0.926     0.031     2.577     2.510
    75   1 H        0.926     0.023     2.693     2.566
    76   1 H        0.926     0.026     2.640     2.541
    77   1 H        0.926     0.040     2.455     2.450
    78   1 H        0.926     0.027     2.636     2.539
    79   1 H        0.926     0.029     2.602     2.522
    80   1 H        0.926     0.028     2.612     2.527
    81   1 H        0.926     0.031     2.570     2.507
    82   1 H        0.926     0.031     2.570     2.507
    83   1 H        0.926     0.028     2.611     2.527
    84   1 H        0.926     0.029     2.601     2.522
    85   1 H        0.926     0.027     2.636     2.539
    86   1 H        0.926     0.039     2.459     2.452
    87   1 H        0.926     0.025     2.659     2.550
    88   1 H        0.926     0.027     2.634     2.538
    89   1 H        0.926     0.039     2.456     2.451
    90   1 H        0.926     0.026     2.644     2.543
    91   1 H        0.926     0.029     2.606     2.525
    92   1 H        0.926     0.028     2.613     2.528
    93   1 H        0.926     0.031     2.569     2.507
    94   1 H        0.926     0.031     2.569     2.507
    95   1 H        0.926     0.028     2.610     2.526
    96   1 H        0.926     0.029     2.600     2.521
    97   1 H        0.926     0.027     2.635     2.539
    98   1 H        0.926     0.039     2.457     2.451
    99   1 H        0.926     0.025     2.656     2.548
   100   1 H        0.926     0.027     2.629     2.535
   101   1 H        0.926     0.040     2.451     2.448
   102   1 H        0.926     0.026     2.642     2.542
   103   1 H        0.926     0.029     2.602     2.522
   104   1 H        0.926     0.028     2.612     2.527
   105   1 H        0.926     0.031     2.570     2.507
   106   1 H        0.926     0.031     2.569     2.507
   107   1 H        0.926     0.028     2.611     2.527
   108   1 H        0.926     0.029     2.600     2.522
   109   1 H        0.926     0.027     2.636     2.539
   110   1 H        0.926     0.039     2.456     2.451
   111   1 H        0.926     0.025     2.659     2.550
   112   1 H        0.926     0.022     2.700     2.570
   113   1 H        0.926     0.032     2.553     2.499
   114   1 H        0.926     0.035     2.518     2.481

molecular dipole:
                 x           y           z       tot (Debye)
 q only:       -0.010      -0.328      -0.173
   full:       -0.006      -0.684      -0.100       1.757

 projected vibrational frequencies (cm⁻¹)
eigval :       -0.00    -0.00    -0.00     0.00     0.00     0.00
eigval :        6.08     6.66     6.99     8.62     9.11    10.25
eigval :       11.18    13.23    20.74    34.75    36.92    37.42
eigval :       43.78    46.57    50.33    58.60    70.88    73.52
eigval :       74.80    79.50    80.76   100.67   103.09   103.37
eigval :      104.10   126.12   130.71   138.84   143.73   144.59
eigval :      145.49   150.04   154.76   168.24   177.51   181.46
eigval :      206.76   214.91   219.27   255.75   256.58   260.51
eigval :      271.41   271.70   271.85   274.31   282.94   292.18
eigval :      304.54   318.93   336.09   340.20   359.78   366.38
eigval :      371.28   371.59   373.52   374.68   386.06   388.39
eigval :      388.56   394.40   399.67   400.86   401.31   422.73
eigval :      422.78   425.14   436.29   436.34   439.39   475.53
eigval :      482.07   483.22   484.25   516.51   518.34   518.64
eigval :      519.08   521.71   527.25   534.49   534.53   534.63
eigval :      538.52   541.22   541.22   541.24   581.39   581.41
eigval :      581.46   594.69   594.98   595.25   597.00   606.63
eigval :      613.37   614.23   614.75   641.93   663.39   664.13
eigval :      667.03   673.77   673.82   673.90   679.63   680.81
eigval :      681.47   682.35   692.47   708.33   708.45   708.48
eigval :      737.21   746.94   747.50   758.38   760.32   760.50
eigval :      769.38   769.59   769.70   777.33   780.83   780.90
eigval :      781.02   782.76   809.78   810.54   811.76   814.86
eigval :      867.62   867.70   867.96   873.60   873.64   873.96
eigval :      877.27   883.95   884.75   886.28   898.02   898.06
eigval :      898.11   902.35   902.77   902.85   903.08   903.11
eigval :      903.19   903.34   913.54   920.24   920.61   920.84
eigval :      921.52   921.63   921.93   922.67   928.37   928.67
eigval :      929.54   930.47   932.24   932.81   932.94   933.72
eigval :      936.12   936.85   938.27   978.23  1009.67  1012.16
eigval :     1012.17  1012.19  1014.35  1015.50  1015.53  1070.50
eigval :     1070.51  1070.53  1074.02  1074.09  1074.14  1084.12
eigval :     1097.22  1118.00  1118.10  1118.27  1137.38  1138.13
eigval :     1138.35  1139.41  1145.31  1147.07  1151.74  1152.11
eigval :     1152.92  1153.10  1153.12  1154.93  1176.92  1177.06
eigval :     1177.16  1181.36  1181.42  1181.45  1185.53  1185.84
eigval :     1187.32  1196.53  1208.87  1209.42  1209.69  1212.61
eigval :     1236.84  1236.89  1237.00  1246.54  1246.64  1246.69
eigval :     1266.48  1273.02  1274.00  1275.21  1276.63  1282.29
eigval :     1298.20  1300.54  1300.59  1300.79  1302.97  1303.21
eigval :     1303.53  1309.82  1309.91  1311.02  1311.61  1357.29
eigval :     1357.30  1357.32  1361.93  1361.96  1362.03  1365.84
eigval :     1365.91  1367.58  1382.96  1394.64  1395.11  1396.74
eigval :     1406.40  1428.32  1428.35  1428.36  1428.72  1428.78
eigval :     1431.33  1444.03  1476.29  1476.31  1476.38  1488.38
eigval :     1488.49  1488.59  1489.55  1489.75  1489.88  1491.32
eigval :     1551.61  1554.72  1555.14  1555.90  1564.62  1573.10
eigval :     1575.34  1575.35  1575.37  1587.45  1587.51  1589.38
eigval :     1590.05  1590.09  1591.29  1594.90  1599.28  1599.33
eigval :     1599.40  1615.28  1615.30  1615.58  3053.33  3061.12
eigval :     3064.11  3066.61  3067.35  3068.27  3068.90  3069.53
eigval :     3073.60  3073.97  3074.36  3075.89  3076.07  3076.09
eigval :     3076.44  3076.47  3076.49  3079.32  3080.90  3081.16
eigval :     3081.20  3081.20  3082.30  3082.33  3082.38  3087.14
eigval :     3087.30  3087.42  3088.47  3088.51  3088.60  3089.16
eigval :     3089.23  3089.60  3090.01  3090.13  3090.32  3091.27
eigval :     3095.22  3095.27  3095.38  3096.99  3097.03  3097.10

   temp. (K)  partition function   enthalpy   heat capacity  entropy
                                   cal/mol     cal/K/mol   cal/K/mol   J/K/mol
 298.15  VIB  0.607E+30            33739.877    207.941    216.131
         ROT  0.348E+09              888.752      2.981     42.067
         INT  0.211E+39            34628.629    210.922    258.198
         TR   0.265E+29             1481.254      4.968     46.277
         TOT                       36109.8832   215.8898   304.4745  1273.9213

       T/K    H(0)-H(T)+PV         H(T)/Eh          T*S/Eh         G(T)/Eh
   ------------------------------------------------------------------------
    298.15    0.575448E-01    0.932844E+00    0.144666E+00    0.788178E+00
   ------------------------------------------------------------------------

         :::::::::::::::::::::::::::::::::::::::::::::::::::::
         ::                  THERMODYNAMIC                  ::
         :::::::::::::::::::::::::::::::::::::::::::::::::::::
         :: total free energy        -174.316498401585 Eh   ::
         ::.................................................::
         :: total energy             -175.104676394036 Eh   ::
         :: zero point energy           0.875298891353 Eh   ::
         :: G(RRHO) w/o ZPVE           -0.087120898902 Eh   ::
         :: G(RRHO) contrib.            0.788177992451 Eh   ::
         :::::::::::::::::::::::::::::::::::::::::::::::::::::

           -------------------------------------------------
          | TOTAL ENERGY             -175.104676394036 Eh   |
          | TOTAL ENTHALPY           -174.171832740913 Eh   |
          | TOTAL FREE ENERGY        -174.316498401585 Eh   |
          | GRADIENT NORM               0.000038233408 Eh/α |
          | HOMO-LUMO GAP               2.629937445084 eV   |
           -------------------------------------------------

 * finished run on 2025/08/30 at 09:51:18.329
