   * xtb version 6.7.1 (edcfbbe) compiled by 'albert@albert-system' on 2024-07-22

   ID    Z sym.   atoms
    1    6 C      1, 2, 4-9, 11-14, 16-33, 35-52, 54-70
    2    7 N      3, 15, 34, 53
    3   14 Si     10
    4    1 H      71-114

          program call               : xtb data2507/gas/SiCz3Py1/SiCz3Py1.xyz --gfn 2 --ohess vtight --parallel 40 --molden --ceasefiles --namespace data2507/gas/SiCz3Py1/SiCz3Py1_gas_S0_preOpt
          :  Hamiltonian                  GFN2-xTB          :
 * total energy  :  -175.0738174 Eh     change       -0.3163194E-08 Eh
 * total energy  :  -175.0973294 Eh     change       -0.2351207E-01 Eh
 * total energy  :  -175.1023099 Eh     change       -0.4980469E-02 Eh
 * total energy  :  -175.1029886 Eh     change       -0.6786983E-03 Eh
 * total energy  :  -175.1035028 Eh     change       -0.5141580E-03 Eh
 * total energy  :  -175.1038270 Eh     change       -0.3242578E-03 Eh
 * total energy  :  -175.1040758 Eh     change       -0.2487449E-03 Eh
 * total energy  :  -175.1042168 Eh     change       -0.1410820E-03 Eh
 * total energy  :  -175.1042841 Eh     change       -0.6721426E-04 Eh
 * total energy  :  -175.1043567 Eh     change       -0.7266922E-04 Eh
 * total energy  :  -175.1046697 Eh     change       -0.8013016E-06 Eh
 * total energy  :  -175.1046705 Eh     change       -0.8465884E-06 Eh
 * total energy  :  -175.1046713 Eh     change       -0.7640912E-06 Eh
 * total energy  :  -175.1046718 Eh     change       -0.5731527E-06 Eh
 * total energy  :  -175.1046722 Eh     change       -0.3769059E-06 Eh
 * total energy  :  -175.1046725 Eh     change       -0.2393477E-06 Eh
 * total energy  :  -175.1046727 Eh     change       -0.1938028E-06 Eh
 * total energy  :  -175.1046729 Eh     change       -0.2062875E-06 Eh
 * total energy  :  -175.1046729 Eh     change       -0.3077758E-08 Eh
   *** GEOMETRY OPTIMIZATION CONVERGED AFTER 68 ITERATIONS ***

 final structure:
================
114
 xtb: 6.7.1 (edcfbbe)
C           -0.34759754079340        1.36742634266926        9.02008455532042
C           -0.16068433976583        0.15032919300658        9.65861077927963
N            0.02304706599294       -0.98490851560040        9.00621262429140
C            0.03579731516984       -0.95503333042155        7.68833088626594
C           -0.12994255733953        0.20804951882530        6.93339100422908
C           -0.10041049462805        0.17482061189899        5.46723938038445
C           -1.00011326042851        0.93115763820137        4.71938211770384
C           -0.97425158552666        0.88940244807948        3.33934222603474
C           -0.05117483093919        0.10205787872534        2.65840678149515
Si          -0.01720416334314        0.01936977222882        0.76713301453202
C            1.79017174818580       -0.00542899490626        0.20532370272547
C            2.22152018349165       -0.82908034073015       -0.82983071480285
C            3.54084728830818       -0.84073990240201       -1.23717375044045
C            4.46815877976139       -0.00826967035594       -0.61624441822172
N            5.80668566494561       -0.01079478536120       -1.02558860368993
C            6.25432640213718        0.10298307817342       -2.32749859034279
C            5.53279982099944        0.29393046225114       -3.49716376117137
C            6.23884623083169        0.40544685458695       -4.67966517426661
C            7.63006367667902        0.33921054332553       -4.70587108294231
C            8.35455755321862        0.17494203399358       -3.54234773241332
C            7.66728375674839        0.06014409331906       -2.34125291444901
C            8.08449903223651       -0.09424849640769       -0.97572247835720
C            9.32548121223203       -0.21509060011743       -0.36456393280743
C            9.37504114567697       -0.37840636106689        1.00528788488649
C            8.20689748565025       -0.43770093144247        1.76192355910687
C            6.96077460731177       -0.31985843514247        1.17669554576485
C            6.90540131574994       -0.12989817465561       -0.19664530396669
C            4.05161815879568        0.82472130374625        0.41918265616713
C            2.73145300297528        0.81514326712759        0.82206888584849
C           -0.90728834300283        1.52376510773342        0.04063184193298
C           -0.20843413128684        2.63432113273912       -0.42216775790472
C           -0.86649819073496        3.74139043150737       -0.92063524255069
C           -2.25747962282624        3.75749629533712       -0.97615035428332
N           -2.93323928661921        4.87563034674803       -1.47893983895621
C           -3.98113661216257        5.53038655082101       -0.86150033364093
C           -4.56711649056799        5.29341508292364        0.37367595282020
C           -5.59454612453683        6.12741255840972        0.77114113017310
C           -6.02896857171590        7.18028310342941       -0.03092006060274
C           -5.43322866062188        7.43638473260534       -1.24959542449184
C           -4.39841384239422        6.61182352279855       -1.67077063636094
C           -3.55892011285240        6.59744776272918       -2.83592329391405
C           -3.49779169861083        7.38448283806911       -3.97829666216354
C           -2.56005177154610        7.07730171480540       -4.94364241084791
C           -1.70103227418753        5.99178725011481       -4.78762808427430
C           -1.74286719035637        5.19404835670093       -3.66021716001666
C           -2.66633588428606        5.51303981895125       -2.67502782535792
C           -2.97134949209565        2.64917512373204       -0.52717865283448
C           -2.29831884344707        1.55445620050528       -0.02351315357233
C           -0.89868773139545       -1.54527577344796        0.16960120473427
C           -1.08606898741287       -2.64173691804376        1.00546240269815
C           -1.70558515994274       -3.79092797400194        0.55553040103345
C           -2.16616657348843       -3.86519991513625       -0.75621622192468
N           -2.79772103829450       -5.02498982319389       -1.22014437205012
C           -2.49032874117829       -5.70122806226831       -2.38481570504169
C           -1.49459717072980       -5.44876452001763       -3.31751010203275
C           -1.38400557727547       -6.30983474261759       -4.39245024907119
C           -2.23369495664613       -7.40394256329577       -4.53894091134726
C           -3.20976261708989       -7.67480439728847       -3.60107322098531
C           -3.34049009011689       -6.82351867481969       -2.51187346692457
C           -4.20518286168792       -6.81261059739756       -1.36523278616910
C           -5.24448352252978       -7.63225645233225       -0.94548733229879
C           -5.90227400748670       -7.31829952140934        0.22685108208054
C           -5.54566541103142       -6.19469041242364        0.96909419943741
C           -4.51528342197772       -5.36414325715651        0.57196756638950
C           -3.83372496509366       -5.68881930698617       -0.59217318919159
C           -1.99444847522100       -2.77275210469572       -1.60278460646310
C           -1.36466274525236       -1.63516821635775       -1.13986456846264
C            0.85017066486733       -0.64520791088260        3.41288876254138
C            0.82760008878776       -0.61637829879415        4.79269868189143
C           -0.33026042309631        1.39474900287667        7.63700620878342
H           -0.49578374289081        2.27119427020843        9.59103037716822
H           -0.15703382060182        0.07580311806050       10.73794270486159
H            0.16877418639182       -1.91305829326559        7.20190014845508
H           -1.73676181660710        1.53844856928872        5.22601664666133
H           -1.68110105023234        1.48137996970039        2.77550270068377
H            1.51138400717362       -1.48319483149467       -1.31491000490173
H            3.86596172988237       -1.50473708822166       -2.02449913028456
H            4.45555012812325        0.36516593648231       -3.48582956166219
H            5.69965917619332        0.55096068987143       -5.60420494538558
H            8.14479125760052        0.42770997815559       -5.65099571918751
H            9.43340765450906        0.14041294559388       -3.55986773550163
H           10.22967032140612       -0.18614764192086       -0.95366023053162
H           10.32990348527304       -0.47187122369624        1.50078955915932
H            8.27632378061532       -0.58292962031797        2.82996925345875
H            6.06136133333455       -0.38604564702556        1.77028225086055
H            4.76479319902065        1.48424498844623        0.89138613509955
H            2.42029578650517        1.45977418477362        1.63205401743691
H            0.87142372131611        2.63206252865579       -0.38620230250357
H           -0.31080764937794        4.60531755390477       -1.25425982258481
H           -4.22600481296039        4.49152021925059        1.01108231368024
H           -6.06912830698036        5.96129268289398        1.72711739069744
H           -6.83703699780007        7.80788355198130        0.31430032406950
H           -5.75820104084866        8.26234820817977       -1.86408173224582
H           -4.17500656968781        8.21542860102387       -4.10609843392105
H           -2.49386181338879        7.67814463134426       -5.83841712935530
H           -0.98828559966290        5.76612796534071       -5.56717562055585
H           -1.08490345058156        4.34421237761963       -3.55771814805366
H           -4.04952777884695        2.64886200096239       -0.59151527985379
H           -2.86158817653800        0.69672144894599        0.31622224950029
H           -0.73562827235915       -2.59423835760928        2.02636179086172
H           -1.82295297423734       -4.64237500845952        1.20945936971109
H           -0.81867585513782       -4.61459574436533       -3.20388197611329
H           -0.61875024694555       -6.13254857867371       -5.13381112547639
H           -2.11676018454801       -8.05186441465104       -5.39483175895879
H           -3.85744177097554       -8.53218502772959       -3.70510294102615
H           -5.53129483049312       -8.49338110258642       -1.52998258429455
H           -6.71159296891646       -7.94395756283075        0.57264554478728
H           -6.08910868508184       -5.96515445423456        1.87386717631174
H           -4.25921767035184       -4.48571175421580        1.14508553069725
H           -2.37156996093638       -2.81856018375760       -2.61386402482784
H           -1.24231949355222       -0.79037210383688       -1.80301655086223
H            1.58508049487487       -1.25440294967382        2.90520000747952
H            1.54623114365686       -1.19291001748737        5.35731775779545
H           -0.44981567251614        2.32730219285056        7.10347155173010

          :  Hamiltonian                  GFN2-xTB          :
         :: gradient norm              0.000038809455 Eh/a0 ::
         :: HOMO-LUMO gap              2.631459762452 eV    ::
         :: SCC energy              -178.423404285800 Eh    ::
         :: -> dispersion             -0.163246581541 Eh    ::
         :: repulsion energy           3.318731421619 Eh    ::

    * Orbital Energies and Occupations

         #    Occupation            Energy/Eh            Energy/eV
      -------------------------------------------------------------
         1        2.0000           -0.7654855             -20.8299
       ...           ...                  ...                  ...
       152        2.0000           -0.4054918             -11.0340
       153        2.0000           -0.4049153             -11.0183
       154        2.0000           -0.4032619             -10.9733
       155        2.0000           -0.3986276             -10.8472
       156        2.0000           -0.3966857             -10.7944
       157        2.0000           -0.3947916             -10.7428
       158        2.0000           -0.3787676             -10.3068
       159        2.0000           -0.3783532             -10.2955
       160        2.0000           -0.3780065             -10.2861
       161        2.0000           -0.3692306             -10.0473
       162        2.0000           -0.3632199              -9.8837
       163        2.0000           -0.3626903              -9.8693
       164        2.0000           -0.3624377              -9.8624 (HOMO)
       165                         -0.2657333              -7.2310 (LUMO)
       166                         -0.2544075              -6.9228
       167                         -0.2518226              -6.8524
       168                         -0.2489957              -6.7755
       169                         -0.2478614              -6.7447
       170                         -0.2432576              -6.6194
       171                         -0.2425501              -6.6001
       172                         -0.2409419              -6.5564
       173                         -0.2348845              -6.3915
       174                         -0.2338660              -6.3638
       175                         -0.2329870              -6.3399
       ...                                ...                  ...
       329                          0.7466599              20.3177
      -------------------------------------------------------------
                  HL-Gap            0.0967044 Eh            2.6315 eV

     #   Z          covCN         q      C6AA      α(0)
     1   6 C        2.912    -0.039    28.969     8.826
     2   6 C        2.914     0.058    26.709     8.475
     3   7 N        1.835    -0.218    26.600     7.643
     4   6 C        2.918     0.056    26.750     8.481
     5   6 C        2.973     0.000    28.015     8.682
     6   6 C        2.977     0.009    27.803     8.649
     7   6 C        2.922    -0.033    28.823     8.804
     8   6 C        2.934    -0.032    28.797     8.801
     9   6 C        2.863    -0.095    30.391     9.036
    10  14 Si       3.616     0.487    98.196    19.020
    11   6 C        2.862    -0.099    30.482     9.050
    12   6 C        2.935    -0.031    28.785     8.799
    13   6 C        2.920    -0.043    29.071     8.842
    14   6 C        2.914     0.066    26.520     8.445
    15   7 N        2.802    -0.044    22.098     6.982
    16   6 C        3.075     0.047    26.875     8.500
    17   6 C        2.910    -0.051    29.268     8.871
    18   6 C        2.924    -0.034    28.835     8.806
    19   6 C        2.920    -0.041    29.013     8.833
    20   6 C        2.913    -0.033    28.816     8.803
    21   6 C        3.068    -0.017    28.359     8.732
    22   6 C        3.068    -0.017    28.359     8.732
    23   6 C        2.913    -0.033    28.817     8.803
    24   6 C        2.920    -0.041    29.012     8.833
    25   6 C        2.924    -0.033    28.834     8.806
    26   6 C        2.910    -0.051    29.267     8.871
    27   6 C        3.075     0.047    26.875     8.500
    28   6 C        2.919    -0.044    29.082     8.843
    29   6 C        2.938    -0.031    28.764     8.796
    30   6 C        2.862    -0.099    30.481     9.050
    31   6 C        2.935    -0.032    28.792     8.800
    32   6 C        2.920    -0.043    29.074     8.842
    33   6 C        2.914     0.066    26.522     8.445
    34   7 N        2.802    -0.044    22.098     6.982
    35   6 C        3.075     0.047    26.874     8.499
    36   6 C        2.910    -0.051    29.267     8.871
    37   6 C        2.924    -0.034    28.837     8.806
    38   6 C        2.920    -0.041    29.014     8.833
    39   6 C        2.913    -0.033    28.816     8.802
    40   6 C        3.068    -0.017    28.359     8.732
    41   6 C        3.068    -0.017    28.360     8.732
    42   6 C        2.913    -0.033    28.816     8.803
    43   6 C        2.920    -0.041    29.012     8.833
    44   6 C        2.924    -0.033    28.833     8.806
    45   6 C        2.910    -0.051    29.267     8.871
    46   6 C        3.075     0.047    26.874     8.499
    47   6 C        2.919    -0.043    29.080     8.843
    48   6 C        2.938    -0.031    28.766     8.796
    49   6 C        2.862    -0.099    30.484     9.050
    50   6 C        2.935    -0.032    28.787     8.799
    51   6 C        2.920    -0.043    29.071     8.842
    52   6 C        2.914     0.066    26.519     8.444
    53   7 N        2.802    -0.044    22.097     6.982
    54   6 C        3.075     0.047    26.874     8.500
    55   6 C        2.910    -0.051    29.265     8.871
    56   6 C        2.924    -0.034    28.836     8.806
    57   6 C        2.920    -0.041    29.013     8.833
    58   6 C        2.913    -0.033    28.816     8.802
    59   6 C        3.068    -0.017    28.358     8.732
    60   6 C        3.068    -0.017    28.359     8.732
    61   6 C        2.913    -0.033    28.817     8.803
    62   6 C        2.920    -0.041    29.012     8.833
    63   6 C        2.924    -0.033    28.833     8.806
    64   6 C        2.910    -0.051    29.267     8.871
    65   6 C        3.075     0.047    26.874     8.500
    66   6 C        2.919    -0.044    29.082     8.843
    67   6 C        2.938    -0.031    28.772     8.797
    68   6 C        2.937    -0.031    28.763     8.796
    69   6 C        2.922    -0.034    28.851     8.808
    70   6 C        2.933    -0.016    28.422     8.743
    71   1 H        0.926     0.036     2.509     2.477
    72   1 H        0.925     0.039     2.464     2.455
    73   1 H        0.925     0.039     2.463     2.454
    74   1 H        0.926     0.031     2.577     2.510
    75   1 H        0.926     0.023     2.693     2.566
    76   1 H        0.926     0.026     2.642     2.542
    77   1 H        0.926     0.040     2.454     2.450
    78   1 H        0.926     0.027     2.634     2.538
    79   1 H        0.926     0.029     2.602     2.522
    80   1 H        0.926     0.028     2.611     2.527
    81   1 H        0.926     0.031     2.570     2.507
    82   1 H        0.926     0.031     2.570     2.507
    83   1 H        0.926     0.028     2.611     2.527
    84   1 H        0.926     0.029     2.601     2.522
    85   1 H        0.926     0.027     2.635     2.538
    86   1 H        0.926     0.039     2.458     2.452
    87   1 H        0.926     0.025     2.660     2.550
    88   1 H        0.926     0.027     2.633     2.537
    89   1 H        0.926     0.039     2.456     2.451
    90   1 H        0.926     0.026     2.644     2.543
    91   1 H        0.926     0.029     2.606     2.525
    92   1 H        0.926     0.028     2.613     2.528
    93   1 H        0.926     0.031     2.569     2.507
    94   1 H        0.926     0.031     2.570     2.507
    95   1 H        0.926     0.028     2.610     2.527
    96   1 H        0.926     0.029     2.600     2.521
    97   1 H        0.926     0.027     2.635     2.538
    98   1 H        0.926     0.039     2.457     2.451
    99   1 H        0.926     0.025     2.655     2.548
   100   1 H        0.926     0.027     2.628     2.535
   101   1 H        0.926     0.040     2.451     2.448
   102   1 H        0.926     0.026     2.641     2.542
   103   1 H        0.926     0.029     2.602     2.522
   104   1 H        0.926     0.028     2.612     2.527
   105   1 H        0.926     0.031     2.570     2.507
   106   1 H        0.926     0.031     2.569     2.507
   107   1 H        0.926     0.028     2.611     2.527
   108   1 H        0.926     0.029     2.600     2.522
   109   1 H        0.926     0.027     2.635     2.538
   110   1 H        0.926     0.039     2.457     2.451
   111   1 H        0.926     0.025     2.659     2.550
   112   1 H        0.926     0.022     2.703     2.571
   113   1 H        0.926     0.032     2.553     2.499
   114   1 H        0.926     0.035     2.518     2.481

molecular dipole:
                 x           y           z       tot (Debye)
 q only:       -0.048       0.343       0.142
   full:       -0.101       0.688       0.045       1.772

 projected vibrational frequencies (cm⁻¹)
eigval :       -0.00    -0.00    -0.00    -0.00    -0.00     0.00
eigval :        5.98     6.56     6.90     8.56     8.86    10.37
eigval :       11.16    13.24    20.99    34.79    37.01    37.34
eigval :       43.85    46.53    50.34    58.54    70.94    73.59
eigval :       75.01    79.42    80.78   100.60   103.12   103.37
eigval :      104.10   126.09   130.83   138.91   143.85   144.53
eigval :      145.58   150.08   154.90   168.24   177.37   181.62
eigval :      206.91   214.91   219.30   255.94   256.63   260.51
eigval :      271.40   271.73   271.88   274.16   282.80   292.46
eigval :      304.74   318.78   335.98   340.20   359.78   366.37
eigval :      371.29   371.72   373.62   374.61   385.94   388.30
eigval :      388.50   394.30   399.66   400.84   401.27   422.74
eigval :      422.76   425.16   436.38   436.43   439.44   475.77
eigval :      482.00   483.38   484.29   516.31   518.34   518.62
eigval :      519.04   521.68   527.52   534.54   534.59   534.72
eigval :      538.49   541.21   541.21   541.24   581.38   581.41
eigval :      581.47   594.69   594.99   595.19   597.01   606.62
eigval :      613.38   614.30   614.79   641.90   663.39   664.17
eigval :      666.94   673.78   673.84   673.93   679.64   680.80
eigval :      681.44   682.36   692.44   708.35   708.46   708.51
eigval :      737.14   746.95   747.57   758.39   760.35   760.54
eigval :      769.39   769.59   769.75   777.41   780.84   780.91
eigval :      781.05   782.71   809.83   810.52   811.80   814.89
eigval :      867.60   867.66   867.95   873.62   873.69   874.01
eigval :      877.34   884.07   884.78   886.31   898.02   898.06
eigval :      898.10   902.39   902.79   902.87   903.08   903.14
eigval :      903.20   903.36   913.53   920.24   920.61   920.84
eigval :      921.53   921.61   921.94   922.73   928.41   928.78
eigval :      929.60   930.51   932.22   932.81   932.93   933.75
eigval :      936.26   936.89   938.33   978.21  1009.69  1012.16
eigval :     1012.17  1012.20  1014.36  1015.51  1015.56  1070.53
eigval :     1070.57  1070.59  1074.10  1074.12  1074.24  1084.19
eigval :     1097.20  1118.10  1118.19  1118.29  1137.40  1138.13
eigval :     1138.38  1139.41  1145.27  1146.99  1151.91  1152.21
eigval :     1153.07  1153.14  1153.20  1154.70  1177.04  1177.09
eigval :     1177.21  1181.35  1181.40  1181.44  1185.55  1185.79
eigval :     1187.33  1196.49  1208.91  1209.49  1209.61  1212.57
eigval :     1236.84  1236.86  1236.98  1246.59  1246.71  1246.82
eigval :     1266.42  1273.03  1273.97  1275.16  1276.58  1282.26
eigval :     1298.23  1300.56  1300.63  1300.67  1302.93  1303.15
eigval :     1303.49  1309.83  1309.93  1311.04  1311.66  1357.31
eigval :     1357.33  1357.35  1361.91  1361.96  1362.01  1365.79
eigval :     1365.89  1367.53  1382.97  1394.64  1395.24  1396.80
eigval :     1406.39  1428.30  1428.33  1428.34  1428.68  1428.76
eigval :     1431.29  1444.05  1476.26  1476.31  1476.34  1488.39
eigval :     1488.50  1488.50  1489.51  1489.73  1489.80  1491.26
eigval :     1551.63  1554.68  1555.10  1555.88  1564.64  1573.14
eigval :     1575.35  1575.36  1575.40  1587.43  1587.51  1589.33
eigval :     1590.03  1590.08  1591.19  1594.91  1599.28  1599.31
eigval :     1599.38  1615.26  1615.29  1615.56  3053.29  3061.16
eigval :     3063.82  3066.55  3067.53  3068.11  3069.07  3069.50
eigval :     3073.30  3074.04  3074.59  3075.90  3076.09  3076.10
eigval :     3076.46  3076.50  3076.54  3079.22  3080.72  3081.17
eigval :     3081.22  3081.25  3082.34  3082.36  3082.40  3087.23
eigval :     3087.37  3087.51  3088.53  3088.60  3088.70  3089.23
eigval :     3089.30  3089.64  3090.07  3090.19  3090.43  3091.32
eigval :     3095.27  3095.33  3095.42  3096.97  3097.00  3097.08

   temp. (K)  partition function   enthalpy   heat capacity  entropy
                                   cal/mol     cal/K/mol   cal/K/mol   J/K/mol
 298.15  VIB  0.639E+30            33738.495    207.940    216.176
         ROT  0.348E+09              888.752      2.981     42.068
         INT  0.223E+39            34627.248    210.921    258.244
         TR   0.265E+29             1481.254      4.968     46.277
         TOT                       36108.5017   215.8892   304.5210  1274.1160

       T/K    H(0)-H(T)+PV         H(T)/Eh          T*S/Eh         G(T)/Eh
   ------------------------------------------------------------------------
    298.15    0.575426E-01    0.932850E+00    0.144688E+00    0.788163E+00
   ------------------------------------------------------------------------

         :::::::::::::::::::::::::::::::::::::::::::::::::::::
         ::                  THERMODYNAMIC                  ::
         :::::::::::::::::::::::::::::::::::::::::::::::::::::
         :: total free energy        -174.316510139666 Eh   ::
         ::.................................................::
         :: total energy             -175.104672864175 Eh   ::
         :: zero point energy           0.875307938184 Eh   ::
         :: G(RRHO) w/o ZPVE           -0.087145213675 Eh   ::
         :: G(RRHO) contrib.            0.788162724509 Eh   ::
         :::::::::::::::::::::::::::::::::::::::::::::::::::::

           -------------------------------------------------
          | TOTAL ENERGY             -175.104672864175 Eh   |
          | TOTAL ENTHALPY           -174.171822365864 Eh   |
          | TOTAL FREE ENERGY        -174.316510139666 Eh   |
          | GRADIENT NORM               0.000038817172 Eh/α |
          | HOMO-LUMO GAP               2.631461315063 eV   |
           -------------------------------------------------

 * finished run on 2025/08/30 at 09:35:24.793
