   * xtb version 6.7.1 (edcfbbe) compiled by 'albert@albert-system' on 2024-07-22

   ID    Z sym.   atoms
    1    6 C      1-22, 24-26, 28-51, 53, 55, 56
    2    7 N      23, 27, 52, 54
    3    1 H      57-90

          program call               : xtb data2507/gas/pCbz-PYR/pCbz-PYR_gas_S0_finalOpt.xtbopt.xyz --gfn 2 --spinpol --tblite --uhf 2 --ohess vtight --parallel 40 --molden --ceasefiles --namespace data2507/gas/pCbz-PYR/pCbz-PYR_gas_T1_preOpt
 * total energy  :  -140.3578996 Eh     change        0.2260100E-07 Eh
 * total energy  :  -140.3609664 Eh     change       -0.3066795E-02 Eh
 * total energy  :  -140.3618025 Eh     change       -0.8361108E-03 Eh
 * total energy  :  -140.3618840 Eh     change       -0.8143811E-04 Eh
 * total energy  :  -140.3619247 Eh     change       -0.4071008E-04 Eh
 * total energy  :  -140.3619450 Eh     change       -0.2027098E-04 Eh
 * total energy  :  -140.3619683 Eh     change       -0.2333174E-04 Eh
 * total energy  :  -140.3619928 Eh     change       -0.2447275E-04 Eh
 * total energy  :  -140.3620170 Eh     change       -0.2425531E-04 Eh
 * total energy  :  -140.3620445 Eh     change       -0.2748804E-04 Eh
 * total energy  :  -140.3621233 Eh     change       -0.1294439E-05 Eh
 * total energy  :  -140.3621245 Eh     change       -0.1141748E-05 Eh
 * total energy  :  -140.3621259 Eh     change       -0.1419875E-05 Eh
 * total energy  :  -140.3621272 Eh     change       -0.1290241E-05 Eh
 * total energy  :  -140.3621283 Eh     change       -0.1125523E-05 Eh
 * total energy  :  -140.3621296 Eh     change       -0.1308594E-05 Eh
 * total energy  :  -140.3621310 Eh     change       -0.1406366E-05 Eh
 * total energy  :  -140.3621310 Eh     change        0.4247701E-07 Eh
 * total energy  :  -140.3621310 Eh     change       -0.4018986E-07 Eh
   *** GEOMETRY OPTIMIZATION CONVERGED AFTER 45 ITERATIONS ***

 final structure:
================
90
 xtb: 6.7.1 (edcfbbe)
C            9.57979259073535       -4.60571941348645       -1.52506362716599
C            8.85794120879393       -5.12673833038270       -0.46353408244659
C            7.66648198002905       -4.54282641709199       -0.07856484183945
C            7.17634035443114       -3.41915678183418       -0.74458179620636
C            5.91503376044440       -2.79377747082669       -0.33408880581799
C            4.82429597453165       -3.59226959274170        0.05130849873101
C            3.61736187207951       -3.04594403942712        0.43221167704593
C            3.50237289801655       -1.66247499819284        0.44860973194935
C            4.59027372161868       -0.83684884654776        0.06444992408901
C            5.78874463857902       -1.40608037845530       -0.32605528569659
C            4.13989730504401        0.51914515921384        0.20314416726213
C            4.74922626982787        1.74452352101763        0.00283443853687
C            4.04265364057168        2.91362224992139        0.27433916797816
C            4.66110598855442        4.22546080623348        0.06013420708434
C            6.00575990592653        4.44046747467241        0.36363324501028
C            6.58463067992911        5.67887415854605        0.16433827484579
C            5.83522463478246        6.72568372937783       -0.34758153080613
C            4.49981190938991        6.52442821316285       -0.65635877338648
C            3.91691891530333        5.28876273206856       -0.45193293035214
C            2.73389725322754        2.82598754252066        0.77898950636510
C            2.11046817546026        1.61436122290012        0.98685169451902
C            2.79954072507970        0.45120378776756        0.66854954181488
N            2.42219582873248       -0.87217159875059        0.78951095239429
C            1.17265764245116       -1.34984410755067        1.13951706372348
C           -0.00745036679875       -0.74221357892085        0.72734780074095
C           -1.20818412734726       -1.31358520315691        1.13321046239762
N           -2.44314377321239       -0.81095872139968        0.76930511673542
C           -3.54975569824546       -1.58307744932519        0.46992704995225
C           -3.71100138416644       -2.96115268303652        0.52250799497167
C           -4.93839519375397       -3.48575935408150        0.17828666337027
C           -6.00579859970958       -2.67230435006375       -0.24004436933632
C           -7.29127085037625       -3.27526784770489       -0.60627577158421
C           -7.81148312977178       -4.34495984264317        0.12297563562033
C           -9.02596874716962       -4.90749285333141       -0.21941372885499
C           -9.74151679844444       -4.41904258505947       -1.30054795832686
C           -9.23447362283030       -3.35923047483825       -2.03487345751242
C           -8.02366877325156       -2.79025652223476       -1.69025811346379
C           -5.83268535113493       -1.29131697875959       -0.30523195314062
C           -4.61307438215163       -0.74342605394866        0.04875938590125
C           -4.11947648744212        0.60230499537135        0.11642958908508
C           -4.69092049063818        1.83268641013881       -0.15227774712925
C           -3.94831801124389        2.99281400874463        0.05279861232405
C           -4.52298114652955        4.30814108189312       -0.24413588444170
C           -3.74194554886624        5.31337357896185       -0.81549164785814
C           -4.28406910342844        6.55103820400466       -1.10286354592052
C           -5.61464661299007        6.81287019493522       -0.81954201516729
C           -6.40012943678476        5.82461812797173       -0.24864759237783
C           -5.86212746096293        4.58397971069073        0.03371553769737
C           -2.64387475241468        2.89199536088469        0.56629691322601
C           -2.05821005088066        1.67504828617125        0.84183946227485
C           -2.78044247465095        0.51662161594174        0.58403585546456
N           -1.20061369208664       -2.48330580208189        1.86780678311269
C           -0.04357474666319       -3.02388102968019        2.14554246790647
N            1.13070129954114       -2.52283799480974        1.86684130173016
C            7.91470843148003       -2.90215075902147       -1.80952727400615
C            9.10232176669231       -3.49211678589034       -2.19691725552269
H           10.50929917473078       -5.06503539613371       -1.82725711589243
H            9.22799479923267       -5.99170404515252        0.06772533387297
H            7.11975424789051       -4.94293988744991        0.76269736865231
H            4.92808559578166       -4.66612359310129        0.01629061771681
H            2.78466085670379       -3.66842164450076        0.71922917052961
H            6.62635027138372       -0.78019074999732       -0.59492615201694
H            5.75913646139163        1.79218636587161       -0.37546769049416
H            6.59185356035225        3.63592449497144        0.78338228532111
H            7.62512095842754        5.83109834319974        0.41253972025672
H            6.28924603974315        7.69285432810170       -0.50456472603365
H            3.91125843572826        7.33534994829537       -1.06070602292346
H            2.88016544077820        5.13476630523106       -0.71375199094425
H            2.21600649430730        3.73542495159910        1.04376929083090
H            1.12398564086997        1.57871354083998        1.42096248665311
H            0.00963617434244        0.09490541905714        0.04882878385329
H           -2.89698590931311       -3.59616683019144        0.83452143546544
H           -5.07740919441543       -4.55598912989398        0.19890779552950
H           -7.26930328048026       -4.71836793399391        0.97932494250435
H           -9.41899389859729       -5.73003422000874        0.36050917203470
H          -10.68907467542960       -4.86189041802211       -1.56944556794314
H           -9.78547145341048       -2.97723714911378       -2.88219027936711
H           -7.62552773073753       -1.97727810053929       -2.27994275143043
H           -6.65090743356622       -0.65183567413469       -0.60052161323140
H           -5.69878760836123        1.88962091472172       -0.53467945756270
H           -2.70890550750353        5.11076115496109       -1.05820090736805
H           -3.66747150814634        7.31583988720135       -1.55274782260234
H           -6.03697756155362        7.78152512021957       -1.04213264827809
H           -7.43701670036248        6.02456271339718       -0.01994875101393
H           -6.47630266818928        3.82636123070579        0.49824607461383
H           -2.09781931451089        3.79786060788930        0.78219742423478
H           -1.07376444759582        1.63684295018388        1.27948390806433
H           -0.05934526910374       -3.95993404098837        2.68916370255796
H            7.53889911901314       -2.04632931571365       -2.35130095471760
H            9.65812490682964       -3.08430460201801       -3.02892001031935

 projected vibrational frequencies (cm⁻¹)
eigval :       -0.00    -0.00    -0.00     0.00     0.00     0.00
eigval :        5.83    10.01    13.03    25.76    34.52    36.62
eigval :       38.07    38.83    39.89    43.02    47.61    53.31
eigval :       57.28    58.04    83.06    85.87    91.38    94.61
eigval :      108.28   122.01   128.45   144.31   145.90   166.24
eigval :      171.69   175.45   196.35   215.41   217.90   230.50
eigval :      249.67   251.50   264.71   277.77   294.56   296.28
eigval :      306.07   314.21   336.53   352.32   359.30   359.61
eigval :      370.14   370.98   371.58   372.04   383.69   387.83
eigval :      389.07   392.05   395.88   414.09   425.25   429.14
eigval :      437.47   474.84   475.46   479.30   488.36   496.62
eigval :      498.96   503.30   552.35   552.55   568.72   571.22
eigval :      572.45   583.48   586.34   586.41   590.04   591.40
eigval :      598.58   601.00   613.64   619.51   620.14   624.33
eigval :      625.16   655.65   665.17   665.84   669.30   670.08
eigval :      674.10   681.50   681.99   699.56   700.11   723.07
eigval :      733.47   735.68   744.36   755.82   755.92   756.31
eigval :      757.36   809.98   815.20   818.32   819.40   849.75
eigval :      851.24   860.40   864.57   865.09   866.40   868.72
eigval :      874.82   875.50   875.62   876.37   888.48   895.32
eigval :      896.12   899.68   899.81   900.67   900.99   902.92
eigval :      903.28   905.47   905.79   918.31   929.00   929.24
eigval :      929.36   929.53   930.12   930.26   930.42   930.47
eigval :      961.16   968.12   969.01   969.91   979.46   980.17
eigval :     1021.80  1022.86  1061.19  1065.10  1065.30  1068.34
eigval :     1082.95  1085.28  1085.59  1085.79  1088.24  1102.91
eigval :     1121.83  1121.89  1122.60  1122.63  1131.60  1136.78
eigval :     1140.48  1168.19  1181.47  1181.50  1181.55  1181.60
eigval :     1190.96  1197.42  1198.07  1199.41  1204.01  1209.45
eigval :     1215.49  1218.13  1223.95  1234.19  1245.55  1249.02
eigval :     1263.49  1266.85  1276.81  1277.32  1280.56  1281.41
eigval :     1281.55  1281.85  1283.31  1300.12  1303.05  1320.01
eigval :     1320.52  1321.24  1321.49  1327.49  1332.72  1339.72
eigval :     1348.58  1355.70  1362.32  1400.90  1401.31  1402.85
eigval :     1414.21  1415.02  1427.62  1427.82  1429.13  1429.19
eigval :     1441.67  1442.51  1446.48  1446.65  1466.85  1467.64
eigval :     1483.69  1483.82  1487.34  1491.53  1528.55  1530.26
eigval :     1535.56  1541.97  1544.21  1545.61  1561.91  1569.64
eigval :     1573.57  1573.91  1574.31  1575.30  1594.44  1594.68
eigval :     1596.42  1597.02  3048.34  3070.60  3070.75  3070.91
eigval :     3070.96  3072.19  3072.30  3072.97  3073.02  3081.01
eigval :     3081.12  3081.42  3081.44  3083.72  3083.97  3084.61
eigval :     3084.66  3087.33  3087.43  3087.79  3089.26  3090.04
eigval :     3090.19  3090.69  3090.91  3092.02  3092.14  3092.18
eigval :     3093.13  3099.94  3101.17  3101.81  3102.02  3107.28

   temp. (K)  partition function   enthalpy   heat capacity  entropy
                                   cal/mol     cal/K/mol   cal/K/mol   J/K/mol
 298.15  VIB  0.782E+21            26015.743    163.634    162.993
         ROT  0.195E+09              888.752      2.981     40.918
         INT  0.153E+30            26904.496    166.615    203.911
         TR   0.185E+29             1481.254      4.968     45.560
         TOT                       28385.7497   171.5827   249.4717  1043.7896

       T/K    H(0)-H(T)+PV         H(T)/Eh          T*S/Eh         G(T)/Eh
   ------------------------------------------------------------------------
    298.15    0.452356E-01    0.730365E+00    0.118532E+00    0.611833E+00
   ------------------------------------------------------------------------

         :::::::::::::::::::::::::::::::::::::::::::::::::::::
         ::                  THERMODYNAMIC                  ::
         :::::::::::::::::::::::::::::::::::::::::::::::::::::
         :: total free energy        -139.750298092872 Eh   ::
         ::.................................................::
         :: total energy             -140.362131005535 Eh   ::
         :: zero point energy           0.685129401968 Eh   ::
         :: G(RRHO) w/o ZPVE           -0.073296489305 Eh   ::
         :: G(RRHO) contrib.            0.611832912662 Eh   ::
         :::::::::::::::::::::::::::::::::::::::::::::::::::::

           -------------------------------------------------
          | TOTAL ENERGY             -140.362131005535 Eh   |
          | TOTAL ENTHALPY           -139.631766032124 Eh   |
          | TOTAL FREE ENERGY        -139.750298092872 Eh   |
          | GRADIENT NORM               0.000096935308 Eh/α |
           -------------------------------------------------

 * finished run on 2025/08/24 at 16:37:35.270
