   * xtb version 6.7.1 (edcfbbe) compiled by 'albert@albert-system' on 2024-07-22

   ID    Z sym.   atoms
    1    6 C      1-22, 24-26, 28-51, 53, 55, 56
    2    7 N      23, 27, 52, 54
    3    1 H      57-90

          program call               : xtb data2507/gas/pCbz-PYR/pCbz-PYR_gas_T1_crest.xyz --gfn 2 --spinpol --tblite --uhf 2 --ohess vtight --parallel 40 --molden --ceasefiles --namespace data2507/gas/pCbz-PYR/pCbz-PYR_gas_T1_finalOpt
 * total energy  :  -140.3619579 Eh     change       -0.2420592E-07 Eh
 * total energy  :  -140.3620595 Eh     change       -0.1015660E-03 Eh
 * total energy  :  -140.3621032 Eh     change       -0.4373116E-04 Eh
 * total energy  :  -140.3621073 Eh     change       -0.4146545E-05 Eh
 * total energy  :  -140.3621106 Eh     change       -0.3227489E-05 Eh
 * total energy  :  -140.3621128 Eh     change       -0.2238264E-05 Eh
 * total energy  :  -140.3621155 Eh     change       -0.2641284E-05 Eh
 * total energy  :  -140.3621171 Eh     change       -0.1679368E-05 Eh
 * total energy  :  -140.3621184 Eh     change       -0.1266735E-05 Eh
 * total energy  :  -140.3621201 Eh     change       -0.1685757E-05 Eh
 * total energy  :  -140.3621375 Eh     change       -0.9051642E-06 Eh
 * total energy  :  -140.3621378 Eh     change       -0.3164500E-06 Eh
 * total energy  :  -140.3621381 Eh     change       -0.3470132E-06 Eh
 * total energy  :  -140.3621390 Eh     change       -0.8675807E-06 Eh
 * total energy  :  -140.3621393 Eh     change       -0.3552440E-06 Eh
 * total energy  :  -140.3621402 Eh     change       -0.8862034E-06 Eh
 * total energy  :  -140.3621406 Eh     change       -0.3760971E-06 Eh
 * total energy  :  -140.3621406 Eh     change        0.1108532E-07 Eh
 * total energy  :  -140.3621406 Eh     change       -0.1399400E-07 Eh
   *** GEOMETRY OPTIMIZATION CONVERGED AFTER 45 ITERATIONS ***

 final structure:
================
90
 xtb: 6.7.1 (edcfbbe)
C            9.61446027324945       -4.56788849308207       -1.48971458497366
C            8.89116885160463       -5.08914110662039       -0.42927813096400
C            7.69482450475036       -4.51064263927938       -0.05137228130754
C            7.20088691298734       -3.39232232366591       -0.72361699057285
C            5.93436417228254       -2.77274855914757       -0.32062158654074
C            4.84733412746037       -3.57581263413457        0.06587861522574
C            3.63601920749355       -3.03495636105964        0.44071931639955
C            3.51225745601850       -1.65216429468584        0.44975680191992
C            4.59602860255141       -0.82214964339455        0.06333097813334
C            5.79916110260022       -1.38587392908150       -0.32064219327335
C            4.13728768905613        0.53177618922785        0.19321426845638
C            4.73974370427727        1.75922377616134       -0.01461303309153
C            4.02626981377778        2.92609621602148        0.24825739856684
C            4.63745967043109        4.23981211685353        0.02537229353720
C            5.98149868670179        4.46337593949559        0.32548751422338
C            6.55401869335980        5.70330445055676        0.11766562885059
C            5.79868892519637        6.74329243637284       -0.39941283274539
C            4.46378603058632        6.53359698286943       -0.70479177497325
C            3.88726950601009        5.29634449477809       -0.49202320777514
C            2.71771804095583        2.83395656888037        0.75269789806430
C            2.10113612591907        1.62010805450531        0.96789778277946
C            2.79666047632050        0.45867247885301        0.65717802095165
N            2.42669455112441       -0.86632407556438        0.78461423110411
C            1.17953811137794       -1.34976746052323        1.13464773700672
C           -0.00403548401722       -0.74684026458685        0.72519467982444
C           -1.20150026530736       -1.32456044386846        1.13159493001990
N           -2.43914110740634       -0.82540253958257        0.77194720004327
C           -3.54282497891322       -1.60064969835320        0.47016634425825
C           -3.69751766202844       -2.97974115301163        0.51439224006675
C           -4.92322606588784       -3.50781346414602        0.16948224305422
C           -5.99551886218528       -2.69666936002601       -0.24081702250184
C           -7.27934547431241       -3.30315522534054       -0.60689121881512
C           -7.79096934387720       -4.38161271401039        0.11552886805795
C           -9.00402565558288       -4.94751143354857       -0.22633638417030
C           -9.72691784968586       -4.45352628345739       -1.30003132682198
C           -9.22851485369817       -3.38493321089341       -2.02753301422378
C           -8.01901639766225       -2.81282531642628       -1.68355080543990
C           -5.82884081694280       -1.31449664096484       -0.29778426844829
C           -4.61081860211642       -0.76327879775025        0.05641062342582
C           -4.12307082292448        0.58424189165949        0.13108234001307
C           -4.70065276410693        1.81369656398899       -0.12854220638882
C           -3.96300121132347        2.97591993991807        0.08256329997882
C           -4.54506004220616        4.29060097682293       -0.20266605260988
C           -3.77065325338876        5.30498356772665       -0.76686082846517
C           -4.31990936333497        6.54236095602544       -1.04172966170885
C           -5.65115850560897        6.79469164842094       -0.75301490536316
C           -6.43020785493474        5.79715916825557       -0.18950665080860
C           -5.88502328052879        4.55691299083252        0.08049379250416
C           -2.65682871204418        2.87774242075768        0.59215699908628
C           -2.06504133934007        1.66171146181872        0.85856335096902
C           -2.78269299339361        0.50171993200342        0.59527078175847
N           -1.18799091623946       -2.49653268140242        1.86239158643985
C           -0.02813202857726       -3.03233920004335        2.13737591873244
N            1.14342773948082       -2.52456834241946        1.85940550276539
C            7.94081176414636       -2.87498739416908       -1.78737331517585
C            9.13344345919425       -3.45944876863666       -2.16756694573134
H           10.54778676505671       -5.02301279787384       -1.78641968071782
H            9.26392358135610       -5.95004140056094        0.10667588160891
H            7.14704971846327       -4.91075833521826        0.78919868718070
H            4.95764971839661       -4.64918180284359        0.03668066092764
H            2.80648561484528       -3.66116509065570        0.72876797236061
H            6.63349323395745       -0.75598005395865       -0.59031859881216
H            5.74966471683984        1.80990659397024       -0.39246755929282
H            6.57223888441962        3.66435826295666        0.74924315129203
H            7.59418367207488        5.86202197850761        0.36315628095679
H            6.24770691744502        7.71170993906539       -0.56296931158092
H            3.87060849773848        7.33918838068508       -1.11301660724364
H            2.85091661563434        5.13576901729450       -0.75143747500283
H            2.19421751157562        3.74194436320058        1.01131766409712
H            1.11474272957610        1.58221342403129        1.40184770717590
H            0.00759751805525        0.09153896759449        0.04815210624476
H           -2.87990367561669       -3.61292532104950        0.82065274933385
H           -5.05706295265970       -4.57880112829235        0.18332919745965
H           -7.24324398778648       -4.75945064925005        0.96637567927143
H           -9.39016995960658       -5.77704053399597        0.34823087949562
H          -10.67340761271849       -4.89889857673120       -1.56849541223171
H           -9.78528275781378       -2.99849127416885       -2.86903412032869
H           -7.62772267402856       -1.99291375238259       -2.26818364295953
H           -6.65069558914348       -0.67683949677057       -0.58684308187358
H           -5.70962720928948        1.86838967943377       -0.50834269635604
H           -2.73714253318542        5.11008420125649       -1.01381145299137
H           -3.70833500797893        7.31446437190284       -1.48595389123832
H           -6.07897949089081        7.76318351613920       -0.96559952726962
H           -7.46761604005830        5.98951716050105        0.04327900781237
H           -6.49419822292406        3.79197140252325        0.53955891235813
H           -2.11435713118321        3.78465975101133        0.81259158632721
H           -1.07950177899574        1.62496836901750        1.29389299448704
H           -0.03882531677461       -3.97026387155081        2.67792671086353
H            7.56246644056188       -2.02333126987820       -2.33391158405603
H            9.69042693593288       -3.05140387604617       -2.99866401722442

 projected vibrational frequencies (cm⁻¹)
eigval :       -0.00    -0.00    -0.00    -0.00     0.00     0.00
eigval :        4.60     8.93    12.82    25.43    33.69    35.88
eigval :       37.18    38.40    38.93    42.68    47.10    52.79
eigval :       56.77    57.56    83.18    85.52    91.21    94.48
eigval :      108.03   121.79   128.27   144.05   145.71   166.12
eigval :      171.66   175.35   196.26   215.49   218.13   230.36
eigval :      249.47   251.18   264.63   277.71   294.59   296.23
eigval :      306.15   314.22   336.48   352.37   359.24   359.27
eigval :      369.86   370.70   371.21   371.72   383.60   387.48
eigval :      388.94   391.86   395.60   413.55   425.03   428.96
eigval :      437.23   474.57   475.30   479.29   488.25   496.39
eigval :      498.69   503.53   552.33   552.51   568.64   571.23
eigval :      572.31   583.34   586.36   586.43   590.04   591.40
eigval :      598.41   600.95   613.64   619.38   619.91   624.36
eigval :      625.20   656.04   665.00   665.64   668.97   669.84
eigval :      673.71   681.36   681.81   699.51   699.97   723.05
eigval :      733.28   735.46   744.29   755.32   755.43   755.83
eigval :      756.88   809.24   814.48   817.60   818.92   849.06
eigval :      850.79   860.01   863.84   864.36   865.71   867.94
eigval :      874.04   874.80   874.86   875.69   888.57   894.79
eigval :      896.12   899.10   899.24   899.98   900.39   902.67
eigval :      903.00   904.89   905.15   916.99   928.29   928.55
eigval :      928.83   929.01   929.31   929.43   929.82   929.88
eigval :      960.95   967.99   968.68   970.06   978.65   979.61
eigval :     1021.58  1022.68  1060.66  1064.93  1065.03  1068.02
eigval :     1081.02  1084.64  1085.02  1085.20  1087.58  1104.96
eigval :     1121.01  1121.13  1121.85  1121.91  1131.37  1136.43
eigval :     1140.06  1167.45  1180.25  1180.30  1180.41  1180.52
eigval :     1190.40  1196.46  1197.07  1198.56  1203.17  1209.57
eigval :     1215.23  1217.73  1224.06  1234.09  1245.14  1249.40
eigval :     1263.24  1266.26  1276.78  1277.17  1280.09  1280.72
eigval :     1280.89  1281.19  1282.98  1300.18  1302.55  1320.00
eigval :     1320.52  1321.27  1321.49  1327.38  1332.68  1339.70
eigval :     1348.97  1355.62  1362.50  1400.98  1401.33  1402.97
eigval :     1414.48  1415.23  1427.68  1427.82  1429.15  1429.18
eigval :     1441.51  1442.53  1446.51  1446.64  1466.93  1467.73
eigval :     1483.76  1483.90  1487.26  1491.42  1528.68  1529.94
eigval :     1535.37  1541.77  1544.44  1545.40  1561.16  1569.44
eigval :     1573.67  1573.92  1574.34  1575.27  1594.48  1594.69
eigval :     1596.44  1597.04  3048.12  3070.67  3070.79  3070.82
eigval :     3070.86  3072.32  3072.38  3072.68  3072.72  3080.97
eigval :     3081.09  3081.39  3081.40  3083.94  3084.16  3084.66
eigval :     3084.69  3087.66  3087.75  3087.97  3089.29  3090.04
eigval :     3090.23  3091.11  3091.25  3092.17  3092.26  3092.31
eigval :     3093.02  3100.66  3101.51  3102.16  3102.40  3107.24

   temp. (K)  partition function   enthalpy   heat capacity  entropy
                                   cal/mol     cal/K/mol   cal/K/mol   J/K/mol
 298.15  VIB  0.133E+22            26038.791    163.582    163.462
         ROT  0.195E+09              888.752      2.981     40.918
         INT  0.259E+30            26927.543    166.563    204.380
         TR   0.185E+29             1481.254      4.968     45.560
         TOT                       28408.7971   171.5308   249.9407  1045.7517

       T/K    H(0)-H(T)+PV         H(T)/Eh          T*S/Eh         G(T)/Eh
   ------------------------------------------------------------------------
    298.15    0.452723E-01    0.730257E+00    0.118755E+00    0.611502E+00
   ------------------------------------------------------------------------

         :::::::::::::::::::::::::::::::::::::::::::::::::::::
         ::                  THERMODYNAMIC                  ::
         :::::::::::::::::::::::::::::::::::::::::::::::::::::
         :: total free energy        -139.750638079618 Eh   ::
         ::.................................................::
         :: total energy             -140.362140560527 Eh   ::
         :: zero point energy           0.684985049277 Eh   ::
         :: G(RRHO) w/o ZPVE           -0.073482568368 Eh   ::
         :: G(RRHO) contrib.            0.611502480909 Eh   ::
         :::::::::::::::::::::::::::::::::::::::::::::::::::::

           -------------------------------------------------
          | TOTAL ENERGY             -140.362140560527 Eh   |
          | TOTAL ENTHALPY           -139.631883211289 Eh   |
          | TOTAL FREE ENERGY        -139.750638079618 Eh   |
          | GRADIENT NORM               0.000094488470 Eh/α |
           -------------------------------------------------

 * finished run on 2025/08/24 at 16:46:47.511
