   * xtb version 6.7.1 (edcfbbe) compiled by 'albert@albert-system' on 2024-07-22

   ID    Z sym.   atoms
    1    6 C      1-22, 24-26, 28-51, 53, 55, 56
    2    7 N      23, 27, 52, 54
    3    1 H      57-90

          program call               : xtb data2507/gas/pCbz-PYR/pCbz-PYR.xyz --gfn 2 --ohess vtight --parallel 40 --molden --ceasefiles --namespace data2507/gas/pCbz-PYR/pCbz-PYR_gas_S0_preOpt
          :  Hamiltonian                  GFN2-xTB          :
 * total energy  :  -140.4287640 Eh     change       -0.1403464E-08 Eh
 * total energy  :  -140.4463774 Eh     change       -0.1761337E-01 Eh
 * total energy  :  -140.4515035 Eh     change       -0.5126126E-02 Eh
 * total energy  :  -140.4529862 Eh     change       -0.1482657E-02 Eh
 * total energy  :  -140.4538736 Eh     change       -0.8874499E-03 Eh
 * total energy  :  -140.4542268 Eh     change       -0.3531851E-03 Eh
 * total energy  :  -140.4545423 Eh     change       -0.3154562E-03 Eh
 * total energy  :  -140.4548744 Eh     change       -0.3321737E-03 Eh
 * total energy  :  -140.4551135 Eh     change       -0.2390136E-03 Eh
 * total energy  :  -140.4553088 Eh     change       -0.1953253E-03 Eh
 * total energy  :  -140.4562584 Eh     change       -0.1570620E-05 Eh
 * total energy  :  -140.4562601 Eh     change       -0.1716157E-05 Eh
 * total energy  :  -140.4562620 Eh     change       -0.1937583E-05 Eh
 * total energy  :  -140.4562642 Eh     change       -0.2186420E-05 Eh
 * total energy  :  -140.4562666 Eh     change       -0.2426377E-05 Eh
 * total energy  :  -140.4562692 Eh     change       -0.2591849E-05 Eh
 * total energy  :  -140.4562717 Eh     change       -0.2485585E-05 Eh
 * total energy  :  -140.4562742 Eh     change       -0.2515377E-05 Eh
 * total energy  :  -140.4562742 Eh     change       -0.8926747E-08 Eh
   *** GEOMETRY OPTIMIZATION CONVERGED AFTER 68 ITERATIONS ***

 final structure:
================
90
 xtb: 6.7.1 (edcfbbe)
C           10.22726650935489       -3.12782399777810       -2.05852883571292
C            9.97672995344571       -2.57187892391058       -0.81522591945577
C            8.67825065289265       -2.31280799711020       -0.41815309677229
C            7.60652484567813       -2.61021141841742       -1.25689178328302
C            6.22533941397292       -2.33509605067749       -0.83266910672944
C            5.21047437543969       -3.26358710850156       -1.09448804985716
C            3.90100715304170       -3.05178687313242       -0.70980437630832
C            3.60295923773976       -1.87348606641694       -0.04545583679349
C            4.60816572628353       -0.92174352503297        0.22064122036696
C            5.91705825610039       -1.15393775742799       -0.16893943275156
C            3.97232790714719        0.17343620462717        0.90436451951625
C            4.46217610105186        1.35309690763296        1.43851494691150
C            3.59605494850729        2.20367684990450        2.11520321779244
C            4.08674957506683        3.46915046642011        2.68143339920384
C            4.97009801785092        4.26894828647060        1.95976341448324
C            5.43147988988484        5.46111667010422        2.48565829834429
C            5.02265304484950        5.87205937792916        3.74331728503322
C            4.14792757858638        5.08305375305503        4.47132820790336
C            3.68156866924847        3.89290268516909        3.94492426745191
C            2.25567145183168        1.83420697056856        2.26886484304989
C            1.74773152503197        0.66479694595173        1.73569601021023
C            2.60348424100336       -0.15685089847304        1.01680289038442
N            2.37893080650433       -1.38865311584467        0.41053129354336
C            1.16207141550361       -2.00142230713717        0.19864779946111
C           -0.00723942534658       -1.26739631408115        0.00225095709187
C           -1.18021996904766       -1.99461448875975       -0.19824093377793
N           -2.39295550998069       -1.37434881991466       -0.41098663262621
C           -3.62157527587066       -1.85351176145508        0.03880283156381
C           -3.93035538223947       -3.03508043964171        0.69236189808203
C           -5.24234779954423       -3.23979004493288        1.07253794513025
C           -6.24916264444094       -2.30111198823747        0.81631805132343
C           -7.63365517316110       -2.56806690535402        1.23495397008262
C           -8.70014982313551       -2.25892852611973        0.39385120636064
C          -10.00196571387938       -2.50921222838811        0.78548009233111
C          -10.26099345415043       -3.06776766239084        2.02586277693958
C           -9.20874033834614       -3.37680854417063        2.87139723821009
C           -7.90598755714470       -3.13178970549000        2.47924637427861
C           -5.93029633623807       -1.11704536129477        0.16289985075850
C           -4.61878387961833       -0.89181081719780       -0.22174657376499
C           -3.97394787033624        0.20190467202418       -0.89929692248805
C           -4.45515066248984        1.38623782143040       -1.43128419633214
C           -3.57943606354771        2.23898469331698       -2.09225384650374
C           -4.05501254019115        3.51198014062507       -2.65401800414274
C           -3.28772327200251        4.66886170176248       -2.53805224174649
C           -3.73593113465021        5.86667816298876       -3.06262019577559
C           -4.95525646322622        5.92822220584142       -3.71607213362660
C           -5.72533262738479        4.78387887237903       -3.83920878539558
C           -5.28106531394614        3.58627376337458       -3.31085135515333
C           -2.23984710375471        1.86345075721133       -2.24041954513608
C           -1.74354333219451        0.68327821616685       -1.72083997872858
C           -2.60730371988711       -0.13718312179519       -1.00996224941830
N           -1.17901547162081       -3.33189305873852       -0.16844884214680
C           -0.01422913473331       -3.91876355698060       -0.00256396506184
N            1.15372225888819       -3.33857065745657        0.16441590531191
C            7.87041132037901       -3.17094359318908       -2.50442397573510
C            9.16981329085155       -3.42505140386971       -2.90180726672217
H           11.24207161296560       -3.32869171967495       -2.36887512234537
H           10.79746068510665       -2.34159013705441       -0.15122794539290
H            8.48778915367918       -1.89532932939476        0.56004747649754
H            5.46605821353501       -4.18645302432629       -1.59355531148448
H            3.13602007823771       -3.78470478527276       -0.90520393399338
H            6.68144770673860       -0.41588667685658        0.02168867506777
H            5.51154740675993        1.59211993103805        1.35649718197596
H            5.27934636319598        3.96101321786638        0.97127826725680
H            6.11129044618974        6.07399982409723        1.91151395829760
H            5.38442471908526        6.80288924816493        4.15447233951470
H            3.82945831044295        5.39606629793420        5.45519629374353
H            3.01352496511214        3.27367482873410        4.52594352111148
H            1.59135615789183        2.49079548753622        2.81074193231044
H            0.71598492435922        0.40391290939352        1.91207901486187
H           -0.00466427449070       -0.19339578553531        0.00477880437385
H           -3.17151889205727       -3.77564549287594        0.88285483419611
H           -5.50646190913602       -4.16466107401919        1.56342554981084
H           -8.50284630781517       -1.83911931978826       -0.58199261210022
H          -10.81866015906210       -2.26997560270924        0.11966903944333
H          -11.27840470492082       -3.26146090208824        2.33218655336705
H           -9.40503561474064       -3.80893304112866        3.84207882955838
H           -7.09035888042551       -3.35952820827714        3.15024071681761
H           -6.68842483925850       -0.37122240823447       -0.02243797017028
H           -5.49672401302683        1.64689136598393       -1.32147447696840
H           -2.34310760165734        4.63079072489481       -2.01480666204594
H           -3.13239964881266        6.75696742970130       -2.95987982756237
H           -5.30372608367025        6.86385702112343       -4.12779557611596
H           -6.67559666789196        4.82498739107950       -4.35170250052253
H           -5.87812992975940        2.69321966453670       -3.42587215254488
H           -1.57812140461023        2.50356394679100       -2.80481396745242
H           -0.71622220261762        0.41069115488441       -1.90539933767467
H           -0.01708514175454       -5.00136909680090       -0.00395578071622
H            7.05094147865369       -3.38946929173937       -3.17380210714770
H            9.35934187972643       -3.85522163365647       -3.87471133315236

          :  Hamiltonian                  GFN2-xTB          :
         :: gradient norm              0.000069414450 Eh/a0 ::
         :: HOMO-LUMO gap              2.599455551849 eV    ::
         :: SCC energy              -143.109866180140 Eh    ::
         :: -> dispersion             -0.122699865330 Eh    ::
         :: repulsion energy           2.653591938426 Eh    ::

    * Orbital Energies and Occupations

         #    Occupation            Energy/Eh            Energy/eV
      -------------------------------------------------------------
         1        2.0000           -0.6939831             -18.8842
       ...           ...                  ...                  ...
       119        2.0000           -0.4050992             -11.0233
       120        2.0000           -0.4048505             -11.0165
       121        2.0000           -0.4025910             -10.9551
       122        2.0000           -0.4024788             -10.9520
       123        2.0000           -0.4024637             -10.9516
       124        2.0000           -0.4009343             -10.9100
       125        2.0000           -0.3942230             -10.7274
       126        2.0000           -0.3940758             -10.7233
       127        2.0000           -0.3816679             -10.3857
       128        2.0000           -0.3816070             -10.3841
       129        2.0000           -0.3768636             -10.2550
       130        2.0000           -0.3711498             -10.0995
       131        2.0000           -0.3665044              -9.9731 (HOMO)
       132                         -0.2709761              -7.3736 (LUMO)
       133                         -0.2600006              -7.0750
       134                         -0.2494427              -6.7877
       135                         -0.2486630              -6.7665
       136                         -0.2465647              -6.7094
       137                         -0.2463711              -6.7041
       138                         -0.2340683              -6.3693
       139                         -0.2297454              -6.2517
       140                         -0.2230408              -6.0692
       141                         -0.2227856              -6.0623
       142                         -0.2204557              -5.9989
       ...                                ...                  ...
       258                          0.7432141              20.2239
      -------------------------------------------------------------
                  HL-Gap            0.0955282 Eh            2.5995 eV

     #   Z          covCN         q      C6AA      α(0)
     1   6 C        2.920    -0.031    28.785     8.798
     2   6 C        2.918    -0.030    28.741     8.791
     3   6 C        2.925    -0.034    28.851     8.809
     4   6 C        2.977     0.011    27.768     8.644
     5   6 C        2.977     0.003    27.948     8.672
     6   6 C        2.930    -0.036    28.888     8.814
     7   6 C        2.909    -0.046    29.133     8.850
     8   6 C        3.065     0.052    26.772     8.485
     9   6 C        3.062    -0.014    28.297     8.723
    10   6 C        2.919    -0.038    28.933     8.821
    11   6 C        3.063    -0.012    28.245     8.715
    12   6 C        2.919    -0.037    28.916     8.818
    13   6 C        2.977     0.003    27.950     8.672
    14   6 C        2.977     0.011    27.776     8.645
    15   6 C        2.925    -0.034    28.851     8.808
    16   6 C        2.918    -0.029    28.737     8.791
    17   6 C        2.920    -0.031    28.776     8.797
    18   6 C        2.919    -0.029    28.736     8.791
    19   6 C        2.925    -0.034    28.851     8.809
    20   6 C        2.928    -0.037    28.931     8.821
    21   6 C        2.909    -0.050    29.236     8.866
    22   6 C        3.058     0.045    26.938     8.512
    23   7 N        2.802    -0.039    21.985     6.964
    24   6 C        2.919     0.165    24.440     8.107
    25   6 C        2.912    -0.094    30.373     9.037
    26   6 C        2.919     0.165    24.440     8.107
    27   7 N        2.802    -0.038    21.982     6.964
    28   6 C        3.065     0.052    26.773     8.485
    29   6 C        2.909    -0.046    29.133     8.851
    30   6 C        2.930    -0.036    28.889     8.815
    31   6 C        2.977     0.003    27.948     8.672
    32   6 C        2.977     0.011    27.767     8.644
    33   6 C        2.925    -0.034    28.850     8.808
    34   6 C        2.918    -0.030    28.742     8.791
    35   6 C        2.920    -0.031    28.785     8.798
    36   6 C        2.919    -0.030    28.740     8.791
    37   6 C        2.925    -0.034    28.854     8.809
    38   6 C        2.919    -0.038    28.933     8.821
    39   6 C        3.062    -0.014    28.295     8.723
    40   6 C        3.063    -0.012    28.245     8.715
    41   6 C        2.918    -0.037    28.915     8.818
    42   6 C        2.977     0.003    27.948     8.672
    43   6 C        2.977     0.011    27.776     8.645
    44   6 C        2.925    -0.034    28.853     8.809
    45   6 C        2.918    -0.030    28.737     8.791
    46   6 C        2.920    -0.031    28.777     8.797
    47   6 C        2.919    -0.029    28.735     8.790
    48   6 C        2.925    -0.034    28.848     8.808
    49   6 C        2.929    -0.037    28.929     8.821
    50   6 C        2.909    -0.050    29.235     8.866
    51   6 C        3.058     0.045    26.939     8.512
    52   7 N        1.842    -0.276    28.017     7.844
    53   6 C        2.913     0.156    24.632     8.138
    54   7 N        1.842    -0.276    28.016     7.844
    55   6 C        2.925    -0.034    28.855     8.809
    56   6 C        2.918    -0.030    28.741     8.791
    57   1 H        0.926     0.029     2.604     2.523
    58   1 H        0.926     0.029     2.601     2.522
    59   1 H        0.926     0.031     2.576     2.510
    60   1 H        0.926     0.038     2.477     2.461
    61   1 H        0.926     0.055     2.257     2.350
    62   1 H        0.926     0.036     2.501     2.473
    63   1 H        0.926     0.038     2.477     2.461
    64   1 H        0.926     0.031     2.574     2.509
    65   1 H        0.926     0.030     2.591     2.517
    66   1 H        0.926     0.029     2.593     2.518
    67   1 H        0.926     0.030     2.592     2.518
    68   1 H        0.926     0.031     2.579     2.511
    69   1 H        0.926     0.036     2.502     2.474
    70   1 H        0.926     0.030     2.580     2.512
    71   1 H        0.926     0.051     2.310     2.377
    72   1 H        0.926     0.055     2.255     2.348
    73   1 H        0.926     0.038     2.477     2.461
    74   1 H        0.926     0.031     2.579     2.511
    75   1 H        0.926     0.029     2.601     2.522
    76   1 H        0.926     0.029     2.604     2.523
    77   1 H        0.926     0.029     2.600     2.522
    78   1 H        0.926     0.031     2.577     2.510
    79   1 H        0.926     0.036     2.501     2.473
    80   1 H        0.926     0.038     2.474     2.459
    81   1 H        0.926     0.030     2.585     2.514
    82   1 H        0.926     0.029     2.594     2.519
    83   1 H        0.926     0.029     2.594     2.518
    84   1 H        0.926     0.030     2.589     2.516
    85   1 H        0.926     0.031     2.571     2.507
    86   1 H        0.926     0.036     2.503     2.474
    87   1 H        0.926     0.031     2.579     2.511
    88   1 H        0.925     0.047     2.362     2.403
    89   1 H        0.926     0.031     2.577     2.510
    90   1 H        0.926     0.029     2.601     2.522

molecular dipole:
                 x           y           z       tot (Debye)
 q only:       -0.005       0.513      -0.003
   full:       -0.002       0.766       0.001       1.948

 projected vibrational frequencies (cm⁻¹)
eigval :       -0.00    -0.00     0.00     0.00     0.00     0.00
eigval :        6.69     8.96    11.65    30.55    33.25    37.22
eigval :       38.17    38.71    39.65    41.36    45.69    55.20
eigval :       59.15    65.79    72.39    84.30    92.78    96.70
eigval :      110.44   122.98   129.27   143.65   151.34   169.86
eigval :      178.92   192.05   209.49   212.35   220.39   238.71
eigval :      245.81   254.14   255.75   272.48   294.15   306.46
eigval :      316.83   321.49   341.92   352.79   364.77   372.25
eigval :      372.29   372.78   373.02   382.45   393.36   395.71
eigval :      399.18   401.99   421.79   434.86   437.89   446.50
eigval :      462.17   478.04   478.58   483.94   489.02   501.83
eigval :      506.21   552.45   554.88   566.88   574.16   578.13
eigval :      585.83   587.06   588.50   592.77   594.75   612.33
eigval :      613.00   618.24   623.41   626.02   629.79   647.71
eigval :      668.13   669.49   672.51   673.97   680.24   687.06
eigval :      689.27   690.12   710.41   710.65   723.65   731.98
eigval :      742.97   743.42   755.41   758.41   759.14   759.45
eigval :      771.16   816.73   827.75   828.68   828.96   853.52
eigval :      860.43   865.26   873.12   873.33   874.56   875.56
eigval :      880.61   880.93   882.28   884.75   901.88   902.17
eigval :      902.32   902.55   903.81   905.67   911.25   914.95
eigval :      915.31   915.46   922.62   930.36   930.65   930.73
eigval :      930.80   932.32   932.39   932.46   932.55   938.47
eigval :      972.49   972.72   981.73   982.78  1021.48  1028.61
eigval :     1029.65  1035.25  1072.36  1072.71  1073.55  1076.40
eigval :     1086.54  1086.85  1087.17  1087.38  1120.88  1121.91
eigval :     1122.03  1122.19  1122.61  1138.48  1159.46  1162.48
eigval :     1174.88  1182.58  1182.65  1182.68  1182.71  1195.97
eigval :     1201.08  1201.33  1201.37  1207.09  1215.75  1218.11
eigval :     1224.55  1226.79  1234.77  1243.18  1248.50  1271.39
eigval :     1277.66  1281.24  1281.86  1281.96  1282.07  1282.18
eigval :     1298.54  1299.79  1302.61  1306.17  1318.51  1319.18
eigval :     1319.70  1319.94  1324.15  1340.09  1345.56  1347.32
eigval :     1354.75  1358.97  1403.76  1404.11  1418.81  1426.36
eigval :     1430.63  1430.92  1432.50  1433.26  1435.87  1460.13
eigval :     1460.49  1462.81  1466.76  1470.49  1494.40  1494.54
eigval :     1496.67  1496.87  1512.61  1555.93  1567.09  1569.17
eigval :     1575.16  1575.70  1583.23  1583.33  1584.50  1584.68
eigval :     1594.38  1594.49  1598.39  1598.46  1603.28  1603.33
eigval :     1612.98  1613.13  3056.76  3070.22  3070.23  3070.82
eigval :     3070.84  3071.65  3071.67  3072.03  3072.16  3080.04
eigval :     3080.04  3080.18  3080.26  3083.38  3083.42  3083.50
eigval :     3083.62  3085.58  3086.05  3088.20  3088.34  3089.34
eigval :     3089.38  3091.67  3091.74  3092.20  3092.27  3093.26
eigval :     3093.83  3097.72  3098.25  3119.61  3119.67  3147.42

   temp. (K)  partition function   enthalpy   heat capacity  entropy
                                   cal/mol     cal/K/mol   cal/K/mol   J/K/mol
 298.15  VIB  0.450E+21            25609.275    161.189    160.671
         ROT  0.193E+09              888.752      2.981     40.892
         INT  0.867E+29            26498.028    164.170    201.563
         TR   0.185E+29             1481.254      4.968     45.560
         TOT                       27979.2817   169.1378   247.1233  1033.9637

       T/K    H(0)-H(T)+PV         H(T)/Eh          T*S/Eh         G(T)/Eh
   ------------------------------------------------------------------------
    298.15    0.445878E-01    0.735457E+00    0.117416E+00    0.618041E+00
   ------------------------------------------------------------------------

         :::::::::::::::::::::::::::::::::::::::::::::::::::::
         ::                  THERMODYNAMIC                  ::
         :::::::::::::::::::::::::::::::::::::::::::::::::::::
         :: total free energy        -139.838233353664 Eh   ::
         ::.................................................::
         :: total energy             -140.456274241714 Eh   ::
         :: zero point energy           0.690869295024 Eh   ::
         :: G(RRHO) w/o ZPVE           -0.072828406974 Eh   ::
         :: G(RRHO) contrib.            0.618040888050 Eh   ::
         :::::::::::::::::::::::::::::::::::::::::::::::::::::

           -------------------------------------------------
          | TOTAL ENERGY             -140.456274241714 Eh   |
          | TOTAL ENTHALPY           -139.720817123186 Eh   |
          | TOTAL FREE ENERGY        -139.838233353664 Eh   |
          | GRADIENT NORM               0.000069403990 Eh/α |
          | HOMO-LUMO GAP               2.599455685473 eV   |
           -------------------------------------------------

 * finished run on 2025/08/24 at 16:30:54.453
