   * xtb version 6.7.1 (edcfbbe) compiled by 'albert@albert-system' on 2024-07-22

   ID    Z sym.   atoms
    1    6 C      1-22, 24-26, 28-51, 53, 55, 56
    2    7 N      23, 27, 52, 54
    3    1 H      57-90

          program call               : xtb data2507/gas/pCbz-PYR/pCbz-PYR_gas_S0_crest.xyz --gfn 2 --ohess vtight --parallel 40 --molden --ceasefiles --namespace data2507/gas/pCbz-PYR/pCbz-PYR_gas_S0_finalOpt
          :  Hamiltonian                  GFN2-xTB          :
 * total energy  :  -140.4568439 Eh     change       -0.1218069E-08 Eh
 * total energy  :  -140.4568450 Eh     change       -0.1157260E-05 Eh
 * total energy  :  -140.4568460 Eh     change       -0.9739681E-06 Eh
 * total energy  :  -140.4568475 Eh     change       -0.1487447E-05 Eh
 * total energy  :  -140.4568482 Eh     change       -0.7072221E-06 Eh
 * total energy  :  -140.4568491 Eh     change       -0.9350381E-06 Eh
 * total energy  :  -140.4568505 Eh     change       -0.1357027E-05 Eh
 * total energy  :  -140.4568515 Eh     change       -0.1048256E-05 Eh
 * total energy  :  -140.4568522 Eh     change       -0.7028413E-06 Eh
 * total energy  :  -140.4568529 Eh     change       -0.6725110E-06 Eh
 * total energy  :  -140.4568548 Eh     change       -0.4769794E-06 Eh
 * total energy  :  -140.4568555 Eh     change       -0.6566517E-06 Eh
 * total energy  :  -140.4568563 Eh     change       -0.8144364E-06 Eh
 * total energy  :  -140.4568571 Eh     change       -0.8145977E-06 Eh
 * total energy  :  -140.4568579 Eh     change       -0.7513271E-06 Eh
 * total energy  :  -140.4568586 Eh     change       -0.6726403E-06 Eh
 * total energy  :  -140.4568592 Eh     change       -0.6620634E-06 Eh
 * total energy  :  -140.4568600 Eh     change       -0.7876812E-06 Eh
 * total energy  :  -140.4568600 Eh     change       -0.4221334E-08 Eh
   *** GEOMETRY OPTIMIZATION CONVERGED AFTER 22 ITERATIONS ***

 final structure:
================
90
 xtb: 6.7.1 (edcfbbe)
C            9.59666682323717       -4.50267191038926       -1.66458043116549
C            8.94208527131691       -5.01125382331247       -0.55526505364184
C            7.75001664640151       -4.45243835289509       -0.13371758922027
C            7.19405823490618       -3.37081130843149       -0.81287321532723
C            5.92793185726004       -2.77119496384094       -0.36467440857098
C            4.86921066639591       -3.58895925590872        0.04928599052919
C            3.66188757639562       -3.07105259733359        0.47526947863069
C            3.51817842433793       -1.69368524634464        0.49481645521640
C            4.57072820074860       -0.85217417005652        0.08006179921682
C            5.77205452696296       -1.39062662226120       -0.35102643429766
C            4.10122131920622        0.50066326467086        0.22286506967752
C            4.70627308465047        1.73036297329338        0.02446389991409
C            3.99782477672619        2.89099055651302        0.31171367426878
C            4.61029638827982        4.21197416103783        0.10640103896667
C            5.94186737134610        4.43871594447225        0.44688716639872
C            6.51524402941892        5.68214533287913        0.25751023320649
C            5.77020181184194        6.71879060128128       -0.27912770049291
C            4.44632374366754        6.50416555141172       -0.62376179145974
C            3.86999951994001        5.26261016419912       -0.43085718206634
C            2.70076200103633        2.79251357457095        0.82762366382513
C            2.08450096722103        1.57420278193060        1.03567641003152
C            2.77383597725925        0.42009387329930        0.69781684859655
N            2.41506346523802       -0.91507994075054        0.83544222155193
C            1.17237236061677       -1.40915966092533        1.17528598216799
C           -0.00478454828184       -0.77184786411435        0.78214433820122
C           -1.20285231591613       -1.37150302076254        1.17428698964814
N           -2.43240125261113       -0.85349601618249        0.82704566917910
C           -3.56682294853260       -1.61607057885056        0.55020217585444
C           -3.76298347181953       -2.98489312429189        0.63164356308737
C           -4.99587667072521       -3.48576760474777        0.26180410212342
C           -6.03125498648775       -2.66119225069976       -0.19448989006449
C           -7.32900814217295       -3.24269073619285       -0.57012591159907
C           -7.90937054711080       -4.24539026259170        0.20330780915061
C           -9.13154191494035       -4.78737242033614       -0.14806666085398
C           -9.79250542601753       -4.34075217566370       -1.28004790782628
C           -9.22404828930281       -3.34578304209255       -2.05754093213306
C           -8.00424542252747       -2.79924784575944       -1.70495926119916
C           -5.82196212869817       -1.29088532360403       -0.28772794556813
C           -4.59408234399853       -0.76972951494505        0.08583920184083
C           -4.07583851613406        0.57210178765171        0.12311330719082
C           -4.64059738538742        1.80121483166683       -0.17262633489323
C           -3.89168688635627        2.95653912572634        0.01583198347700
C           -4.45512770401490        4.27568251015982       -0.30718666246530
C           -3.67567317960971        5.24477259216499       -0.93487633200689
C           -4.20561691087317        6.48345849540859       -1.24399663174984
C           -5.52128224775849        6.77692939389258       -0.92710890453034
C           -6.30467633713470        5.82208773254672       -0.30077863714639
C           -5.77784630916004        4.58115050589297        0.00477605881604
C           -2.59847543860386        2.85464057595803        0.53963881529351
C           -2.02272485766095        1.63653229434241        0.84408719348297
C           -2.74860978584986        0.48154729132969        0.59685018950215
N           -1.20710228091429       -2.51682355480736        1.86545498818223
C           -0.03808491837475       -3.04484783088401        2.15242691053732
N            1.14738422208691       -2.55847740292647        1.85785135168091
C            7.86259197528296       -2.86597059766992       -1.92591435293107
C            9.05212145099341       -3.42895971362909       -2.34883788605572
H           10.52697269064909       -4.94110441051618       -1.99444174487278
H            9.36431718101495       -5.84624734428870       -0.01493802987114
H            7.25311171664421       -4.84260789122635        0.74266483310529
H            4.99606706160443       -4.66080157472219        0.01523320019629
H            2.85883778016129       -3.71518988823179        0.79338917507617
H            6.58189327585857       -0.74380559445824       -0.65286182603067
H            5.71442630565224        1.78384996694569       -0.35717039001878
H            6.52317152864823        3.63946381584382        0.88336063814019
H            7.54738793454524        5.84472794426827        0.53240940637102
H            6.21919913958209        7.68971733972818       -0.42766498549590
H            3.86105572305295        7.30806515239289       -1.04643702144194
H            2.84143905703351        5.09700657454290       -0.71752636064500
H            2.17766670246817        3.69683661978083        1.10109566200095
H            1.10603637380371        1.53712685132150        1.48700832723855
H            0.01353408619376        0.08515409178750        0.13279039750700
H           -2.98033841574914       -3.63555773312138        0.98427014094491
H           -5.16250899549865       -4.55165565775276        0.30905292452738
H           -7.40687830775816       -4.58567958303860        1.09711969374304
H           -9.57222524143360       -5.56039180795856        0.46486384684227
H          -10.74639658605600       -4.76614586846596       -1.55505210860875
H           -9.73316340448335       -2.99595285503196       -2.94409187842079
H           -7.55776299715580       -2.03518025255362       -2.32494659559535
H           -6.61141731127932       -0.63656697034019       -0.62526881878313
H           -5.64790667094935        1.85704680852286       -0.55607622828119
H           -2.65362732513761        5.01573693514544       -1.20041116163132
H           -3.59063270064700        7.22295579017105       -1.73630844849961
H           -5.93421853020556        7.74556096535465       -1.16707007443222
H           -7.33059248284180        6.04685765652579       -0.04725890381302
H           -6.38894052854998        3.84699542538133        0.50956149476169
H           -2.04335339166103        3.75907030251960        0.73970294927136
H           -1.04472068092973        1.60842276599667        1.29560922925175
H           -0.05323954095695       -3.98031260248435        2.69729086131610
H            7.43381189518448       -2.03950742580042       -2.47422550531141
H            9.55602049979494       -3.03030892873605       -3.21759508082158

          :  Hamiltonian                  GFN2-xTB          :
         :: gradient norm              0.000047749192 Eh/a0 ::
         :: HOMO-LUMO gap              2.605863366416 eV    ::
         :: SCC energy              -143.111101055380 Eh    ::
         :: -> dispersion             -0.123935934897 Eh    ::
         :: repulsion energy           2.654241050736 Eh    ::

    * Orbital Energies and Occupations

         #    Occupation            Energy/Eh            Energy/eV
      -------------------------------------------------------------
         1        2.0000           -0.6943892             -18.8953
       ...           ...                  ...                  ...
       119        2.0000           -0.4053722             -11.0307
       120        2.0000           -0.4050321             -11.0215
       121        2.0000           -0.4042866             -11.0012
       122        2.0000           -0.4026736             -10.9573
       123        2.0000           -0.4024001             -10.9499
       124        2.0000           -0.4021919             -10.9442
       125        2.0000           -0.3941509             -10.7254
       126        2.0000           -0.3938065             -10.7160
       127        2.0000           -0.3822036             -10.4003
       128        2.0000           -0.3817501             -10.3879
       129        2.0000           -0.3779552             -10.2847
       130        2.0000           -0.3700714             -10.0702
       131        2.0000           -0.3670266              -9.9873 (HOMO)
       132                         -0.2712629              -7.3814 (LUMO)
       133                         -0.2608533              -7.0982
       134                         -0.2498206              -6.7980
       135                         -0.2490145              -6.7760
       136                         -0.2469500              -6.7199
       137                         -0.2464577              -6.7065
       138                         -0.2344646              -6.3801
       139                         -0.2300834              -6.2609
       140                         -0.2233248              -6.0770
       141                         -0.2229774              -6.0675
       142                         -0.2206051              -6.0030
       ...                                ...                  ...
       258                          0.7436806              20.2366
      -------------------------------------------------------------
                  HL-Gap            0.0957637 Eh            2.6059 eV

     #   Z          covCN         q      C6AA      α(0)
     1   6 C        2.920    -0.032    28.787     8.798
     2   6 C        2.919    -0.030    28.740     8.791
     3   6 C        2.925    -0.034    28.853     8.809
     4   6 C        2.977     0.011    27.769     8.644
     5   6 C        2.977     0.003    27.950     8.672
     6   6 C        2.930    -0.036    28.887     8.814
     7   6 C        2.909    -0.045    29.120     8.848
     8   6 C        3.067     0.052    26.769     8.484
     9   6 C        3.063    -0.014    28.294     8.723
    10   6 C        2.919    -0.037    28.930     8.820
    11   6 C        3.063    -0.012    28.251     8.716
    12   6 C        2.918    -0.037    28.912     8.817
    13   6 C        2.977     0.003    27.957     8.673
    14   6 C        2.977     0.011    27.775     8.645
    15   6 C        2.925    -0.034    28.848     8.808
    16   6 C        2.919    -0.029    28.733     8.790
    17   6 C        2.920    -0.031    28.777     8.797
    18   6 C        2.918    -0.030    28.740     8.791
    19   6 C        2.925    -0.034    28.854     8.809
    20   6 C        2.928    -0.037    28.927     8.820
    21   6 C        2.910    -0.049    29.212     8.863
    22   6 C        3.062     0.045    26.926     8.509
    23   7 N        2.803    -0.039    21.985     6.964
    24   6 C        2.920     0.165    24.435     8.106
    25   6 C        2.911    -0.092    30.310     9.028
    26   6 C        2.917     0.165    24.441     8.107
    27   7 N        2.801    -0.038    21.966     6.961
    28   6 C        3.065     0.052    26.776     8.485
    29   6 C        2.909    -0.045    29.129     8.850
    30   6 C        2.930    -0.036    28.888     8.814
    31   6 C        2.977     0.003    27.943     8.671
    32   6 C        2.977     0.011    27.769     8.644
    33   6 C        2.925    -0.034    28.853     8.809
    34   6 C        2.919    -0.030    28.739     8.791
    35   6 C        2.920    -0.031    28.785     8.798
    36   6 C        2.918    -0.030    28.743     8.792
    37   6 C        2.925    -0.034    28.855     8.809
    38   6 C        2.919    -0.037    28.932     8.821
    39   6 C        3.062    -0.014    28.289     8.722
    40   6 C        3.063    -0.012    28.243     8.715
    41   6 C        2.918    -0.037    28.913     8.818
    42   6 C        2.977     0.003    27.949     8.672
    43   6 C        2.977     0.011    27.776     8.645
    44   6 C        2.925    -0.034    28.853     8.809
    45   6 C        2.918    -0.030    28.738     8.791
    46   6 C        2.920    -0.031    28.776     8.797
    47   6 C        2.919    -0.029    28.733     8.790
    48   6 C        2.925    -0.034    28.847     8.808
    49   6 C        2.928    -0.037    28.930     8.821
    50   6 C        2.910    -0.049    29.219     8.864
    51   6 C        3.059     0.045    26.935     8.511
    52   7 N        1.843    -0.276    28.000     7.842
    53   6 C        2.912     0.156    24.633     8.138
    54   7 N        1.842    -0.275    27.994     7.841
    55   6 C        2.925    -0.034    28.857     8.809
    56   6 C        2.918    -0.030    28.744     8.792
    57   1 H        0.926     0.029     2.605     2.524
    58   1 H        0.926     0.029     2.597     2.520
    59   1 H        0.926     0.032     2.562     2.503
    60   1 H        0.926     0.038     2.480     2.463
    61   1 H        0.926     0.053     2.289     2.366
    62   1 H        0.926     0.036     2.498     2.472
    63   1 H        0.926     0.038     2.476     2.460
    64   1 H        0.926     0.031     2.568     2.506
    65   1 H        0.926     0.030     2.590     2.517
    66   1 H        0.926     0.029     2.595     2.519
    67   1 H        0.926     0.029     2.597     2.520
    68   1 H        0.926     0.030     2.590     2.517
    69   1 H        0.926     0.036     2.506     2.476
    70   1 H        0.926     0.027     2.623     2.533
    71   1 H        0.926     0.049     2.328     2.386
    72   1 H        0.926     0.055     2.252     2.347
    73   1 H        0.926     0.038     2.477     2.461
    74   1 H        0.926     0.032     2.561     2.503
    75   1 H        0.926     0.029     2.596     2.520
    76   1 H        0.926     0.029     2.603     2.523
    77   1 H        0.926     0.029     2.603     2.523
    78   1 H        0.926     0.030     2.585     2.514
    79   1 H        0.926     0.036     2.498     2.471
    80   1 H        0.926     0.038     2.473     2.459
    81   1 H        0.926     0.030     2.588     2.516
    82   1 H        0.926     0.029     2.595     2.519
    83   1 H        0.926     0.030     2.593     2.518
    84   1 H        0.926     0.030     2.588     2.516
    85   1 H        0.926     0.031     2.568     2.506
    86   1 H        0.926     0.036     2.504     2.474
    87   1 H        0.926     0.029     2.598     2.520
    88   1 H        0.925     0.047     2.364     2.404
    89   1 H        0.926     0.030     2.585     2.514
    90   1 H        0.926     0.029     2.604     2.524

molecular dipole:
                 x           y           z       tot (Debye)
 q only:       -0.047       0.310      -0.392
   full:       -0.043       0.565      -0.464       1.860

 projected vibrational frequencies (cm⁻¹)
eigval :       -0.00    -0.00    -0.00    -0.00     0.00     0.00
eigval :        5.96     9.90    13.42    25.10    35.74    37.00
eigval :       38.01    38.47    40.57    42.52    48.99    54.29
eigval :       57.69    59.40    81.58    85.01    91.48    93.61
eigval :      110.05   124.56   130.72   146.96   147.54   168.35
eigval :      176.06   192.90   198.03   219.15   223.77   235.70
eigval :      251.28   253.65   262.50   281.73   286.29   300.31
eigval :      309.38   317.95   340.74   362.22   366.79   372.06
eigval :      372.41   372.91   372.98   393.07   396.16   398.96
eigval :      399.36   408.22   409.74   429.69   433.12   436.26
eigval :      455.47   475.48   476.52   494.19   494.64   502.21
eigval :      504.35   553.33   555.77   567.97   574.24   581.39
eigval :      584.73   587.07   587.14   591.67   592.80   610.56
eigval :      617.32   618.57   620.76   625.85   626.03   649.46
eigval :      669.52   669.73   672.48   672.50   680.48   688.14
eigval :      688.59   689.00   710.05   710.44   722.84   736.20
eigval :      741.52   744.67   755.05   758.84   759.19   759.25
eigval :      770.86   815.16   819.38   827.80   828.42   854.55
eigval :      862.74   864.71   871.65   873.19   873.48   875.76
eigval :      879.02   880.89   880.95   884.78   900.87   901.13
eigval :      902.20   902.24   903.75   906.62   910.20   910.37
eigval :      914.21   914.97   927.08   930.49   930.56   930.73
eigval :      930.89   932.33   932.37   932.46   932.66   938.69
eigval :      972.76   972.83   981.28   982.83  1019.17  1029.14
eigval :     1029.62  1032.49  1070.63  1072.69  1073.09  1076.61
eigval :     1086.50  1086.83  1087.15  1087.40  1114.07  1121.95
eigval :     1121.99  1122.31  1122.45  1138.85  1153.82  1160.55
eigval :     1170.91  1182.55  1182.65  1182.70  1182.73  1196.43
eigval :     1201.09  1201.33  1201.40  1207.26  1215.62  1218.61
eigval :     1219.33  1226.89  1230.70  1241.28  1248.56  1271.40
eigval :     1275.00  1279.80  1281.87  1281.93  1282.13  1282.17
eigval :     1298.89  1299.01  1302.61  1306.33  1318.52  1319.19
eigval :     1319.89  1319.95  1324.57  1339.86  1345.66  1347.68
eigval :     1354.92  1359.54  1403.05  1404.81  1418.66  1425.37
eigval :     1430.54  1430.90  1432.02  1433.33  1434.54  1460.24
eigval :     1460.63  1462.59  1466.86  1470.36  1494.55  1494.72
eigval :     1496.82  1496.97  1512.14  1554.85  1567.74  1568.84
eigval :     1575.49  1576.37  1583.27  1583.33  1584.63  1584.94
eigval :     1594.59  1594.87  1598.35  1598.48  1603.43  1603.61
eigval :     1613.22  1613.64  3055.89  3070.05  3070.16  3070.63
eigval :     3070.79  3071.89  3071.95  3072.26  3072.37  3080.06
eigval :     3080.12  3080.14  3080.29  3083.63  3083.72  3083.74
eigval :     3084.03  3086.09  3087.53  3088.25  3088.35  3089.55
eigval :     3089.63  3091.77  3091.85  3092.22  3092.36  3093.96
eigval :     3094.27  3101.70  3109.67  3116.79  3121.23  3132.17

   temp. (K)  partition function   enthalpy   heat capacity  entropy
                                   cal/mol     cal/K/mol   cal/K/mol   J/K/mol
 298.15  VIB  0.433E+21            25615.863    161.269    160.667
         ROT  0.194E+09              888.752      2.981     40.904
         INT  0.839E+29            26504.616    164.250    201.571
         TR   0.185E+29             1481.254      4.968     45.560
         TOT                       27985.8695   169.2180   247.1314  1033.9978

       T/K    H(0)-H(T)+PV         H(T)/Eh          T*S/Eh         G(T)/Eh
   ------------------------------------------------------------------------
    298.15    0.445983E-01    0.735339E+00    0.117420E+00    0.617919E+00
   ------------------------------------------------------------------------

         :::::::::::::::::::::::::::::::::::::::::::::::::::::
         ::                  THERMODYNAMIC                  ::
         :::::::::::::::::::::::::::::::::::::::::::::::::::::
         :: total free energy        -139.838940681210 Eh   ::
         ::.................................................::
         :: total energy             -140.456860004643 Eh   ::
         :: zero point energy           0.690741107262 Eh   ::
         :: G(RRHO) w/o ZPVE           -0.072821783829 Eh   ::
         :: G(RRHO) contrib.            0.617919323433 Eh   ::
         :::::::::::::::::::::::::::::::::::::::::::::::::::::

           -------------------------------------------------
          | TOTAL ENERGY             -140.456860004643 Eh   |
          | TOTAL ENTHALPY           -139.721520575491 Eh   |
          | TOTAL FREE ENERGY        -139.838940681210 Eh   |
          | GRADIENT NORM               0.000047749198 Eh/α |
          | HOMO-LUMO GAP               2.605863137146 eV   |
           -------------------------------------------------

 * finished run on 2025/08/24 at 16:37:21.187
