   * xtb version 6.7.1 (edcfbbe) compiled by 'albert@albert-system' on 2024-07-22

   ID    Z sym.   atoms
    1    8 O      1, 10, 11
    2    6 C      2-8, 13-15, 17-28
    3   16 S      9
    4    7 N      12, 16
    5    1 H      29-46

          program call               : xtb data2507/gas/CzPrSBI/CzPrSBI_gas_S0_crest.xyz --gfn 2 --ohess vtight --parallel 40 --molden --ceasefiles --namespace data2507/gas/CzPrSBI/CzPrSBI_gas_S0_finalOpt
          :  Hamiltonian                  GFN2-xTB          :
 * total energy  :   -77.6394908 Eh     change       -0.1642618E-08 Eh
 * total energy  :   -77.6394918 Eh     change       -0.1067161E-05 Eh
 * total energy  :   -77.6394950 Eh     change       -0.3144513E-05 Eh
 * total energy  :   -77.6394958 Eh     change       -0.8371082E-06 Eh
 * total energy  :   -77.6394968 Eh     change       -0.9652095E-06 Eh
 * total energy  :   -77.6394979 Eh     change       -0.1142060E-05 Eh
 * total energy  :   -77.6394985 Eh     change       -0.6202703E-06 Eh
 * total energy  :   -77.6394989 Eh     change       -0.3356479E-06 Eh
 * total energy  :   -77.6394991 Eh     change       -0.2568743E-06 Eh
 * total energy  :   -77.6394993 Eh     change       -0.1834095E-06 Eh
 * total energy  :   -77.6394995 Eh     change       -0.1337121E-06 Eh
 * total energy  :   -77.6394996 Eh     change       -0.1170228E-06 Eh
 * total energy  :   -77.6394997 Eh     change       -0.9372229E-07 Eh
   *** GEOMETRY OPTIMIZATION CONVERGED AFTER 13 ITERATIONS ***

 final structure:
================
46
 xtb: 6.7.1 (edcfbbe)
O           -1.23889940063614        0.13473587573948       -2.43194102232997
C           -0.23632608057380        0.09525399875546       -1.75903408919865
C            0.51599832056911        1.26817462956386       -1.24102410067764
C            0.07088015069651        2.58095469409483       -1.26560094275789
C            0.86073030099505        3.55706700829583       -0.67733858449023
C            2.07096966251840        3.23159541662592       -0.08178461711474
C            2.52991550465153        1.91909067289763       -0.07596590819004
C            1.73550683897349        0.96116081566875       -0.65986623683768
S            2.01170392479239       -0.77789843439742       -0.89600720747803
O            2.81812196732236       -1.01543496684972       -2.05410989945808
O            2.35080396134976       -1.50620493683779        0.28365832629555
N            0.38239989484553       -1.04508016351419       -1.32795476393860
C           -0.09590360121304       -2.37312481436600       -1.64375623381140
C           -0.16436393193825       -3.24529497205796       -0.38811420863806
C           -1.33050604494576       -2.89229939760091        0.54978088048975
N           -1.34938755886271       -1.50979724379053        0.93896537675533
C           -0.40917064565037       -0.89641600217837        1.73657780600364
C            0.61151178542276       -1.45304149895173        2.49390398904767
C            1.42300505034697       -0.59743592304894        3.21122056790445
C            1.23058870646255        0.78240761199299        3.18724688133632
C            0.19913136341463        1.34174645087292        2.46162991124700
C           -0.63474629941880        0.49987360503886        1.73742904943135
C           -1.78191484680647        0.72554123405021        0.90735497018374
C           -2.48501649098046        1.86732735032129        0.54463264403108
C           -3.57528742657824        1.73492354923876       -0.28916751732182
C           -3.97054616328406        0.48241316185489       -0.75395607721138
C           -3.29181878693750       -0.66598420307887       -0.40136396596497
C           -2.18633815873617       -0.54278568086595        0.42913539219549
H           -0.87799977095459        2.81125878807873       -1.72366420951635
H            0.52835131102536        4.58433737058733       -0.67899796137788
H            2.66747915676379        4.00467440440560        0.37814889826371
H            3.47200227939088        1.65097402545484        0.37410478246082
H            0.59501496968390       -2.82376822010525       -2.36510808110594
H           -1.07782761254661       -2.25613404079550       -2.11319879570091
H            0.77990895710125       -3.13965725852744        0.14569541707620
H           -0.27601921778134       -4.28707322001767       -0.69305071303120
H           -1.25933028546311       -3.51652650027746        1.44795046517184
H           -2.27918741055793       -3.11434067008279        0.05626295056140
H            0.77901481729790       -2.51764731737270        2.52305128114209
H            2.22834718788695       -1.00724187664495        3.80162435714060
H            1.89274844685037        1.41853327072997        3.75625625635063
H            0.03639247203251        2.40963254418650        2.45476660011764
H           -2.17774800735677        2.83503822661574        0.91356254757379
H           -4.13426911575373        2.60925502894895       -0.58839792624564
H           -4.82680598772575        0.40893771841067       -1.40733029823309
H           -3.61766876949175       -1.62386649196771       -0.77814540434997

          :  Hamiltonian                  GFN2-xTB          :
         :: gradient norm              0.000042229575 Eh/a0 ::
         :: HOMO-LUMO gap              1.761958619054 eV    ::
         :: SCC energy               -78.821643173236 Eh    ::
         :: -> dispersion             -0.076511873862 Eh    ::
         :: repulsion energy           1.182143506039 Eh    ::

    * Orbital Energies and Occupations

         #    Occupation            Energy/Eh            Energy/eV
      -------------------------------------------------------------
         1        2.0000           -0.7974325             -21.6992
       ...           ...                  ...                  ...
        58        2.0000           -0.4475345             -12.1780
        59        2.0000           -0.4444359             -12.0937
        60        2.0000           -0.4374012             -11.9023
        61        2.0000           -0.4332726             -11.7899
        62        2.0000           -0.4310741             -11.7301
        63        2.0000           -0.4227901             -11.5047
        64        2.0000           -0.4177846             -11.3685
        65        2.0000           -0.4162095             -11.3256
        66        2.0000           -0.4154597             -11.3052
        67        2.0000           -0.4142229             -11.2716
        68        2.0000           -0.4000563             -10.8861
        69        2.0000           -0.3735788             -10.1656
        70        2.0000           -0.3592862              -9.7767 (HOMO)
        71                         -0.2945354              -8.0147 (LUMO)
        72                         -0.2705743              -7.3627
        73                         -0.2397804              -6.5248
        74                         -0.2185319              -5.9466
        75                         -0.2095850              -5.7031
        76                         -0.1904891              -5.1835
        77                         -0.1804168              -4.9094
        78                         -0.1596658              -4.3447
        79                         -0.1366530              -3.7185
        80                         -0.1176845              -3.2024
        81                         -0.0901731              -2.4537
       ...                                ...                  ...
       135                          1.2598249              34.2816
      -------------------------------------------------------------
                  HL-Gap            0.0647508 Eh            1.7620 eV

     #   Z          covCN         q      C6AA      α(0)
     1   8 O        0.857    -0.390    21.483     6.214
     2   6 C        2.942     0.278    22.306     7.746
     3   6 C        3.175    -0.021    28.115     8.659
     4   6 C        2.918    -0.007    28.199     8.708
     5   6 C        2.921    -0.019    28.474     8.751
     6   6 C        2.926    -0.016    28.412     8.741
     7   6 C        2.925    -0.014    28.358     8.733
     8   6 C        2.989    -0.091    30.263     9.024
     9  16 S        4.016     1.161   102.167    17.012
    10   8 O        0.860    -0.556    25.069     6.713
    11   8 O        0.860    -0.541    24.721     6.666
    12   7 N        2.754    -0.263    26.800     7.689
    13   6 C        3.777     0.018    20.300     6.419
    14   6 C        3.802    -0.081    22.051     6.686
    15   6 C        3.739     0.001    20.647     6.484
    16   7 N        2.796    -0.056    22.316     7.016
    17   6 C        3.081     0.040    27.017     8.521
    18   6 C        2.910    -0.044    29.093     8.845
    19   6 C        2.925    -0.032    28.789     8.799
    20   6 C        2.920    -0.046    29.147     8.853
    21   6 C        2.912    -0.041    29.022     8.834
    22   6 C        3.071    -0.029    28.657     8.777
    23   6 C        3.072    -0.026    28.568     8.764
    24   6 C        2.912    -0.036    28.891     8.814
    25   6 C        2.920    -0.039    28.981     8.828
    26   6 C        2.924    -0.026    28.660     8.779
    27   6 C        2.910    -0.045    29.113     8.848
    28   6 C        3.079     0.045    26.915     8.505
    29   1 H        0.926     0.081     1.969     2.194
    30   1 H        0.926     0.065     2.137     2.286
    31   1 H        0.926     0.066     2.128     2.281
    32   1 H        0.926     0.064     2.151     2.293
    33   1 H        0.924     0.051     2.304     2.374
    34   1 H        0.924     0.082     1.960     2.189
    35   1 H        0.925     0.072     2.068     2.249
    36   1 H        0.924     0.056     2.249     2.345
    37   1 H        0.924     0.053     2.285     2.364
    38   1 H        0.924     0.057     2.230     2.335
    39   1 H        0.926     0.034     2.524     2.484
    40   1 H        0.926     0.035     2.516     2.481
    41   1 H        0.926     0.026     2.646     2.544
    42   1 H        0.926     0.022     2.702     2.570
    43   1 H        0.926     0.024     2.672     2.556
    44   1 H        0.926     0.029     2.607     2.525
    45   1 H        0.926     0.035     2.521     2.483
    46   1 H        0.926     0.025     2.660     2.550

molecular dipole:
                 x           y           z       tot (Debye)
 q only:       -0.350       0.675       0.627
   full:       -0.225       0.527       0.558       2.032

 projected vibrational frequencies (cm⁻¹)
eigval :       -0.00     0.00     0.00     0.00     0.00     0.00
eigval :       15.61    33.27    48.50    58.52    79.96    96.59
eigval :      106.05   113.12   131.92   149.08   158.88   178.62
eigval :      200.69   217.69   224.35   249.12   277.86   278.57
eigval :      308.25   312.88   337.02   367.17   385.19   390.14
eigval :      397.05   425.00   430.87   446.97   479.58   489.35
eigval :      490.49   519.80   531.41   534.17   540.33   550.80
eigval :      561.08   580.05   593.81   635.23   665.66   673.73
eigval :      705.19   708.52   714.42   728.09   759.59   764.58
eigval :      775.13   785.18   833.93   861.90   863.91   865.00
eigval :      877.80   886.49   896.43   900.12   910.60   916.24
eigval :      917.39   919.12   931.50   949.12   991.75  1004.07
eigval :     1029.66  1062.20  1064.66  1071.86  1077.07  1098.28
eigval :     1120.45  1131.00  1153.81  1156.24  1161.48  1169.86
eigval :     1180.33  1185.32  1193.43  1207.28  1215.10  1228.85
eigval :     1232.81  1235.35  1248.70  1272.17  1301.70  1310.45
eigval :     1320.50  1325.42  1335.31  1335.65  1344.48  1357.41
eigval :     1365.28  1373.83  1428.82  1429.91  1435.05  1439.50
eigval :     1440.98  1457.11  1462.72  1485.49  1492.41  1572.14
eigval :     1576.37  1591.41  1600.55  1603.79  1620.77  1749.79
eigval :     2928.65  2930.45  2953.86  2983.53  2993.07  3029.00
eigval :     3071.45  3073.61  3075.74  3082.12  3084.23  3088.78
eigval :     3091.61  3096.06  3098.04  3104.19  3110.46  3111.16

   temp. (K)  partition function   enthalpy   heat capacity  entropy
                                   cal/mol     cal/K/mol   cal/K/mol   J/K/mol
 298.15  VIB  0.341E+09            12617.354     83.312     76.274
         ROT  0.839E+07              888.752      2.981     34.662
         INT  0.286E+16            13506.106     86.293    110.937
         TR   0.746E+28             1481.254      4.968     43.758
         TOT                       14987.3598    91.2608   154.6952   647.2446

       T/K    H(0)-H(T)+PV         H(T)/Eh          T*S/Eh         G(T)/Eh
   ------------------------------------------------------------------------
    298.15    0.238839E-01    0.372191E+00    0.735007E-01    0.298691E+00
   ------------------------------------------------------------------------

         :::::::::::::::::::::::::::::::::::::::::::::::::::::
         ::                  THERMODYNAMIC                  ::
         :::::::::::::::::::::::::::::::::::::::::::::::::::::
         :: total free energy         -77.340809020778 Eh   ::
         ::.................................................::
         :: total energy              -77.639499667198 Eh   ::
         :: zero point energy           0.348307439991 Eh   ::
         :: G(RRHO) w/o ZPVE           -0.049616793570 Eh   ::
         :: G(RRHO) contrib.            0.298690646420 Eh   ::
         :::::::::::::::::::::::::::::::::::::::::::::::::::::

           -------------------------------------------------
          | TOTAL ENERGY              -77.639499667198 Eh   |
          | TOTAL ENTHALPY            -77.267308349128 Eh   |
          | TOTAL FREE ENERGY         -77.340809020778 Eh   |
          | GRADIENT NORM               0.000042205438 Eh/α |
          | HOMO-LUMO GAP               1.761959390044 eV   |
           -------------------------------------------------

 * finished run on 2025/08/26 at 00:24:46.337
