   * xtb version 6.7.1 (edcfbbe) compiled by 'albert@albert-system' on 2024-07-22

   ID    Z sym.   atoms
    1    8 O      1, 10, 11
    2    6 C      2-8, 13-15, 17-28
    3   16 S      9
    4    7 N      12, 16
    5    1 H      29-46

          program call               : xtb data2507/gas/CzPrSBI/CzPrSBI_gas_S0_finalOpt.xtbopt.xyz --gfn 2 --spinpol --tblite --uhf 2 --ohess vtight --parallel 40 --molden --ceasefiles --namespace data2507/gas/CzPrSBI/CzPrSBI_gas_T1_preOpt
 * total energy  :   -77.5337637 Eh     change        0.7256347E-09 Eh
 * total energy  :   -77.5388051 Eh     change       -0.5041379E-02 Eh
 * total energy  :   -77.5419561 Eh     change       -0.3150981E-02 Eh
 * total energy  :   -77.5426890 Eh     change       -0.7329031E-03 Eh
 * total energy  :   -77.5433621 Eh     change       -0.6731648E-03 Eh
 * total energy  :   -77.5436882 Eh     change       -0.3260498E-03 Eh
 * total energy  :   -77.5440426 Eh     change       -0.3544074E-03 Eh
 * total energy  :   -77.5444013 Eh     change       -0.3587092E-03 Eh
 * total energy  :   -77.5448496 Eh     change       -0.4482789E-03 Eh
 * total energy  :   -77.5453873 Eh     change       -0.5377318E-03 Eh
 * total energy  :   -77.5554263 Eh     change       -0.8863818E-06 Eh
 * total energy  :   -77.5554272 Eh     change       -0.8466035E-06 Eh
 * total energy  :   -77.5554279 Eh     change       -0.7835418E-06 Eh
 * total energy  :   -77.5554287 Eh     change       -0.8024850E-06 Eh
 * total energy  :   -77.5554295 Eh     change       -0.7328220E-06 Eh
 * total energy  :   -77.5554302 Eh     change       -0.7432517E-06 Eh
 * total energy  :   -77.5554309 Eh     change       -0.6927456E-06 Eh
 * total energy  :   -77.5554316 Eh     change       -0.6995520E-06 Eh
 * total energy  :   -77.5554316 Eh     change       -0.1119508E-07 Eh
   *** GEOMETRY OPTIMIZATION CONVERGED AFTER 152 ITERATIONS ***

 final structure:
================
46
 xtb: 6.7.1 (edcfbbe)
O           -1.60368174158019       -0.36192363417430       -2.04443443487086
C           -0.32444611373740       -0.07745349362538       -1.74915439390125
C            0.26897854526723        1.18350770371662       -1.60407397158775
C           -0.28304056084156        2.45140774180112       -1.88715758840144
C            0.46709903521659        3.57797685072725       -1.65553441881024
C            1.76877555806755        3.50170659680316       -1.15200015272822
C            2.34057132433770        2.26224023299324       -0.88762957023591
C            1.59799582746242        1.13471145947040       -1.12195046836276
S            2.03630157116688       -0.55425650456740       -0.86490253598047
O            3.04980176179853       -1.05153696620103       -1.74780441654281
O            2.16693613879365       -0.91715295927090        0.51732166923538
N            0.52648681599804       -1.11000988087501       -1.42752807017250
C            0.25862310237921       -2.50694788761115       -1.62131191287978
C            0.01074904873476       -3.22525630509622       -0.29251184063642
C           -1.29583327754343       -2.78287291869516        0.37982069562468
N           -1.23120475867434       -1.44662446274574        0.90558028407682
C           -0.53101883126123       -1.09480383765672        2.04013138972661
C            0.21133658485450       -1.88278999734325        2.90724277397090
C            0.82108032906390       -1.25869894414021        3.97679783777761
C            0.69473209797123        0.11278275391282        4.18842946772121
C           -0.05619081532077        0.89883288521387        3.33856658431679
C           -0.67875118196403        0.29351935134680        2.25569865891831
C           -1.51869438196182        0.78105270186081        1.19720535076828
C           -2.06984723936622        2.03853182371905        0.93349473942937
C           -2.96057138610536        2.15293780614097       -0.14474156948237
C           -3.23925311319086        1.11170037068129       -0.97657889167255
C           -2.55651383408956       -0.20875566493596       -0.88143656251276
C           -1.81624093317267       -0.32414487435359        0.39404893550251
H           -1.28125006992289        2.51365156341674       -2.28888850506613
H            0.04493126547959        4.54862175931243       -1.87007022482272
H            2.33249926044912        4.40365951976034       -0.97581727916326
H            3.34633943533211        2.17742485877442       -0.50696230129513
H            1.14127007858227       -2.93548324571648       -2.10796918636402
H           -0.60541549713934       -2.60182765126139       -2.28654634221868
H            0.85012381390836       -3.01324520103854        0.37103182543201
H           -0.03501971763331       -4.29953927977077       -0.47764068384883
H           -1.51825402234596       -3.46336684394311        1.20969280106805
H           -2.11718895145312       -2.83682229920261       -0.33964319061928
H            0.32274301067719       -2.94532602627066        2.75643051901229
H            1.41460415683668       -1.84498963500054        4.66218674379717
H            1.19567334596652        0.56330674601935        5.03238997381413
H           -0.15559489089296        1.96093680295092        3.50418012070474
H           -1.84215080635363        2.88479228933695        1.55897461472236
H           -3.45279930625660        3.10043331689908       -0.31116818535748
H           -3.92173805942135        1.23046129936898       -1.80308250681469
H           -3.25947334273191       -1.03244012923879       -1.06456703348082

 projected vibrational frequencies (cm⁻¹)
eigval :       -0.00    -0.00    -0.00    -0.00     0.00     0.00
eigval :       18.52    36.11    49.43    63.67    84.75   102.90
eigval :      117.47   142.25   146.67   167.56   186.15   206.30
eigval :      212.86   228.49   236.11   266.69   281.16   303.89
eigval :      331.60   352.74   359.24   372.84   390.47   402.48
eigval :      417.00   433.63   444.55   462.75   481.64   489.60
eigval :      506.42   511.99   527.17   532.53   540.52   549.50
eigval :      568.49   574.02   587.60   645.63   649.21   664.15
eigval :      683.95   695.29   701.38   729.61   731.87   755.32
eigval :      766.91   771.21   786.43   809.30   837.30   853.99
eigval :      866.64   886.74   893.86   900.27   901.20   915.13
eigval :      919.28   920.78   936.39   958.32   983.71  1011.35
eigval :     1017.58  1050.41  1059.42  1071.03  1081.49  1102.51
eigval :     1114.80  1124.49  1130.16  1152.58  1162.44  1171.17
eigval :     1173.77  1177.07  1194.54  1203.15  1206.53  1221.70
eigval :     1233.66  1237.74  1244.29  1251.46  1281.74  1290.14
eigval :     1319.33  1327.52  1331.54  1337.21  1338.40  1366.11
eigval :     1368.85  1373.46  1381.29  1409.40  1412.14  1432.12
eigval :     1434.85  1445.68  1451.18  1456.84  1471.01  1482.64
eigval :     1493.80  1523.66  1549.73  1572.35  1588.04  1607.97
eigval :     2864.31  2932.85  2937.16  2947.63  2971.78  2992.62
eigval :     3014.91  3073.60  3078.60  3084.11  3084.17  3091.05
eigval :     3095.47  3098.13  3100.19  3107.03  3111.82  3117.23

   temp. (K)  partition function   enthalpy   heat capacity  entropy
                                   cal/mol     cal/K/mol   cal/K/mol   J/K/mol
 298.15  VIB  0.921E+08            12334.825     83.628     73.271
         ROT  0.901E+07              888.752      2.981     34.804
         INT  0.829E+15            13223.577     86.609    108.075
         TR   0.746E+28             1481.254      4.968     43.758
         TOT                       14704.8313    91.5772   151.8338   635.2727

       T/K    H(0)-H(T)+PV         H(T)/Eh          T*S/Eh         G(T)/Eh
   ------------------------------------------------------------------------
    298.15    0.234336E-01    0.369703E+00    0.721411E-01    0.297562E+00
   ------------------------------------------------------------------------

         :::::::::::::::::::::::::::::::::::::::::::::::::::::
         ::                  THERMODYNAMIC                  ::
         :::::::::::::::::::::::::::::::::::::::::::::::::::::
         :: total free energy         -77.257869885070 Eh   ::
         ::.................................................::
         :: total energy              -77.555431617752 Eh   ::
         :: zero point energy           0.346269242228 Eh   ::
         :: G(RRHO) w/o ZPVE           -0.048707509546 Eh   ::
         :: G(RRHO) contrib.            0.297561732682 Eh   ::
         :::::::::::::::::::::::::::::::::::::::::::::::::::::

           -------------------------------------------------
          | TOTAL ENERGY              -77.555431617752 Eh   |
          | TOTAL ENTHALPY            -77.185728735219 Eh   |
          | TOTAL FREE ENERGY         -77.257869885070 Eh   |
          | GRADIENT NORM               0.000066821388 Eh/α |
           -------------------------------------------------

 * finished run on 2025/08/26 at 00:24:54.373
