   * xtb version 6.7.1 (edcfbbe) compiled by 'albert@albert-system' on 2024-07-22

   ID    Z sym.   atoms
    1    8 O      1, 10, 11
    2    6 C      2-8, 13-15, 17-28
    3   16 S      9
    4    7 N      12, 16
    5    1 H      29-46

          program call               : xtb data2507/gas/CzPrSBI/CzPrSBI_gas_T1_crest.xyz --gfn 2 --spinpol --tblite --uhf 2 --ohess vtight --parallel 40 --molden --ceasefiles --namespace data2507/gas/CzPrSBI/CzPrSBI_gas_T1_finalOpt
 * total energy  :   -77.5554061 Eh     change        0.1271466E-07 Eh
 * total energy  :   -77.5554332 Eh     change       -0.2711613E-04 Eh
 * total energy  :   -77.5554490 Eh     change       -0.1580298E-04 Eh
 * total energy  :   -77.5554526 Eh     change       -0.3563010E-05 Eh
 * total energy  :   -77.5554541 Eh     change       -0.1586252E-05 Eh
 * total energy  :   -77.5554544 Eh     change       -0.2605358E-06 Eh
 * total energy  :   -77.5554546 Eh     change       -0.2456115E-06 Eh
 * total energy  :   -77.5554546 Eh     change        0.3970422E-07 Eh
 * total energy  :   -77.5554548 Eh     change       -0.1758812E-06 Eh
 * total energy  :   -77.5554549 Eh     change       -0.1270818E-06 Eh
 * total energy  :   -77.5554549 Eh     change        0.3055973E-08 Eh
 * total energy  :   -77.5554550 Eh     change       -0.9511292E-07 Eh
   *** GEOMETRY OPTIMIZATION CONVERGED AFTER 12 ITERATIONS ***

 final structure:
================
46
 xtb: 6.7.1 (edcfbbe)
O           -1.18942348810504       -0.55506541594141       -2.28570183881439
C           -1.29651078588147        0.26647969753236       -1.22782777001007
C           -2.04825125713323        0.07850366242398       -0.06070033923611
C           -2.99704878339293       -0.92826410591347        0.21975403668280
C           -3.62561593006762       -0.93804709968524        1.44053146221487
C           -3.35390143826356        0.02848156160724        2.41304046654720
C           -2.43682446598245        1.04021304146210        2.15108996415705
C           -1.81069470578765        1.05760830075604        0.93235129473561
S           -0.59671522683188        2.18416899179991        0.32458458626646
O           -1.07339126919493        3.51670791760894        0.09811534685008
O            0.67780524875097        2.06817744231547        0.97348577038979
N           -0.50699329811801        1.39255476977335       -1.18200295841216
C            0.22408119331729        1.94709301394425       -2.28604819717212
C            1.73233691202520        1.73936331283271       -2.12933410424554
C            2.13551739330568        0.26252278528649       -2.23747934761345
N            1.73963761139035       -0.50897128380499       -1.09129630867266
C            2.34852586031052       -0.42562588838440        0.14293652335818
C            3.43440188018138        0.33589093285668        0.54912603680073
C            3.84025180099279        0.22275782950361        1.86357970177556
C            3.19065760049403       -0.62828247118351        2.75541585067326
C            2.11936993879769       -1.39927950469076        2.35295556250658
C            1.69322070014201       -1.30270298353394        1.03552905178006
C            0.64951770401932       -1.94142337086866        0.28284271076362
C           -0.26516535914939       -2.94813676090828        0.60622555685779
C           -1.09160800352148       -3.43847119008592       -0.41600569630952
C           -1.08178489182591       -2.92188121493141       -1.67569862368954
C           -0.27184751576656       -1.73222907325951       -2.06082685672147
C            0.71769049586597       -1.41045131306003       -1.00875677524719
H           -3.21982668442262       -1.66673200317790       -0.53306871089255
H           -4.35164518746622       -1.70796046915545        1.65622815565432
H           -3.86077237083659       -0.00620596827755        3.36395702981896
H           -2.21603282383197        1.80118754855381        2.88310287631009
H            0.00392026628854        3.01983240753416       -2.30520691694780
H           -0.14193745648867        1.48384734132733       -3.20772520132333
H            2.03053214585315        2.12619437061111       -1.15393280694252
H            2.24665489616312        2.30343347170289       -2.90890449402165
H            3.22540250554319        0.19541441171331       -2.33167810468952
H            1.68435490170799       -0.17843193406769       -3.13023443334987
H            3.94735079383666        1.00188205762113       -0.12742485392422
H            4.67674794849768        0.81070200159428        2.21064801630715
H            3.53471437600838       -0.68092869842061        3.77768439394157
H            1.61809964841869       -2.06001872320013        3.04397427091274
H           -0.31068884514636       -3.35544359725705        1.60184324960435
H           -1.74968598227896       -4.26708620312190       -0.19675278093632
H           -1.73291093524709       -3.31472120842466       -2.44044230510868
H            0.16802912722994       -1.85933464130666       -3.05936948522819

 projected vibrational frequencies (cm⁻¹)
eigval :       -0.00    -0.00    -0.00     0.00     0.00     0.00
eigval :       17.80    35.29    48.99    61.56    84.83   102.62
eigval :      116.82   140.51   145.87   166.43   186.20   207.04
eigval :      212.56   228.31   236.09   267.11   280.87   303.14
eigval :      332.44   352.84   359.41   372.71   390.12   402.61
eigval :      417.21   433.27   444.43   463.37   481.58   489.51
eigval :      506.42   511.95   527.38   532.36   540.62   549.69
eigval :      568.48   573.80   588.11   646.09   649.44   664.77
eigval :      685.72   695.66   701.40   730.50   732.08   755.16
eigval :      767.58   771.57   786.89   809.72   837.36   853.61
eigval :      866.84   886.84   894.01   900.45   901.42   914.93
eigval :      919.47   921.10   936.87   957.96   983.78  1010.97
eigval :     1017.63  1049.85  1059.06  1070.97  1081.43  1102.50
eigval :     1114.88  1124.48  1130.10  1152.65  1162.58  1171.36
eigval :     1173.87  1177.22  1194.44  1203.24  1207.16  1222.09
eigval :     1234.01  1237.99  1244.52  1251.77  1281.47  1290.23
eigval :     1319.90  1327.75  1331.77  1337.17  1338.20  1366.34
eigval :     1368.98  1373.62  1381.45  1409.60  1412.21  1432.35
eigval :     1434.80  1445.66  1451.48  1457.09  1470.97  1482.73
eigval :     1493.68  1523.74  1549.70  1572.24  1588.11  1607.85
eigval :     2861.97  2933.44  2937.44  2948.13  2973.34  2992.27
eigval :     3013.84  3073.80  3078.75  3083.72  3084.40  3090.89
eigval :     3095.63  3097.95  3099.71  3107.38  3111.80  3117.68

   temp. (K)  partition function   enthalpy   heat capacity  entropy
                                   cal/mol     cal/K/mol   cal/K/mol   J/K/mol
 298.15  VIB  0.103E+09            12342.794     83.562     73.385
         ROT  0.909E+07              888.752      2.981     34.821
         INT  0.939E+15            13231.546     86.543    108.206
         TR   0.746E+28             1481.254      4.968     43.758
         TOT                       14712.8003    91.5107   151.9644   635.8188

       T/K    H(0)-H(T)+PV         H(T)/Eh          T*S/Eh         G(T)/Eh
   ------------------------------------------------------------------------
    298.15    0.234463E-01    0.369722E+00    0.722032E-01    0.297519E+00
   ------------------------------------------------------------------------

         :::::::::::::::::::::::::::::::::::::::::::::::::::::
         ::                  THERMODYNAMIC                  ::
         :::::::::::::::::::::::::::::::::::::::::::::::::::::
         :: total free energy         -77.257935869567 Eh   ::
         ::.................................................::
         :: total energy              -77.555455007452 Eh   ::
         :: zero point energy           0.346275965559 Eh   ::
         :: G(RRHO) w/o ZPVE           -0.048756827674 Eh   ::
         :: G(RRHO) contrib.            0.297519137885 Eh   ::
         :::::::::::::::::::::::::::::::::::::::::::::::::::::

           -------------------------------------------------
          | TOTAL ENERGY              -77.555455007452 Eh   |
          | TOTAL ENTHALPY            -77.185732702219 Eh   |
          | TOTAL FREE ENERGY         -77.257935869567 Eh   |
          | GRADIENT NORM               0.000090514060 Eh/α |
           -------------------------------------------------

 * finished run on 2025/08/26 at 00:26:33.028
