   * xtb version 6.7.1 (edcfbbe) compiled by 'albert@albert-system' on 2024-07-22

   ID    Z sym.   atoms
    1    8 O      1, 10, 11
    2    6 C      2-8, 13-15, 17-28
    3   16 S      9
    4    7 N      12, 16
    5    1 H      29-46

          program call               : xtb data2507/gas/CzPrSBI/CzPrSBI.xyz --gfn 2 --ohess vtight --parallel 40 --molden --ceasefiles --namespace data2507/gas/CzPrSBI/CzPrSBI_gas_S0_preOpt
          :  Hamiltonian                  GFN2-xTB          :
 * total energy  :   -77.6134971 Eh     change       -0.1602686E-08 Eh
 * total energy  :   -77.6241699 Eh     change       -0.1067285E-01 Eh
 * total energy  :   -77.6271346 Eh     change       -0.2964666E-02 Eh
 * total energy  :   -77.6277336 Eh     change       -0.5990487E-03 Eh
 * total energy  :   -77.6281146 Eh     change       -0.3809131E-03 Eh
 * total energy  :   -77.6282069 Eh     change       -0.9237477E-04 Eh
 * total energy  :   -77.6282798 Eh     change       -0.7285147E-04 Eh
 * total energy  :   -77.6283363 Eh     change       -0.5647254E-04 Eh
 * total energy  :   -77.6283894 Eh     change       -0.5310409E-04 Eh
 * total energy  :   -77.6284354 Eh     change       -0.4600633E-04 Eh
 * total energy  :   -77.6379524 Eh     change       -0.7204027E-06 Eh
 * total energy  :   -77.6379531 Eh     change       -0.7187541E-06 Eh
 * total energy  :   -77.6379538 Eh     change       -0.7172453E-06 Eh
 * total energy  :   -77.6379545 Eh     change       -0.7185986E-06 Eh
 * total energy  :   -77.6379552 Eh     change       -0.7200538E-06 Eh
 * total energy  :   -77.6379560 Eh     change       -0.7240734E-06 Eh
 * total energy  :   -77.6379567 Eh     change       -0.7276583E-06 Eh
 * total energy  :   -77.6379574 Eh     change       -0.7331531E-06 Eh
 * total energy  :   -77.6379574 Eh     change       -0.6471197E-08 Eh
   *** GEOMETRY OPTIMIZATION CONVERGED AFTER 580 ITERATIONS ***

 final structure:
================
46
 xtb: 6.7.1 (edcfbbe)
O            0.38554990764966       -1.30886280197301        1.61820329429134
C            1.12807571294769       -0.96141679636186        0.72968422231129
C            1.87732356671373        0.32401116625826        0.68540898579101
C            1.74112581014183        1.35418647692409        1.60298062825830
C            2.49963447632721        2.50175327053379        1.42878117388056
C            3.37583175210967        2.61992216953869        0.36015353681113
C            3.51587261898003        1.58796190825308       -0.56098438868035
C            2.75303763986196        0.45853632902117       -0.37961802643275
S            2.72800163706557       -1.06599921847606       -1.29353597723189
O            2.35171716761276       -0.96379051742372       -2.66790625064491
O            3.88027803793561       -1.86024675074279       -0.99853401044049
N            1.40981260307979       -1.66921515771330       -0.39970470229280
C            0.89795678779063       -2.97946022681721       -0.73480615331007
C           -0.62313754063063       -3.08295135518405       -0.62602440016133
C           -1.37970272959089       -2.02981989078457       -1.45320482186923
N           -1.54970079185960       -0.79029042569787       -0.74364539981195
C           -0.90391602104113        0.39937825034178       -0.98304024942423
C           -0.05872942918704        0.76295112436697       -2.02278276380115
C            0.45096480779281        2.04693380103748       -2.02492740780646
C            0.12453958111338        2.96472011950923       -1.02914889860198
C           -0.73215955913037        2.61882162407047       -0.00395821445890
C           -1.25466130671521        1.33292846117171        0.02364528941981
C           -2.15738355013528        0.65673226813615        0.90854177155971
C           -2.83688968273381        1.04070621338799        2.05705205205088
C           -3.66571681884320        0.12485479554391        2.67176126911693
C           -3.82510105383348       -1.15722045859961        2.15077102089862
C           -3.15641459494214       -1.56324607588411        1.01247505530578
C           -2.31110578579574       -0.65131403975739        0.39523794850008
H            1.05090051027327        1.24393206477603        2.42467332736934
H            2.40636984901427        3.31474000401234        2.13259741886701
H            3.95819256127177        3.52069009452387        0.24043356464056
H            4.19529213738615        1.66366513422916       -1.39471633160658
H            1.36118512292608       -3.73208688668884       -0.08576951297249
H            1.22694016173517       -3.15483652539879       -1.76326209796901
H           -0.90620816634818       -2.97753788711204        0.42167687222571
H           -0.90575838981838       -4.08044980757210       -0.96583858838078
H           -2.37298072125313       -2.42089945711255       -1.70408565070944
H           -0.84514810136477       -1.82862691632152       -2.38368961744032
H            0.21427838623192        0.07456052360069       -2.80587733966616
H            1.11432356411993        2.34444079299253       -2.82333842789430
H            0.54235615976861        3.95990076748613       -1.06893577311854
H           -0.99853635824447        3.33241537766126        0.76136232420637
H           -2.71877065422518        2.03778440506035        2.45472557971543
H           -4.20316653994447        0.40133565973963        3.56678540314362
H           -4.48677865446004       -1.85033441139516        2.64949104629994
H           -3.29759410977217       -2.55926019500224        0.62089222038912

          :  Hamiltonian                  GFN2-xTB          :
         :: gradient norm              0.000070497676 Eh/a0 ::
         :: HOMO-LUMO gap              1.751401241571 eV    ::
         :: SCC energy               -78.819770608656 Eh    ::
         :: -> dispersion             -0.074372587592 Eh    ::
         :: repulsion energy           1.181813173897 Eh    ::

    * Orbital Energies and Occupations

         #    Occupation            Energy/Eh            Energy/eV
      -------------------------------------------------------------
         1        2.0000           -0.7994410             -21.7539
       ...           ...                  ...                  ...
        58        2.0000           -0.4474952             -12.1770
        59        2.0000           -0.4425448             -12.0423
        60        2.0000           -0.4420498             -12.0288
        61        2.0000           -0.4360847             -11.8665
        62        2.0000           -0.4307660             -11.7217
        63        2.0000           -0.4261890             -11.5972
        64        2.0000           -0.4175941             -11.3633
        65        2.0000           -0.4158052             -11.3146
        66        2.0000           -0.4155967             -11.3090
        67        2.0000           -0.4133936             -11.2490
        68        2.0000           -0.4010952             -10.9144
        69        2.0000           -0.3742473             -10.1838
        70        2.0000           -0.3599635              -9.7951 (HOMO)
        71                         -0.2956007              -8.0437 (LUMO)
        72                         -0.2714284              -7.3859
        73                         -0.2412984              -6.5661
        74                         -0.2193214              -5.9680
        75                         -0.2090347              -5.6881
        76                         -0.1909385              -5.1957
        77                         -0.1818499              -4.9484
        78                         -0.1650105              -4.4902
        79                         -0.1344187              -3.6577
        80                         -0.1235628              -3.3623
        81                         -0.0902346              -2.4554
       ...                                ...                  ...
       135                          1.2527216              34.0883
      -------------------------------------------------------------
                  HL-Gap            0.0643628 Eh            1.7514 eV

     #   Z          covCN         q      C6AA      α(0)
     1   8 O        0.857    -0.391    21.502     6.217
     2   6 C        2.916     0.280    22.272     7.739
     3   6 C        3.168    -0.023    28.195     8.676
     4   6 C        2.919    -0.007    28.192     8.707
     5   6 C        2.921    -0.018    28.468     8.750
     6   6 C        2.925    -0.016    28.415     8.742
     7   6 C        2.925    -0.015    28.378     8.736
     8   6 C        2.987    -0.089    30.224     9.018
     9  16 S        4.005     1.151   102.432    17.034
    10   8 O        0.860    -0.542    24.735     6.668
    11   8 O        0.860    -0.552    24.971     6.700
    12   7 N        2.753    -0.257    26.670     7.670
    13   6 C        3.794     0.021    20.226     6.404
    14   6 C        3.801    -0.073    21.892     6.662
    15   6 C        3.739     0.000    20.657     6.485
    16   7 N        2.796    -0.054    22.273     7.009
    17   6 C        3.078     0.040    27.015     8.521
    18   6 C        2.910    -0.065    29.629     8.926
    19   6 C        2.924    -0.040    28.999     8.831
    20   6 C        2.920    -0.048    29.200     8.861
    21   6 C        2.912    -0.038    28.954     8.824
    22   6 C        3.073    -0.021    28.442     8.744
    23   6 C        3.069    -0.015    28.307     8.724
    24   6 C        2.913    -0.031    28.779     8.797
    25   6 C        2.920    -0.040    28.994     8.830
    26   6 C        2.924    -0.031    28.781     8.798
    27   6 C        2.910    -0.050    29.232     8.866
    28   6 C        3.085     0.052    26.745     8.478
    29   1 H        0.926     0.081     1.965     2.192
    30   1 H        0.926     0.066     2.126     2.280
    31   1 H        0.926     0.067     2.123     2.278
    32   1 H        0.926     0.064     2.152     2.294
    33   1 H        0.924     0.058     2.221     2.331
    34   1 H        0.924     0.055     2.253     2.347
    35   1 H        0.924     0.084     1.934     2.175
    36   1 H        0.924     0.054     2.275     2.359
    37   1 H        0.924     0.052     2.290     2.367
    38   1 H        0.924     0.058     2.221     2.331
    39   1 H        0.926     0.038     2.476     2.460
    40   1 H        0.926     0.027     2.625     2.534
    41   1 H        0.926     0.023     2.689     2.565
    42   1 H        0.926     0.030     2.590     2.517
    43   1 H        0.926     0.029     2.603     2.523
    44   1 H        0.926     0.028     2.610     2.526
    45   1 H        0.926     0.030     2.586     2.515
    46   1 H        0.926     0.026     2.642     2.542

molecular dipole:
                 x           y           z       tot (Debye)
 q only:       -0.244       0.842       0.339
   full:       -0.065       0.716       0.163       1.873

 projected vibrational frequencies (cm⁻¹)
eigval :       -0.00    -0.00     0.00     0.00     0.00     0.00
eigval :       10.79    41.38    51.12    54.72    72.10    92.84
eigval :      100.23   114.67   122.04   141.60   157.83   165.35
eigval :      201.21   216.76   222.58   244.81   276.98   279.13
eigval :      291.48   315.69   353.43   361.18   382.58   392.22
eigval :      398.11   418.38   430.67   436.57   483.69   488.30
eigval :      505.62   519.89   528.84   531.93   536.99   542.39
eigval :      557.61   574.67   591.87   632.40   673.14   674.04
eigval :      708.15   709.86   716.02   728.81   760.20   766.52
eigval :      778.16   785.46   833.00   864.23   866.83   869.77
eigval :      887.09   888.20   897.37   901.19   908.50   916.78
eigval :      918.24   920.92   930.41   972.84   984.02  1010.06
eigval :     1030.80  1057.18  1064.51  1072.14  1076.57  1091.23
eigval :     1113.57  1131.57  1153.95  1155.67  1159.85  1170.84
eigval :     1180.71  1183.57  1199.73  1210.37  1219.52  1231.12
eigval :     1235.54  1239.52  1252.22  1271.45  1301.17  1309.80
eigval :     1326.01  1326.88  1335.07  1343.25  1348.41  1354.79
eigval :     1365.50  1376.00  1429.40  1429.77  1434.44  1440.95
eigval :     1451.81  1454.14  1460.90  1484.83  1490.87  1572.06
eigval :     1575.48  1591.54  1600.43  1601.62  1619.42  1747.19
eigval :     2918.96  2922.73  2961.14  2989.77  2992.40  3017.24
eigval :     3073.74  3074.66  3078.32  3083.78  3086.33  3090.78
eigval :     3092.00  3094.05  3099.04  3107.95  3109.37  3112.09

   temp. (K)  partition function   enthalpy   heat capacity  entropy
                                   cal/mol     cal/K/mol   cal/K/mol   J/K/mol
 298.15  VIB  0.560E+09            12680.347     83.383     77.405
         ROT  0.950E+07              888.752      2.981     34.909
         INT  0.532E+16            13569.099     86.363    112.314
         TR   0.746E+28             1481.254      4.968     43.758
         TOT                       15050.3533    91.3316   156.0725   653.0074

       T/K    H(0)-H(T)+PV         H(T)/Eh          T*S/Eh         G(T)/Eh
   ------------------------------------------------------------------------
    298.15    0.239843E-01    0.372289E+00    0.741551E-01    0.298134E+00
   ------------------------------------------------------------------------

         :::::::::::::::::::::::::::::::::::::::::::::::::::::
         ::                  THERMODYNAMIC                  ::
         :::::::::::::::::::::::::::::::::::::::::::::::::::::
         :: total free energy         -77.339823453808 Eh   ::
         ::.................................................::
         :: total energy              -77.637957434760 Eh   ::
         :: zero point energy           0.348304807176 Eh   ::
         :: G(RRHO) w/o ZPVE           -0.050170826224 Eh   ::
         :: G(RRHO) contrib.            0.298133980951 Eh   ::
         :::::::::::::::::::::::::::::::::::::::::::::::::::::

           -------------------------------------------------
          | TOTAL ENERGY              -77.637957434760 Eh   |
          | TOTAL ENTHALPY            -77.265668362991 Eh   |
          | TOTAL FREE ENERGY         -77.339823453808 Eh   |
          | GRADIENT NORM               0.000070498673 Eh/α |
          | HOMO-LUMO GAP               1.751401267214 eV   |
           -------------------------------------------------

 * finished run on 2025/08/26 at 00:21:47.297
