   * xtb version 6.7.1 (edcfbbe) compiled by 'albert@albert-system' on 2024-07-22

   ID    Z sym.   atoms
    1    8 O      1, 3, 11, 12
    2   16 S      2, 10
    3    6 C      4-9, 13-19, 21-37
    4    7 N      20
    5    1 H      38-58

          program call               : xtb data2507/gas/TPADSO2/TPADSO2_gas_T1_crest.xyz --gfn 2 --spinpol --tblite --uhf 2 --ohess vtight --parallel 40 --molden --ceasefiles --namespace data2507/gas/TPADSO2/TPADSO2_gas_T1_finalOpt
 * total energy  :  -100.4896379 Eh     change       -0.2525454E-08 Eh
 * total energy  :  -100.4896497 Eh     change       -0.1183969E-04 Eh
 * total energy  :  -100.4896534 Eh     change       -0.3712773E-05 Eh
 * total energy  :  -100.4896548 Eh     change       -0.1409130E-05 Eh
 * total energy  :  -100.4896563 Eh     change       -0.1445688E-05 Eh
 * total energy  :  -100.4896580 Eh     change       -0.1684793E-05 Eh
 * total energy  :  -100.4896602 Eh     change       -0.2219616E-05 Eh
 * total energy  :  -100.4896627 Eh     change       -0.2523960E-05 Eh
 * total energy  :  -100.4896650 Eh     change       -0.2297472E-05 Eh
 * total energy  :  -100.4896669 Eh     change       -0.1909607E-05 Eh
 * total energy  :  -100.4896729 Eh     change       -0.1272369E-05 Eh
 * total energy  :  -100.4896741 Eh     change       -0.1144964E-05 Eh
 * total energy  :  -100.4896753 Eh     change       -0.1248961E-05 Eh
 * total energy  :  -100.4896768 Eh     change       -0.1501899E-05 Eh
 * total energy  :  -100.4896786 Eh     change       -0.1764047E-05 Eh
 * total energy  :  -100.4896805 Eh     change       -0.1956112E-05 Eh
 * total energy  :  -100.4896821 Eh     change       -0.1562439E-05 Eh
 * total energy  :  -100.4896831 Eh     change       -0.1053028E-05 Eh
 * total energy  :  -100.4896832 Eh     change       -0.3683516E-07 Eh
   *** GEOMETRY OPTIMIZATION CONVERGED AFTER 22 ITERATIONS ***

 final structure:
================
58
 xtb: 6.7.1 (edcfbbe)
O            5.57490937375327       -1.58348133958340       -1.62342204524358
S            5.13163695422585       -1.55162896120721       -0.26022231854271
O            5.46845303364242       -2.68619921219362        0.56488453364265
C            5.79910747918924       -0.08380720770281        0.53273818579841
C            6.81657300317337       -0.20366369111641        1.46352948898767
C            7.32663770663144        0.93307840368086        2.06928580182440
C            6.80839545181815        2.18229748454530        1.75526509353071
C            5.77757163627297        2.29592824818955        0.83578444782622
C            5.28310906592573        1.15918954518041        0.22181437631984
S            3.93362692784794        1.29646680048755       -0.95596075927002
O            4.42805532678779        1.11176401857246       -2.28742600367255
O            3.24799852362659        2.53839143016979       -0.68632748673633
C            2.84335175559619       -0.04062633127775       -0.48709612086940
C            1.50484617696927        0.19578884836546       -0.41260611637652
C            0.58973839292735       -0.82253378201077       -0.00049214136623
C           -0.80126090846510       -0.59883734624995        0.03456615952580
C           -1.40770760829821        0.53246587503004       -0.61548924726782
C           -2.74664453022289        0.74674882521574       -0.59312451279942
C           -3.62315557640083       -0.15074162053044        0.07494161776976
N           -4.98622996429596        0.06168059599566        0.08888819238667
C           -5.86393033715669       -1.02388400253612        0.09427049256339
C           -5.55946567564594       -2.18015419456851       -0.63128152219231
C           -6.42392999296720       -3.25515660290200       -0.61203348236999
C           -7.59825549674386       -3.19932836164477        0.12466849001182
C           -7.90493570325552       -2.05370340810479        0.84516638576224
C           -7.04918078558287       -0.97176624176224        0.83477580007401
C           -5.49350168697675        1.36207380022942        0.09243502895675
C           -4.83488873798175        2.37394869150655        0.79848885766330
C           -5.33158885722310        3.66099462569404        0.78531381723613
C           -6.48484374862597        3.96174242063822        0.07521124695694
C           -7.14301072161177        2.96046421381600       -0.62471163111937
C           -6.65642789027924        1.66966766732233       -0.62094202759874
C           -3.04994215702041       -1.27513174769484        0.72608926344679
C           -1.70973318602336       -1.48603656789068        0.71124886794789
C            1.18090472413554       -2.07906891254801        0.37674014650148
C            2.52663495714121       -2.29421434932453        0.29990675512497
C            3.38775270700356       -1.28816430555714       -0.15746690735732
H            7.18517085486504       -1.19104610775430        1.69358867944982
H            8.12744548418809        0.84592461899900        2.78797371053323
H            7.20574989668189        3.06685990815493        2.22949335850554
H            5.33907376989613        3.24810596656112        0.58137257001461
H            1.17097306559616        1.19619383274750       -0.63330746295667
H           -0.78492049344841        1.20463130426969       -1.18103454012901
H           -3.17334234580140        1.58026490602188       -1.13202983436550
H           -4.65545107239772       -2.21176290906502       -1.22083658255574
H           -6.18520096372492       -4.14013470153076       -1.18193347840552
H           -8.27085637688624       -4.04267905302477        0.13680177223933
H           -8.81398275122402       -2.00787570752801        1.42545414037702
H           -7.27728901593905       -0.08699167388151        1.41050911352546
H           -3.94949366865761        2.13225976783363        1.36720306166283
H           -4.82033904927678        4.43412908163933        1.33826300251646
H           -6.86867527744181        4.96987940670700        0.06698714166327
H           -8.03660950130538        3.19074315688217       -1.18471196425312
H           -7.15604276326280        0.89428031477865       -1.18258650149904
H           -3.69929541527035       -1.93795893353180        1.27999287846670
H           -1.31294538327237       -2.32004647568532        1.26543720214285
H            0.54430175223653       -2.88789852748751        0.69517277897385
H            2.96733221905545       -3.23910644004219        0.57676270371804

 projected vibrational frequencies (cm⁻¹)
eigval :       -0.00    -0.00     0.00     0.00     0.00     0.00
eigval :       12.10    13.15    23.86    33.65    48.17    54.70
eigval :       57.09    70.99    73.61    82.45    95.68   101.92
eigval :      109.82   115.50   133.85   153.56   173.48   183.55
eigval :      203.98   225.51   232.76   235.99   252.22   271.88
eigval :      277.20   294.87   311.56   317.20   319.45   336.13
eigval :      343.75   377.09   377.81   385.28   389.14   399.00
eigval :      410.24   425.04   435.49   443.73   452.50   468.90
eigval :      485.04   504.59   508.37   518.70   528.15   530.74
eigval :      556.17   575.24   584.78   589.58   601.64   618.36
eigval :      621.37   642.16   648.43   657.10   660.20   674.36
eigval :      674.96   697.49   709.72   754.84   756.90   774.63
eigval :      777.47   788.27   795.68   798.08   834.64   866.87
eigval :      869.84   890.65   892.15   893.47   897.97   899.92
eigval :      901.29   904.48   907.15   919.00   926.44   926.96
eigval :      927.49   927.59   928.18   957.58   975.12   982.90
eigval :      993.55   995.82  1007.78  1069.10  1076.96  1078.00
eigval :     1095.95  1111.32  1120.10  1121.05  1122.92  1137.16
eigval :     1142.92  1144.42  1165.34  1173.54  1175.22  1177.88
eigval :     1177.93  1185.68  1199.06  1212.24  1215.38  1226.86
eigval :     1234.23  1234.87  1251.68  1271.46  1276.99  1277.71
eigval :     1295.13  1315.99  1317.38  1320.85  1329.03  1331.18
eigval :     1349.21  1355.36  1366.65  1403.55  1408.55  1425.35
eigval :     1428.72  1439.06  1440.67  1444.87  1450.59  1458.30
eigval :     1502.97  1528.37  1548.33  1553.92  1557.68  1562.66
eigval :     1571.60  1574.89  1609.97  3075.16  3078.79  3083.96
eigval :     3085.53  3086.20  3087.25  3087.58  3093.39  3094.21
eigval :     3095.27  3097.86  3098.32  3099.27  3106.25  3106.28
eigval :     3106.92  3107.23  3109.25  3111.68  3118.39  3122.87

   temp. (K)  partition function   enthalpy   heat capacity  entropy
                                   cal/mol     cal/K/mol   cal/K/mol   J/K/mol
 298.15  VIB  0.472E+14            18091.147    113.546    112.538
         ROT  0.535E+08              888.752      2.981     38.344
         INT  0.252E+22            18979.899    116.526    150.882
         TR   0.116E+29             1481.254      4.968     44.633
         TOT                       20461.1530   121.4946   195.5151   818.0353

       T/K    H(0)-H(T)+PV         H(T)/Eh          T*S/Eh         G(T)/Eh
   ------------------------------------------------------------------------
    298.15    0.326069E-01    0.453162E+00    0.928956E-01    0.360266E+00
   ------------------------------------------------------------------------

         :::::::::::::::::::::::::::::::::::::::::::::::::::::
         ::                  THERMODYNAMIC                  ::
         :::::::::::::::::::::::::::::::::::::::::::::::::::::
         :: total free energy        -100.129417203101 Eh   ::
         ::.................................................::
         :: total energy             -100.489683183290 Eh   ::
         :: zero point energy           0.420554609386 Eh   ::
         :: G(RRHO) w/o ZPVE           -0.060288629197 Eh   ::
         :: G(RRHO) contrib.            0.360265980189 Eh   ::
         :::::::::::::::::::::::::::::::::::::::::::::::::::::

           -------------------------------------------------
          | TOTAL ENERGY             -100.489683183290 Eh   |
          | TOTAL ENTHALPY           -100.036521651006 Eh   |
          | TOTAL FREE ENERGY        -100.129417203101 Eh   |
          | GRADIENT NORM               0.000082522742 Eh/α |
           -------------------------------------------------

 * finished run on 2025/08/22 at 16:31:50.596
