   * xtb version 6.7.1 (edcfbbe) compiled by 'albert@albert-system' on 2024-07-22

   ID    Z sym.   atoms
    1    8 O      1, 3, 11, 12
    2   16 S      2, 10
    3    6 C      4-9, 13-19, 21-37
    4    7 N      20
    5    1 H      38-58

          program call               : xtb data2507/gas/TPADSO2/TPADSO2.xyz --gfn 2 --ohess vtight --parallel 40 --molden --ceasefiles --namespace data2507/gas/TPADSO2/TPADSO2_gas_S0_preOpt
          :  Hamiltonian                  GFN2-xTB          :
 * total energy  :  -100.5551895 Eh     change       -0.4527152E-09 Eh
 * total energy  :  -100.5667914 Eh     change       -0.1160191E-01 Eh
 * total energy  :  -100.5717001 Eh     change       -0.4908615E-02 Eh
 * total energy  :  -100.5728804 Eh     change       -0.1180366E-02 Eh
 * total energy  :  -100.5734438 Eh     change       -0.5633273E-03 Eh
 * total energy  :  -100.5736965 Eh     change       -0.2527266E-03 Eh
 * total energy  :  -100.5738898 Eh     change       -0.1933566E-03 Eh
 * total energy  :  -100.5740840 Eh     change       -0.1941584E-03 Eh
 * total energy  :  -100.5743004 Eh     change       -0.2164505E-03 Eh
 * total energy  :  -100.5745184 Eh     change       -0.2179169E-03 Eh
 * total energy  :  -100.5755474 Eh     change       -0.1788296E-05 Eh
 * total energy  :  -100.5755490 Eh     change       -0.1642122E-05 Eh
 * total energy  :  -100.5755505 Eh     change       -0.1495965E-05 Eh
 * total energy  :  -100.5755520 Eh     change       -0.1445503E-05 Eh
 * total energy  :  -100.5755535 Eh     change       -0.1533744E-05 Eh
 * total energy  :  -100.5755553 Eh     change       -0.1771882E-05 Eh
 * total energy  :  -100.5755574 Eh     change       -0.2115957E-05 Eh
 * total energy  :  -100.5755598 Eh     change       -0.2445837E-05 Eh
 * total energy  :  -100.5755598 Eh     change       -0.8052638E-08 Eh
   *** GEOMETRY OPTIMIZATION CONVERGED AFTER 68 ITERATIONS ***

 final structure:
================
58
 xtb: 6.7.1 (edcfbbe)
O            6.44299160121680       -0.67309914865406       -2.71068666465190
S            6.09363896197768       -1.19644227587778       -1.41573889940327
O            6.41597319074875       -2.56463973124056       -1.14908919435967
C            6.86596865293184       -0.14760372181621       -0.17705134106770
C            7.97605948266357        0.60543162480444       -0.51528999264498
C            8.57516189860777        1.40650128186898        0.44485959484135
C            8.05541743991522        1.46017613483281        1.72988292113967
C            6.93520146618005        0.71252055542780        2.05977347887408
C            6.34952664336539       -0.09492886775223        1.10116139375841
S            4.90608686090449       -1.07681570307438        1.53012977090078
O            4.27135613100884       -0.44867056758627        2.65978612077652
O            5.28458710288029       -2.44945432158956        1.66918279335172
C            3.82142294797815       -0.88240174543736        0.11338707167147
C            2.47293529157750       -0.68156736226503        0.32005819010467
C            1.60892696965025       -0.52613886379132       -0.76768685420914
C            0.17131261416942       -0.33909659234017       -0.55793976588596
C           -0.56899099944738        0.52567655225136       -1.36517078802781
C           -1.92225313956158        0.69430190094823       -1.17206724885718
C           -2.59061606661976       -0.01174498082018       -0.16771035118293
N           -3.95898531289923        0.14305545580291        0.01940413926034
C           -4.74426698231074       -0.94224119768011        0.43711922907766
C           -4.49528674783221       -2.22384381914006       -0.05165832891438
C           -5.27581966701670       -3.28726644380791        0.35858673793147
C           -6.31745557924047       -3.08992402764173        1.25019764138236
C           -6.57191220171781       -1.81703790112768        1.73369033472127
C           -5.79148254022357       -0.74850687737197        1.33613986317073
C           -4.57073408668252        1.38356159528374       -0.21429803508834
C           -3.93258178135858        2.56629489243928        0.15656997420970
C           -4.54210280489729        3.78494937741376       -0.07091726960690
C           -5.79428301944594        3.84386489651844       -0.66049838718405
C           -6.43417273081023        2.67075829666565       -1.02549323491829
C           -5.82950279276956        1.44747464487523       -0.80942166080475
C           -1.85182794042562       -0.87896034266048        0.64262957058655
C           -0.49643944987014       -1.03161640393476        0.45347987145192
C            2.15035217041375       -0.55903022334652       -2.05627311783034
C            3.50524873980234       -0.75121972253008       -2.25467868080532
C            4.34167394646662       -0.92240900909504       -1.16477062281181
H            8.34447630729808        0.55091346628572       -1.52763104294533
H            9.44602343979764        1.99049952892051        0.18903838938853
H            8.52115243779823        2.08632576098047        2.47549286889963
H            6.49660238119221        0.74161899662199        3.04480194307092
H            2.11554960718629       -0.62481690181362        1.33633812898170
H           -0.07303054644241        1.08828117620037       -2.14190367935501
H           -2.47829807633206        1.36894605005470       -1.80591567469952
H           -3.69106455266465       -2.37746657445549       -0.75631584372199
H           -5.07439794427007       -4.27513672418235       -0.02839156983304
H           -6.92743309909094       -3.92263295725354        1.56528717379220
H           -7.37961569508303       -1.65506109232714        2.43195484523587
H           -5.98615378220920        0.24230522209558        1.71966397033513
H           -2.96151964603424        2.52102259192224        0.62765886582126
H           -4.03928420854401        4.69429841423812        0.22342069038843
H           -6.26885778093868        4.79773047593579       -0.83301496032107
H           -7.40889263659109        2.70789322741357       -1.48893044307663
H           -6.32636222693686        0.53373536750058       -1.10078403239707
H           -2.35249700055186       -1.42666659903854        1.42692793217858
H            0.05290548596373       -1.71387885651836        1.08406314360309
H            1.49717717005974       -0.45328881108975       -2.90905976141912
H            3.93839709706613       -0.77453012003700       -3.24229920288093

          :  Hamiltonian                  GFN2-xTB          :
         :: gradient norm              0.000070197908 Eh/a0 ::
         :: HOMO-LUMO gap              1.901006726837 eV    ::
         :: SCC energy              -102.181217796666 Eh    ::
         :: -> dispersion             -0.084172856124 Eh    ::
         :: repulsion energy           1.605657955375 Eh    ::

    * Orbital Energies and Occupations

         #    Occupation            Energy/Eh            Energy/eV
      -------------------------------------------------------------
         1        2.0000           -0.7858726             -21.3847
       ...           ...                  ...                  ...
        79        2.0000           -0.4418792             -12.0241
        80        2.0000           -0.4381398             -11.9224
        81        2.0000           -0.4350441             -11.8382
        82        2.0000           -0.4323183             -11.7640
        83        2.0000           -0.4311930             -11.7334
        84        2.0000           -0.4303978             -11.7117
        85        2.0000           -0.4223288             -11.4922
        86        2.0000           -0.4165704             -11.3355
        87        2.0000           -0.4146063             -11.2820
        88        2.0000           -0.4140113             -11.2658
        89        2.0000           -0.4121446             -11.2150
        90        2.0000           -0.4087307             -11.1221
        91        2.0000           -0.3607785              -9.8173 (HOMO)
        92                         -0.2909177              -7.9163 (LUMO)
        93                         -0.2769445              -7.5360
        94                         -0.2722258              -7.4076
        95                         -0.2659100              -7.2358
        96                         -0.2395310              -6.5180
        97                         -0.2387912              -6.4978
        98                         -0.2360328              -6.4228
        99                         -0.2327825              -6.3343
       100                         -0.2300621              -6.2603
       101                         -0.2050406              -5.5794
       102                         -0.1615425              -4.3958
       ...                                ...                  ...
       179                          1.2497492              34.0074
      -------------------------------------------------------------
                  HL-Gap            0.0698607 Eh            1.9010 eV

     #   Z          covCN         q      C6AA      α(0)
     1   8 O        0.860    -0.536    24.595     6.649
     2  16 S        3.842     0.975   107.369    17.440
     3   8 O        0.860    -0.522    24.276     6.606
     4   6 C        3.002    -0.080    29.985     8.982
     5   6 C        2.956    -0.018    28.459     8.750
     6   6 C        2.920    -0.018    28.466     8.749
     7   6 C        2.920    -0.018    28.467     8.750
     8   6 C        2.956    -0.018    28.459     8.750
     9   6 C        3.003    -0.080    29.986     8.983
    10  16 S        3.845     0.976   107.341    17.438
    11   8 O        0.860    -0.537    24.616     6.652
    12   8 O        0.860    -0.521    24.263     6.604
    13   6 C        3.001    -0.082    30.035     8.990
    14   6 C        2.965    -0.028    28.687     8.785
    15   6 C        2.976     0.027    27.384     8.584
    16   6 C        2.976    -0.001    28.049     8.687
    17   6 C        2.923    -0.033    28.811     8.802
    18   6 C        2.920    -0.049    29.206     8.862
    19   6 C        2.923     0.069    26.449     8.434
    20   7 N        2.752    -0.070    22.600     7.061
    21   6 C        2.925     0.064    26.572     8.454
    22   6 C        2.922    -0.047    29.162     8.856
    23   6 C        2.920    -0.028    28.709     8.787
    24   6 C        2.919    -0.036    28.900     8.816
    25   6 C        2.920    -0.028    28.707     8.786
    26   6 C        2.922    -0.046    29.142     8.853
    27   6 C        2.925     0.064    26.567     8.453
    28   6 C        2.922    -0.047    29.166     8.856
    29   6 C        2.920    -0.029    28.717     8.788
    30   6 C        2.919    -0.037    28.909     8.817
    31   6 C        2.920    -0.028    28.710     8.787
    32   6 C        2.922    -0.046    29.145     8.853
    33   6 C        2.920    -0.047    29.171     8.857
    34   6 C        2.923    -0.031    28.781     8.798
    35   6 C        2.925    -0.028    28.702     8.786
    36   6 C        2.954    -0.020    28.516     8.759
    37   6 C        3.003    -0.087    30.174     9.011
    38   1 H        0.926     0.081     1.973     2.197
    39   1 H        0.926     0.069     2.100     2.266
    40   1 H        0.926     0.069     2.101     2.267
    41   1 H        0.926     0.080     1.976     2.198
    42   1 H        0.926     0.078     2.003     2.213
    43   1 H        0.926     0.038     2.476     2.461
    44   1 H        0.926     0.040     2.455     2.450
    45   1 H        0.926     0.033     2.547     2.496
    46   1 H        0.926     0.035     2.512     2.479
    47   1 H        0.926     0.034     2.527     2.486
    48   1 H        0.926     0.035     2.517     2.481
    49   1 H        0.926     0.034     2.533     2.489
    50   1 H        0.926     0.033     2.545     2.495
    51   1 H        0.926     0.034     2.526     2.485
    52   1 H        0.926     0.034     2.536     2.490
    53   1 H        0.926     0.035     2.520     2.482
    54   1 H        0.926     0.034     2.531     2.488
    55   1 H        0.926     0.042     2.424     2.435
    56   1 H        0.926     0.043     2.409     2.427
    57   1 H        0.926     0.066     2.126     2.280
    58   1 H        0.926     0.077     2.009     2.216

molecular dipole:
                 x           y           z       tot (Debye)
 q only:       -1.860       2.583      -0.240
   full:       -1.717       2.492      -0.231       7.714

 projected vibrational frequencies (cm⁻¹)
eigval :       -0.00    -0.00    -0.00     0.00     0.00     0.00
eigval :       12.60    14.20    25.23    30.35    47.11    49.63
eigval :       63.42    64.80    72.04    80.26    94.43   101.47
eigval :      111.17   121.13   141.46   146.94   177.37   188.91
eigval :      205.59   231.07   234.16   234.41   251.27   269.70
eigval :      293.80   297.57   316.36   321.16   330.36   339.52
eigval :      367.36   378.15   378.20   387.03   391.02   409.90
eigval :      416.22   432.16   454.19   457.86   468.49   489.24
eigval :      492.92   502.18   510.40   519.62   531.67   565.23
eigval :      575.49   586.97   588.43   597.00   614.27   623.39
eigval :      647.99   660.33   666.89   672.26   679.31   685.06
eigval :      694.02   705.48   714.78   758.02   760.74   780.28
eigval :      810.65   815.03   841.53   869.23   875.46   876.51
eigval :      892.85   894.13   894.86   895.38   909.89   917.54
eigval :      919.54   921.89   923.32   928.17   928.43   929.93
eigval :      930.16   930.70   931.25   981.22   990.97  1005.45
eigval :     1008.17  1018.57  1070.01  1073.92  1082.83  1083.86
eigval :     1108.32  1118.48  1121.54  1123.49  1136.95  1143.54
eigval :     1145.75  1151.49  1161.68  1173.82  1180.46  1180.55
eigval :     1186.64  1194.90  1197.40  1209.00  1214.10  1216.16
eigval :     1246.94  1264.06  1269.93  1277.87  1280.19  1289.58
eigval :     1309.42  1314.66  1317.32  1319.02  1325.95  1327.71
eigval :     1337.96  1376.84  1407.74  1415.91  1429.35  1436.07
eigval :     1439.92  1444.29  1470.71  1474.80  1495.88  1544.23
eigval :     1554.06  1564.19  1568.02  1578.43  1582.34  1584.21
eigval :     1594.29  1594.82  1601.36  3078.05  3078.72  3079.11
eigval :     3079.86  3082.60  3087.27  3087.56  3088.39  3090.44
eigval :     3090.69  3091.61  3093.63  3095.64  3098.94  3099.00
eigval :     3099.54  3100.19  3105.83  3107.48  3108.15  3109.33

   temp. (K)  partition function   enthalpy   heat capacity  entropy
                                   cal/mol     cal/K/mol   cal/K/mol   J/K/mol
 298.15  VIB  0.357E+14            17814.917    111.544    110.902
         ROT  0.539E+08              888.752      2.981     38.358
         INT  0.192E+22            18703.670    114.525    149.260
         TR   0.116E+29             1481.254      4.968     44.633
         TOT                       20184.9236   119.4929   193.8926   811.2468

       T/K    H(0)-H(T)+PV         H(T)/Eh          T*S/Eh         G(T)/Eh
   ------------------------------------------------------------------------
    298.15    0.321667E-01    0.456216E+00    0.921246E-01    0.364091E+00
   ------------------------------------------------------------------------

         :::::::::::::::::::::::::::::::::::::::::::::::::::::
         ::                  THERMODYNAMIC                  ::
         :::::::::::::::::::::::::::::::::::::::::::::::::::::
         :: total free energy        -100.211468884719 Eh   ::
         ::.................................................::
         :: total energy             -100.575559841291 Eh   ::
         :: zero point energy           0.424048876933 Eh   ::
         :: G(RRHO) w/o ZPVE           -0.059957920361 Eh   ::
         :: G(RRHO) contrib.            0.364090956572 Eh   ::
         :::::::::::::::::::::::::::::::::::::::::::::::::::::

           -------------------------------------------------
          | TOTAL ENERGY             -100.575559841291 Eh   |
          | TOTAL ENTHALPY           -100.119344241140 Eh   |
          | TOTAL FREE ENERGY        -100.211468884719 Eh   |
          | GRADIENT NORM               0.000070196009 Eh/α |
          | HOMO-LUMO GAP               1.901006839218 eV   |
           -------------------------------------------------

 * finished run on 2025/08/22 at 16:25:37.573
