   * xtb version 6.7.1 (edcfbbe) compiled by 'albert@albert-system' on 2024-07-22

   ID    Z sym.   atoms
    1    8 O      1, 3, 11, 12
    2   16 S      2, 10
    3    6 C      4-9, 13-19, 21-37
    4    7 N      20
    5    1 H      38-58

          program call               : xtb data2507/gas/TPADSO2/TPADSO2_gas_S0_crest.xyz --gfn 2 --ohess vtight --parallel 40 --molden --ceasefiles --namespace data2507/gas/TPADSO2/TPADSO2_gas_S0_finalOpt
          :  Hamiltonian                  GFN2-xTB          :
 * total energy  :  -100.5759011 Eh     change       -0.1010818E-08 Eh
 * total energy  :  -100.5759029 Eh     change       -0.1838907E-05 Eh
 * total energy  :  -100.5759044 Eh     change       -0.1515854E-05 Eh
 * total energy  :  -100.5759064 Eh     change       -0.2011439E-05 Eh
 * total energy  :  -100.5759081 Eh     change       -0.1688149E-05 Eh
 * total energy  :  -100.5759090 Eh     change       -0.8897423E-06 Eh
 * total energy  :  -100.5759095 Eh     change       -0.5004875E-06 Eh
 * total energy  :  -100.5759100 Eh     change       -0.4615859E-06 Eh
 * total energy  :  -100.5759105 Eh     change       -0.5093679E-06 Eh
 * total energy  :  -100.5759109 Eh     change       -0.4374838E-06 Eh
 * total energy  :  -100.5759112 Eh     change       -0.3040505E-06 Eh
 * total energy  :  -100.5759114 Eh     change       -0.2244426E-06 Eh
 * total energy  :  -100.5759117 Eh     change       -0.2366933E-06 Eh
 * total energy  :  -100.5759119 Eh     change       -0.2491349E-06 Eh
 * total energy  :  -100.5759121 Eh     change       -0.2159908E-06 Eh
 * total energy  :  -100.5759123 Eh     change       -0.1459584E-06 Eh
 * total energy  :  -100.5759124 Eh     change       -0.9794175E-07 Eh
   *** GEOMETRY OPTIMIZATION CONVERGED AFTER 17 ITERATIONS ***

 final structure:
================
58
 xtb: 6.7.1 (edcfbbe)
O            5.44370745341298       -2.72761628233189       -0.25706124425094
S            5.13656421794466       -1.50192605438562        0.43309544196289
O            5.56644336994230       -1.38615612331162        1.79296592777254
C            5.82797113847011       -0.14759916366349       -0.52591089926668
C            6.88268357271403       -0.39023015250080       -1.38767874502200
C            7.42563070404431        0.65876030263170       -2.11388874042333
C            6.90517362902435        1.93808895536466       -1.98460247978374
C            5.83976307497678        2.17294514477901       -1.12887747581673
C            5.31036708898563        1.12474736588311       -0.39741302477763
S            3.94041629712157        1.43124022972468        0.72547023942040
O            3.25920063635161        2.61472263440854        0.26755588126910
O            4.41819409460886        1.42800297529225        2.07389096058233
C            2.84724689236917        0.03365080962957        0.45736044150243
C            1.48796591468776        0.25046246063846        0.37934789472955
C            0.61239475470835       -0.82089861553080        0.17834848606703
C           -0.83246137667869       -0.59879013521368        0.10682045797792
C           -1.35256380231017        0.55449299797004       -0.48436932696156
C           -2.71089291713315        0.76574602861230       -0.55665204049488
C           -3.60720921068682       -0.16502416393981       -0.02163224318692
N           -4.97701259539779        0.05096305200386       -0.08273303063569
C           -5.86506822965067       -1.03011002259700       -0.19107825778314
C           -5.55775188963312       -2.12024208974548       -1.00374057972627
C           -6.43986894573034       -3.17827335038669       -1.10897710685835
C           -7.63986497732406       -3.16260008781264       -0.41710469140885
C           -7.95217246327002       -2.07807909088404        0.38611329565502
C           -7.07302786045844       -1.01892452329666        0.50418462845962
C           -5.49481660340873        1.35503442861011       -0.03259600661280
C           -4.93779428010548        2.30589714318913        0.82086896561374
C           -5.45630316275565        3.58565363365778        0.86662506429929
C           -6.53801404892423        3.93294761966691        0.07398069969416
C           -7.09882925652617        2.98878181212412       -0.77029457428073
C           -6.58216822389494        1.70874741820291       -0.82935277009460
C           -3.08961246045122       -1.31721103968537        0.57823463828819
C           -1.73044957122379       -1.53000744659079        0.63219446573532
C            1.15459212920959       -2.10321735780020        0.04410692650110
C            2.51981017800990       -2.31075351712235        0.11300193221632
C            3.36864980103345       -1.23804024148945        0.32748177768892
H            7.25340786136901       -1.39949547366375       -1.47412893983362
H            8.25370941910892        0.47700796388041       -2.78183600703573
H            7.32766045085277        2.75343311840066       -2.55173753353507
H            5.40145349040780        3.15192227036961       -1.01485985792678
H            1.12727614229022        1.26062634725298        0.49267599053415
H           -0.68200944734096        1.27679736672723       -0.92444835309865
H           -3.09352290618145        1.65339382313511       -1.03777973807383
H           -4.62799006283990       -2.12779517368937       -1.55370299908364
H           -6.19206273266736       -4.01647595293231       -1.74331448518999
H           -8.32777714191713       -3.98960309336656       -0.50453995351959
H           -8.88412745385343       -2.05926335804750        0.93132927635419
H           -7.31416774994717       -0.17688050055317        1.13620629594124
H           -4.10216577618169        2.03299938313246        1.44852889371819
H           -5.01765349331746        4.31352698692828        1.53282992588594
H           -6.94224696668481        4.93279443277481        0.11506636684926
H           -7.94039027202120        3.25213494633765       -1.39370353138914
H           -7.01550241886598        0.97490918501175       -1.49306856396321
H           -3.76598713832530       -2.03767061201542        1.01341190190353
H           -1.35555132264818       -2.41291593691763        1.12752076454900
H            0.49852894965241       -2.94081693544450       -0.13741202882646
H            2.95283477695803       -3.29160459132180       -0.00531757511098

          :  Hamiltonian                  GFN2-xTB          :
         :: gradient norm              0.000037642347 Eh/a0 ::
         :: HOMO-LUMO gap              1.934154483340 eV    ::
         :: SCC energy              -102.181505983119 Eh    ::
         :: -> dispersion             -0.084250261881 Eh    ::
         :: repulsion energy           1.605593599056 Eh    ::

    * Orbital Energies and Occupations

         #    Occupation            Energy/Eh            Energy/eV
      -------------------------------------------------------------
         1        2.0000           -0.7853752             -21.3711
       ...           ...                  ...                  ...
        79        2.0000           -0.4406800             -11.9915
        80        2.0000           -0.4377953             -11.9130
        81        2.0000           -0.4353328             -11.8460
        82        2.0000           -0.4328883             -11.7795
        83        2.0000           -0.4309859             -11.7277
        84        2.0000           -0.4297976             -11.6954
        85        2.0000           -0.4219659             -11.4823
        86        2.0000           -0.4172180             -11.3531
        87        2.0000           -0.4152864             -11.3005
        88        2.0000           -0.4144634             -11.2781
        89        2.0000           -0.4121172             -11.2143
        90        2.0000           -0.4084786             -11.1153
        91        2.0000           -0.3613443              -9.8327 (HOMO)
        92                         -0.2902654              -7.8985 (LUMO)
        93                         -0.2770558              -7.5391
        94                         -0.2717945              -7.3959
        95                         -0.2651712              -7.2157
        96                         -0.2399084              -6.5282
        97                         -0.2388219              -6.4987
        98                         -0.2354574              -6.4071
        99                         -0.2331346              -6.3439
       100                         -0.2306369              -6.2759
       101                         -0.2051633              -5.5828
       102                         -0.1607980              -4.3755
       ...                                ...                  ...
       179                          1.2493973              33.9978
      -------------------------------------------------------------
                  HL-Gap            0.0710789 Eh            1.9342 eV

     #   Z          covCN         q      C6AA      α(0)
     1   8 O        0.860    -0.536    24.599     6.650
     2  16 S        3.841     0.975   107.377    17.440
     3   8 O        0.860    -0.523    24.290     6.608
     4   6 C        3.002    -0.080    29.983     8.982
     5   6 C        2.956    -0.018    28.458     8.750
     6   6 C        2.920    -0.018    28.467     8.749
     7   6 C        2.920    -0.018    28.469     8.750
     8   6 C        2.956    -0.018    28.460     8.750
     9   6 C        3.002    -0.080    29.984     8.982
    10  16 S        3.845     0.976   107.335    17.437
    11   8 O        0.860    -0.538    24.635     6.655
    12   8 O        0.860    -0.522    24.269     6.605
    13   6 C        3.001    -0.082    30.041     8.991
    14   6 C        2.966    -0.028    28.693     8.786
    15   6 C        2.976     0.027    27.391     8.585
    16   6 C        2.976    -0.002    28.060     8.689
    17   6 C        2.923    -0.032    28.801     8.801
    18   6 C        2.920    -0.048    29.196     8.861
    19   6 C        2.923     0.069    26.450     8.434
    20   7 N        2.752    -0.069    22.583     7.058
    21   6 C        2.925     0.064    26.568     8.453
    22   6 C        2.922    -0.047    29.161     8.856
    23   6 C        2.920    -0.029    28.717     8.788
    24   6 C        2.919    -0.036    28.901     8.816
    25   6 C        2.920    -0.028    28.705     8.786
    26   6 C        2.922    -0.046    29.134     8.852
    27   6 C        2.926     0.064    26.576     8.454
    28   6 C        2.922    -0.046    29.148     8.854
    29   6 C        2.920    -0.028    28.706     8.786
    30   6 C        2.919    -0.036    28.893     8.815
    31   6 C        2.920    -0.028    28.710     8.787
    32   6 C        2.922    -0.046    29.140     8.852
    33   6 C        2.920    -0.049    29.211     8.863
    34   6 C        2.923    -0.032    28.797     8.800
    35   6 C        2.925    -0.028    28.712     8.787
    36   6 C        2.953    -0.020    28.516     8.759
    37   6 C        3.003    -0.087    30.176     9.011
    38   1 H        0.926     0.080     1.975     2.197
    39   1 H        0.926     0.069     2.102     2.267
    40   1 H        0.926     0.068     2.103     2.268
    41   1 H        0.926     0.080     1.978     2.199
    42   1 H        0.926     0.077     2.005     2.214
    43   1 H        0.926     0.042     2.426     2.435
    44   1 H        0.926     0.041     2.439     2.442
    45   1 H        0.926     0.033     2.548     2.496
    46   1 H        0.926     0.035     2.523     2.484
    47   1 H        0.926     0.034     2.529     2.487
    48   1 H        0.926     0.035     2.513     2.479
    49   1 H        0.926     0.034     2.526     2.485
    50   1 H        0.926     0.035     2.522     2.483
    51   1 H        0.926     0.036     2.497     2.471
    52   1 H        0.926     0.035     2.523     2.484
    53   1 H        0.926     0.035     2.518     2.481
    54   1 H        0.926     0.033     2.538     2.491
    55   1 H        0.926     0.040     2.448     2.447
    56   1 H        0.926     0.040     2.452     2.449
    57   1 H        0.926     0.066     2.131     2.283
    58   1 H        0.926     0.077     2.013     2.219

molecular dipole:
                 x           y           z       tot (Debye)
 q only:       -2.135       0.063      -2.482
   full:       -1.987       0.063      -2.390       7.902

 projected vibrational frequencies (cm⁻¹)
eigval :       -0.00    -0.00    -0.00     0.00     0.00     0.00
eigval :       13.49    15.66    21.40    33.25    46.26    50.39
eigval :       58.44    67.62    73.05    80.09    92.77    99.59
eigval :      107.25   119.88   147.84   156.39   178.31   180.96
eigval :      211.91   217.70   234.25   243.58   252.00   273.36
eigval :      291.38   301.18   315.73   319.36   325.51   337.31
eigval :      370.74   378.23   380.10   388.91   401.64   407.78
eigval :      417.98   428.93   443.84   458.63   474.47   490.07
eigval :      492.13   502.38   512.60   517.18   530.49   565.59
eigval :      579.53   586.72   587.04   594.23   615.57   623.43
eigval :      647.95   660.45   667.16   672.10   679.18   683.78
eigval :      694.73   705.64   714.87   758.29   760.85   780.23
eigval :      810.88   815.26   839.54   867.94   875.78   876.49
eigval :      890.43   894.05   895.13   895.74   910.09   917.63
eigval :      919.89   921.84   923.19   927.65   928.64   929.73
eigval :      930.51   930.68   931.80   981.14   990.89  1005.53
eigval :     1008.09  1018.54  1070.08  1073.62  1082.75  1083.75
eigval :     1108.23  1118.15  1121.42  1123.27  1137.31  1143.56
eigval :     1146.71  1151.87  1162.41  1173.80  1180.42  1180.54
eigval :     1186.59  1194.70  1198.75  1210.01  1214.67  1216.85
eigval :     1246.65  1263.73  1271.12  1277.71  1280.27  1290.01
eigval :     1308.74  1314.63  1316.53  1319.57  1325.78  1327.96
eigval :     1339.35  1377.18  1407.68  1417.42  1429.41  1436.19
eigval :     1439.89  1444.31  1470.17  1474.53  1496.66  1543.23
eigval :     1552.41  1564.29  1566.49  1578.54  1582.44  1584.11
eigval :     1594.12  1594.58  1601.23  3077.94  3078.84  3079.91
eigval :     3080.21  3084.15  3086.70  3087.51  3088.35  3090.35
eigval :     3091.02  3091.86  3094.02  3096.77  3098.11  3098.87
eigval :     3099.76  3100.32  3107.42  3107.49  3108.14  3109.28

   temp. (K)  partition function   enthalpy   heat capacity  entropy
                                   cal/mol     cal/K/mol   cal/K/mol   J/K/mol
 298.15  VIB  0.336E+14            17808.616    111.503    110.806
         ROT  0.536E+08              888.752      2.981     38.349
         INT  0.180E+22            18697.368    114.484    149.155
         TR   0.116E+29             1481.254      4.968     44.633
         TOT                       20178.6224   119.4520   193.7880   810.8088

       T/K    H(0)-H(T)+PV         H(T)/Eh          T*S/Eh         G(T)/Eh
   ------------------------------------------------------------------------
    298.15    0.321567E-01    0.456237E+00    0.920749E-01    0.364162E+00
   ------------------------------------------------------------------------

         :::::::::::::::::::::::::::::::::::::::::::::::::::::
         ::                  THERMODYNAMIC                  ::
         :::::::::::::::::::::::::::::::::::::::::::::::::::::
         :: total free energy        -100.211750115391 Eh   ::
         ::.................................................::
         :: total energy             -100.575912384063 Eh   ::
         :: zero point energy           0.424080497334 Eh   ::
         :: G(RRHO) w/o ZPVE           -0.059918228662 Eh   ::
         :: G(RRHO) contrib.            0.364162268671 Eh   ::
         :::::::::::::::::::::::::::::::::::::::::::::::::::::

           -------------------------------------------------
          | TOTAL ENERGY             -100.575912384063 Eh   |
          | TOTAL ENTHALPY           -100.119675205093 Eh   |
          | TOTAL FREE ENERGY        -100.211750115391 Eh   |
          | GRADIENT NORM               0.000037662423 Eh/α |
          | HOMO-LUMO GAP               1.934155671055 eV   |
           -------------------------------------------------

 * finished run on 2025/08/22 at 16:28:28.430
