   * xtb version 6.7.1 (edcfbbe) compiled by 'albert@albert-system' on 2024-07-22

   ID    Z sym.   atoms
    1    8 O      1, 3, 11, 12
    2   16 S      2, 10
    3    6 C      4-9, 13-19, 21-37
    4    7 N      20
    5    1 H      38-58

          program call               : xtb data2507/gas/TPADSO2/TPADSO2_gas_S0_finalOpt.xtbopt.xyz --gfn 2 --spinpol --tblite --uhf 2 --ohess vtight --parallel 40 --molden --ceasefiles --namespace data2507/gas/TPADSO2/TPADSO2_gas_T1_preOpt
 * total energy  :  -100.4793874 Eh     change       -0.3696357E-07 Eh
 * total energy  :  -100.4851244 Eh     change       -0.5737045E-02 Eh
 * total energy  :  -100.4871701 Eh     change       -0.2045678E-02 Eh
 * total energy  :  -100.4875054 Eh     change       -0.3353061E-03 Eh
 * total energy  :  -100.4879356 Eh     change       -0.4301488E-03 Eh
 * total energy  :  -100.4880949 Eh     change       -0.1593877E-03 Eh
 * total energy  :  -100.4882223 Eh     change       -0.1273386E-03 Eh
 * total energy  :  -100.4882827 Eh     change       -0.6037934E-04 Eh
 * total energy  :  -100.4883264 Eh     change       -0.4370744E-04 Eh
 * total energy  :  -100.4883790 Eh     change       -0.5264451E-04 Eh
 * total energy  :  -100.4896506 Eh     change       -0.4626382E-06 Eh
 * total energy  :  -100.4896509 Eh     change       -0.2496430E-06 Eh
 * total energy  :  -100.4896512 Eh     change       -0.3348715E-06 Eh
 * total energy  :  -100.4896515 Eh     change       -0.2578462E-06 Eh
 * total energy  :  -100.4896517 Eh     change       -0.2317879E-06 Eh
 * total energy  :  -100.4896518 Eh     change       -0.1107338E-06 Eh
 * total energy  :  -100.4896520 Eh     change       -0.1390280E-06 Eh
 * total energy  :  -100.4896521 Eh     change       -0.1066513E-06 Eh
 * total energy  :  -100.4896521 Eh     change       -0.6921964E-07 Eh
   *** GEOMETRY OPTIMIZATION CONVERGED AFTER 63 ITERATIONS ***

 final structure:
================
58
 xtb: 6.7.1 (edcfbbe)
O            5.49464968302881       -2.49499669098850        0.75151971648362
S            5.14442148508526       -1.11177293664063        0.96476492007156
O            5.58213571823409       -0.51239663585850        2.19171177913257
C            5.80738254413691       -0.16385008364831       -0.41082954291589
C            6.84075383657136       -0.68324274449257       -1.17123620394314
C            7.35198296806328        0.05531395599519       -2.22612097754105
C            6.82012625573762        1.30202298225922       -2.52630609634133
C            5.77416699010135        1.81095134967946       -1.77264095080715
C            5.27775666193323        1.07584207820504       -0.71119233251026
S            3.91153496791566        1.72161721219977        0.26022657874654
O            3.21992170905167        2.69135817807329       -0.55616798947450
O            4.39084605925211        2.17541132419207        1.53133719401726
C            2.83991710758905        0.30376482236371        0.44876443775632
C            1.50186089906981        0.45948206970199        0.25240459926044
C            0.59408804417288       -0.63709529711355        0.38967750976846
C           -0.79857927692622       -0.47264562264394        0.25014090395257
C           -1.38192288074698        0.74183309840114       -0.25679342448643
C           -2.72300806325688        0.90930663123188       -0.36824905158208
C           -3.62630620563098       -0.12327502347365        0.00176491040657
N           -4.99072793078761        0.05007590967254       -0.10758211541029
C           -5.81171398528497       -1.03436167793890       -0.42027201525403
C           -5.37231956246623       -2.01542151048202       -1.31505167105058
C           -6.18146334421764       -3.09301400446343       -1.61058079745293
C           -7.43333932519883       -3.21317096389766       -1.02474371112422
C           -7.87382870473242       -2.24173129350500       -0.13710736925663
C           -7.07470137899515       -1.15929653617047        0.16728754286270
C           -5.55453039302486        1.31037866476458        0.09838713969489
C           -5.02534430963789        2.16922422768626        1.06711805990231
C           -5.57745633902868        3.41914447619762        1.25756292222181
C           -6.65851971268076        3.83344748525015        0.49316259599921
C           -7.18764377607418        2.98413120428242       -0.46823792252339
C           -6.64448670106733        1.73213311001357       -0.66963730905097
C           -3.07750060211573       -1.33787998617272        0.49164183199502
C           -1.73643005086224       -1.50233178843944        0.61420707077340
C            1.19780194002971       -1.91101406382543        0.68218854896449
C            2.54570498313142       -2.05203543164244        0.84383178992264
C            3.39757590354642       -0.94323545449136        0.75616910533473
H            7.22053332327969       -1.66067690300804       -0.91807063400783
H            8.16464751221110       -0.34111934932691       -2.81587548824636
H            7.21861049886259        1.87567628375696       -3.34933352134677
H            5.32529776925757        2.76791847950080       -1.98802761689166
H            1.15913815963681        1.45165382823593        0.01099211112837
H           -0.73430240806751        1.53163961993725       -0.59742305946343
H           -3.12446665713380        1.81958882190887       -0.78975339257093
H           -4.40626317144004       -1.90750461568693       -1.78514879109993
H           -5.83768377755397       -3.84100028129267       -2.30871381534819
H           -8.06215012335412       -4.05799408314486       -1.25851018306531
H           -8.84399905319864       -2.33432151904907        0.32696603473515
H           -7.40832171076953       -0.41316409697461        0.87313653274282
H           -4.19780037929122        1.83559221316765        1.67502784222000
H           -5.16722124951070        4.07230648029055        2.01244797935263
H           -7.08655480812831        4.81186786941026        0.64554212222168
H           -8.02407333215666        3.30462264851911       -1.07062285243877
H           -7.04251886369164        1.07835800743843       -1.43155998874831
H           -3.75310655843963       -2.11556793160937        0.81799052454036
H           -1.36940690095402       -2.41824607106831        1.04548478722657
H            0.57572330278532       -2.78804776351298        0.74960287326765
H            2.99569178638740       -3.01175152904498        1.04433809427785

 projected vibrational frequencies (cm⁻¹)
eigval :       -0.00    -0.00    -0.00     0.00     0.00     0.00
eigval :       11.00    12.76    23.70    33.27    48.89    53.06
eigval :       55.63    70.81    74.32    82.21    91.64   101.75
eigval :      104.44   116.11   145.48   154.06   165.27   179.94
eigval :      204.93   228.55   232.10   234.71   251.01   268.49
eigval :      276.15   295.16   314.96   316.99   320.70   332.44
eigval :      342.79   377.00   377.31   383.75   388.43   400.89
eigval :      409.93   425.78   430.43   444.58   452.53   470.60
eigval :      486.10   503.58   510.01   518.26   527.37   531.43
eigval :      556.53   575.40   584.87   589.63   601.86   618.43
eigval :      620.21   643.64   645.72   657.00   660.19   675.19
eigval :      676.14   697.55   709.84   754.81   756.97   773.44
eigval :      777.66   785.76   794.75   797.32   824.83   866.82
eigval :      869.93   890.50   892.30   893.45   897.29   900.06
eigval :      901.27   903.52   907.08   919.20   926.42   927.30
eigval :      927.31   927.73   928.23   957.81   974.55   982.97
eigval :      992.64   995.79  1007.79  1069.18  1076.85  1077.87
eigval :     1096.36  1111.33  1120.40  1121.21  1122.85  1136.95
eigval :     1143.13  1144.34  1164.98  1173.65  1175.62  1177.82
eigval :     1177.89  1185.70  1199.14  1212.20  1215.22  1229.79
eigval :     1235.06  1236.44  1251.74  1271.49  1277.06  1277.85
eigval :     1295.76  1315.84  1318.43  1320.96  1329.02  1331.01
eigval :     1349.95  1356.33  1368.11  1403.86  1408.69  1426.06
eigval :     1428.58  1438.92  1441.68  1444.92  1450.94  1458.60
eigval :     1503.41  1529.29  1548.56  1554.17  1558.90  1562.82
eigval :     1572.76  1575.22  1611.20  3075.60  3077.77  3083.90
eigval :     3085.58  3086.27  3086.62  3088.29  3093.37  3094.15
eigval :     3095.34  3097.63  3098.63  3099.31  3106.27  3106.34
eigval :     3107.02  3107.29  3110.04  3114.79  3121.04  3124.86

   temp. (K)  partition function   enthalpy   heat capacity  entropy
                                   cal/mol     cal/K/mol   cal/K/mol   J/K/mol
 298.15  VIB  0.594E+14            18112.333    113.522    112.840
         ROT  0.537E+08              888.752      2.981     38.350
         INT  0.319E+22            19001.085    116.503    151.190
         TR   0.116E+29             1481.254      4.968     44.633
         TOT                       20482.3389   121.4711   195.8232   819.3242

       T/K    H(0)-H(T)+PV         H(T)/Eh          T*S/Eh         G(T)/Eh
   ------------------------------------------------------------------------
    298.15    0.326407E-01    0.453180E+00    0.930419E-01    0.360138E+00
   ------------------------------------------------------------------------

         :::::::::::::::::::::::::::::::::::::::::::::::::::::
         ::                  THERMODYNAMIC                  ::
         :::::::::::::::::::::::::::::::::::::::::::::::::::::
         :: total free energy        -100.129514200066 Eh   ::
         ::.................................................::
         :: total energy             -100.489652081223 Eh   ::
         :: zero point energy           0.420539114201 Eh   ::
         :: G(RRHO) w/o ZPVE           -0.060401233044 Eh   ::
         :: G(RRHO) contrib.            0.360137881157 Eh   ::
         :::::::::::::::::::::::::::::::::::::::::::::::::::::

           -------------------------------------------------
          | TOTAL ENERGY             -100.489652081223 Eh   |
          | TOTAL ENTHALPY           -100.036472282276 Eh   |
          | TOTAL FREE ENERGY        -100.129514200066 Eh   |
          | GRADIENT NORM               0.000052078108 Eh/α |
           -------------------------------------------------

 * finished run on 2025/08/22 at 16:28:35.256
