   * xtb version 6.7.1 (edcfbbe) compiled by 'albert@albert-system' on 2024-07-22

   ID    Z sym.   atoms
    1    6 C      1-64
    2    1 H      65-106

          program call               : xtb data2507/toluene/DPPP/DPPP_toluene_S0_finalOpt.xtbopt.xyz --gfn 2 --uhf 2 --gbsa toluene --ohess vtight --parallel 40 --molden --ceasefiles --namespace data2507/toluene/DPPP/DPPP_toluene_T1_preOpt
      * Solvation model:               GBSA
        Solvent                        toluene
        Solvent mass                       9.2140E+01 g/mol
          :  Hamiltonian                  GFN2-xTB          :
 * total energy  :  -158.4722391 Eh     change       -0.2899498E-08 Eh
 * total energy  :  -158.4786072 Eh     change       -0.6368140E-02 Eh
 * total energy  :  -158.4801997 Eh     change       -0.1592464E-02 Eh
 * total energy  :  -158.4803801 Eh     change       -0.1804793E-03 Eh
 * total energy  :  -158.4806097 Eh     change       -0.2295569E-03 Eh
 * total energy  :  -158.4807383 Eh     change       -0.1286117E-03 Eh
 * total energy  :  -158.4808677 Eh     change       -0.1293924E-03 Eh
 * total energy  :  -158.4809611 Eh     change       -0.9337950E-04 Eh
 * total energy  :  -158.4810076 Eh     change       -0.4649951E-04 Eh
 * total energy  :  -158.4810369 Eh     change       -0.2934367E-04 Eh
 * total energy  :  -158.4812407 Eh     change       -0.2387284E-05 Eh
 * total energy  :  -158.4812425 Eh     change       -0.1791107E-05 Eh
 * total energy  :  -158.4812439 Eh     change       -0.1393428E-05 Eh
 * total energy  :  -158.4812451 Eh     change       -0.1207522E-05 Eh
 * total energy  :  -158.4812462 Eh     change       -0.1078233E-05 Eh
 * total energy  :  -158.4812470 Eh     change       -0.8010275E-06 Eh
 * total energy  :  -158.4812475 Eh     change       -0.5088798E-06 Eh
 * total energy  :  -158.4812479 Eh     change       -0.3547358E-06 Eh
 * total energy  :  -158.4812479 Eh     change       -0.2079616E-08 Eh
   *** GEOMETRY OPTIMIZATION CONVERGED AFTER 44 ITERATIONS ***

 final structure:
================
106
 xtb: 6.7.1 (edcfbbe)
C            0.07289823641894        2.05675012796485        4.71033780077715
C           -0.68092077127937        0.96790256580397        5.11615190475468
C           -1.68064834010014        0.47118566732850        4.29995181644759
C           -1.94700211282117        1.06282446602549        3.06832680995332
C           -2.98668497635436        0.52884977457796        2.17452286537844
C           -3.86516119721247        1.37935212742011        1.51257385295768
C           -4.81786828421788        0.87644237088629        0.63286290914510
C           -5.77237837340138        1.77440780114464       -0.03695753296812
C           -7.10520609907536        1.39914880439198       -0.19418912085336
C           -8.00634663151368        2.23997313788131       -0.82108757499806
C           -7.59048891863686        3.46856976297585       -1.30723994046929
C           -6.26787871004262        3.85214349187889       -1.15761542333231
C           -5.36733986926013        3.01494324895576       -0.52490694108647
C           -4.84014288644508       -0.49081701342957        0.37282099773599
C           -3.95001268013359       -1.35337811322215        1.00127189063789
C           -3.90665946181706       -2.77826481888360        0.62997552217410
C           -5.08506679664229       -3.50741453413102        0.53199090671832
C           -5.07165917633001       -4.85810059531572        0.23027525886080
C           -3.86078674171452       -5.50305702002143        0.02472011472672
C           -2.67971270859034       -4.79572682903714        0.11770436741391
C           -2.67285430814566       -3.42604640337653        0.40136585520824
C           -1.40530929635640       -2.71578122152469        0.50551666906635
C           -0.39961989130183       -3.23621638907689        1.32930539838085
C            0.68677912634563       -2.48735367660341        1.69492072412093
C            0.84139997377456       -1.14590941888780        1.22849055863983
C            1.86701761687605       -0.31687380150348        1.67640956581395
C            2.02625358639720        0.96293455864376        1.16437339064388
C            1.19801005226256        1.43618645723672        0.14707963970811
C            1.41159451051013        2.71333869401012       -0.48739069696841
C            2.68012890526534        3.42215919116626       -0.38463596038044
C            2.69023437639108        4.79061623288395       -0.09582139743226
C            3.87312597253636        5.49487687673758       -0.00190836611487
C            5.08223027035998        4.84799765295603       -0.21172601847638
C            5.09225932744082        3.49869246540977       -0.51981949825734
C            3.91202565377254        2.77276944140544       -0.61916796287895
C            3.94987862404610        1.35009225833655       -0.99934960077690
C            3.05725196259526        0.84476806054039       -1.93942969356453
C            2.97361113530254       -0.52052333579328       -2.18098140549634
C            1.92772377986987       -1.04338432331481       -3.07406917846990
C            1.65933958627760       -0.44175508319903       -4.30041585848403
C            0.65366478772994       -0.92756495808508       -5.11583638409272
C           -0.10424278408150       -2.01517948959609       -4.71434826781853
C            0.15123813090846       -2.61675848481921       -3.49327032174396
C            1.16161282646180       -2.13757586685368       -2.68080960430717
C            3.85135925873878       -1.37897717237903       -1.52848874340807
C            4.81072267955389       -0.88537152335842       -0.65078180784069
C            5.76638107000772       -1.79206963617091        0.00558117696581
C            5.35827412206857       -3.03145519894190        0.49371811116617
C            6.26074252574079       -3.87786154081579        1.11127226609458
C            7.58812102180313       -3.50481273447201        1.24463160970478
C            8.00675795203766       -2.27717066109805        0.75846237964978
C            7.10371859730011       -1.42693601427644        0.14717048828634
C            4.83996375009319        0.47993904980921       -0.38137902258719
C            0.40455104559603        3.23481124783012       -1.30879841998652
C           -0.68121808139240        2.48537385936417       -1.67521718377856
C           -0.83429837728075        1.14296840133855       -1.21095642407964
C           -1.85815628284298        0.31290337623436       -1.66094930133598
C           -2.01690574876950       -0.96719239814074       -1.14951604999134
C           -1.19057589541596       -1.43945769483110       -0.13016624625732
C           -0.08745985537336       -0.64749113780301        0.27992107525041
C            0.09453803732910        0.64449285934377       -0.26240752715608
C           -3.06330668656307       -0.83840666833393        1.94164877983066
C           -1.18481258047910        2.15819267130738        2.67058613137481
C           -0.18058943586938        2.64846545647134        3.48403974479601
H            0.85697360530990        2.44129958647871        5.34642731053785
H           -0.48890917134479        0.50389410484212        6.07327455594016
H           -2.27282955897557       -0.37268333647284        4.62452625366266
H           -3.82903616163245        2.43987642138653        1.71471180301126
H           -7.43996042844839        0.44914465547426        0.19699011185144
H           -9.03813889719730        1.93720876076653       -0.92927949388746
H           -8.29404788022099        4.12420177292220       -1.79948883903863
H           -5.93673493303802        4.80867712362063       -1.53661204404515
H           -4.33517623604976        3.31609983590027       -0.42194117407460
H           -5.52334408750830       -0.87903451561085       -0.36871966933689
H           -6.02541392078857       -3.01087464782695        0.72510058134737
H           -5.99933184903265       -5.40737225273876        0.16492315811086
H           -3.84105290964916       -6.55751395300168       -0.21028063255767
H           -1.73830567843678       -5.29473154480355       -0.06371687944934
H           -0.53730295240623       -4.22148155751692        1.75437113640725
H            1.42228424339406       -2.88249321709456        2.38035344429897
H            2.55139138914718       -0.68032237973111        2.42969819156851
H            2.81279658215467        1.59478617342862        1.54883723523775
H            1.75021123629811        5.29105826239584        0.08874646651348
H            3.85613570975278        6.54844854080894        0.23724065965997
H            6.01121871281223        5.39488590912087       -0.14509791910989
H            6.03117996982029        3.00106036433098       -0.71696452499255
H            2.39260678079000        1.51543188730548       -2.46275275764033
H            2.25450332836375        0.40133204258128       -4.62154441420804
H            0.46010687691060       -0.45587575320419       -6.06888068748046
H           -0.89308117125180       -2.39102164829611       -5.34976318479128
H           -0.44153799218766       -3.46113813567945       -3.17218473326982
H            1.34603537807916       -2.59618422609307       -1.72014781617024
H            3.80989951835714       -2.43813866645892       -1.73674191435164
H            4.32261672899145       -3.32438980217196        0.40257044271445
H            5.92755559999443       -4.83350114293700        1.49071545263288
H            8.29324628861702       -4.16795575439370        1.72443223698856
H            9.04215006767047       -1.98263860066569        0.85425969788679
H            7.43998022501468       -0.47754854999445       -0.24423543022561
H            5.52897116807635        0.86015461071745        0.35895558745489
H            0.54102824359190        4.22104738327067       -1.73202700978412
H           -1.41736428457844        2.88083498134398       -2.35977114305450
H           -2.54143858360097        0.67559530957078       -2.41557704575565
H           -2.80182649604424       -1.59992099582095       -1.53578688351005
H           -2.39785181293799       -1.50296497384743        2.47177035548995
H           -1.36732150698244        2.60891417139797        1.70583202986159
H            0.40900845238867        3.49384785553649        3.15981465423211

          :  Hamiltonian                  GFN2-xTB          :
         :: gradient norm              0.000034890129 Eh/a0 ::
         :: HOMO-LUMO gap              0.993041045646 eV    ::
         :: SCC energy              -161.606072839029 Eh    ::
         :: -> dispersion             -0.177166552351 Eh    ::
         :: -> Gsolv                  -0.056126114612 Eh    ::
         :: repulsion energy           3.124824970668 Eh    ::

    * Orbital Energies and Occupations

         #    Occupation            Energy/Eh            Energy/eV
      -------------------------------------------------------------
         1        2.0000           -0.6516354             -17.7319
       ...           ...                  ...                  ...
       138        2.0000           -0.4015756             -10.9274
       139        2.0000           -0.4002283             -10.8908
       140        2.0000           -0.4000282             -10.8853
       141        2.0000           -0.3964553             -10.7881
       142        2.0000           -0.3952232             -10.7546
       143        2.0000           -0.3931543             -10.6983
       144        2.0000           -0.3896095             -10.6018
       145        2.0000           -0.3820019             -10.3948
       146        2.0000           -0.3813843             -10.3780
       147        2.0000           -0.3808262             -10.3628
       148        2.0000           -0.3767498             -10.2519
       149        1.0000           -0.3476753              -9.4607
       150        1.0000           -0.2855459              -7.7701 (HOMO)
       151                         -0.2490523              -6.7771 (LUMO)
       152                         -0.2474225              -6.7327
       153                         -0.2461526              -6.6982
       154                         -0.2451570              -6.6711
       155                         -0.2338560              -6.3635
       156                         -0.2322082              -6.3187
       157                         -0.2260177              -6.1503
       158                         -0.2254754              -6.1355
       159                         -0.2220968              -6.0436
       160                         -0.2215897              -6.0298
       161                         -0.2215849              -6.0296
       ...                                ...                  ...
       298                          0.7304790              19.8773
      -------------------------------------------------------------
                  HL-Gap            0.0364936 Eh            0.9930 eV

     #   Z          covCN         q      C6AA      α(0)
     1   6 C        2.920    -0.032    28.798     8.800
     2   6 C        2.919    -0.031    28.766     8.795
     3   6 C        2.924    -0.034    28.852     8.809
     4   6 C        2.978     0.009    27.803     8.649
     5   6 C        2.975     0.008    27.839     8.655
     6   6 C        2.930    -0.041    29.014     8.834
     7   6 C        2.973     0.009    27.823     8.652
     8   6 C        2.977     0.010    27.784     8.646
     9   6 C        2.925    -0.034    28.850     8.808
    10   6 C        2.918    -0.031    28.768     8.795
    11   6 C        2.920    -0.032    28.806     8.801
    12   6 C        2.918    -0.031    28.763     8.795
    13   6 C        2.925    -0.033    28.832     8.806
    14   6 C        2.931    -0.041    29.026     8.836
    15   6 C        2.973     0.011    27.769     8.644
    16   6 C        2.978     0.006    27.878     8.661
    17   6 C        2.922    -0.035    28.866     8.811
    18   6 C        2.917    -0.034    28.842     8.807
    19   6 C        2.916    -0.032    28.804     8.801
    20   6 C        2.923    -0.036    28.889     8.814
    21   6 C        2.977     0.009    27.820     8.652
    22   6 C        2.973     0.002    27.981     8.677
    23   6 C        2.912    -0.035    28.865     8.810
    24   6 C        2.914    -0.043    29.066     8.841
    25   6 C        2.979     0.008    27.846     8.656
    26   6 C        2.917    -0.040    28.991     8.829
    27   6 C        2.916    -0.036    28.897     8.815
    28   6 C        2.978     0.009    27.822     8.652
    29   6 C        2.973     0.002    27.979     8.677
    30   6 C        2.977     0.009    27.819     8.652
    31   6 C        2.923    -0.036    28.888     8.814
    32   6 C        2.916    -0.032    28.803     8.801
    33   6 C        2.917    -0.034    28.842     8.807
    34   6 C        2.922    -0.035    28.866     8.811
    35   6 C        2.979     0.006    27.878     8.661
    36   6 C        2.973     0.011    27.769     8.644
    37   6 C        2.932    -0.037    28.925     8.820
    38   6 C        2.975     0.008    27.839     8.655
    39   6 C        2.978     0.009    27.802     8.649
    40   6 C        2.924    -0.034    28.852     8.809
    41   6 C        2.919    -0.031    28.765     8.795
    42   6 C        2.920    -0.032    28.797     8.800
    43   6 C        2.918    -0.029    28.723     8.789
    44   6 C        2.926    -0.031    28.778     8.797
    45   6 C        2.930    -0.041    29.013     8.834
    46   6 C        2.974     0.009    27.823     8.652
    47   6 C        2.977     0.010    27.784     8.646
    48   6 C        2.925    -0.033    28.832     8.806
    49   6 C        2.918    -0.031    28.763     8.795
    50   6 C        2.920    -0.032    28.806     8.801
    51   6 C        2.918    -0.031    28.767     8.795
    52   6 C        2.925    -0.034    28.850     8.808
    53   6 C        2.931    -0.041    29.026     8.835
    54   6 C        2.912    -0.035    28.864     8.810
    55   6 C        2.914    -0.043    29.065     8.840
    56   6 C        2.979     0.008    27.845     8.656
    57   6 C        2.917    -0.040    28.990     8.829
    58   6 C        2.916    -0.036    28.895     8.815
    59   6 C        2.978     0.009    27.822     8.652
    60   6 C        2.996     0.002    27.977     8.677
    61   6 C        2.996     0.002    27.977     8.676
    62   6 C        2.931    -0.037    28.924     8.820
    63   6 C        2.926    -0.031    28.778     8.797
    64   6 C        2.918    -0.029    28.724     8.789
    65   1 H        0.926     0.031     2.569     2.507
    66   1 H        0.926     0.031     2.566     2.505
    67   1 H        0.926     0.031     2.576     2.510
    68   1 H        0.926     0.033     2.544     2.494
    69   1 H        0.926     0.032     2.558     2.501
    70   1 H        0.926     0.031     2.572     2.508
    71   1 H        0.926     0.030     2.579     2.511
    72   1 H        0.926     0.031     2.578     2.511
    73   1 H        0.926     0.031     2.572     2.508
    74   1 H        0.926     0.035     2.522     2.483
    75   1 H        0.926     0.033     2.548     2.496
    76   1 H        0.926     0.031     2.568     2.506
    77   1 H        0.926     0.032     2.562     2.503
    78   1 H        0.926     0.032     2.554     2.499
    79   1 H        0.925     0.031     2.572     2.508
    80   1 H        0.926     0.029     2.606     2.524
    81   1 H        0.926     0.028     2.621     2.532
    82   1 H        0.926     0.028     2.615     2.529
    83   1 H        0.926     0.032     2.554     2.499
    84   1 H        0.926     0.032     2.561     2.503
    85   1 H        0.926     0.031     2.568     2.506
    86   1 H        0.926     0.033     2.548     2.496
    87   1 H        0.926     0.031     2.579     2.511
    88   1 H        0.926     0.031     2.576     2.510
    89   1 H        0.926     0.031     2.565     2.505
    90   1 H        0.926     0.031     2.569     2.506
    91   1 H        0.926     0.030     2.593     2.518
    92   1 H        0.926     0.027     2.633     2.537
    93   1 H        0.926     0.033     2.545     2.495
    94   1 H        0.926     0.031     2.573     2.508
    95   1 H        0.926     0.031     2.578     2.511
    96   1 H        0.926     0.031     2.579     2.511
    97   1 H        0.926     0.031     2.572     2.508
    98   1 H        0.926     0.032     2.559     2.502
    99   1 H        0.926     0.035     2.522     2.484
   100   1 H        0.925     0.031     2.572     2.508
   101   1 H        0.926     0.029     2.606     2.524
   102   1 H        0.926     0.027     2.622     2.532
   103   1 H        0.926     0.028     2.614     2.528
   104   1 H        0.926     0.030     2.580     2.512
   105   1 H        0.926     0.027     2.632     2.537
   106   1 H        0.926     0.030     2.593     2.518

molecular dipole:
                 x           y           z       tot (Debye)
 q only:        0.003       0.002      -0.003
   full:        0.003       0.002      -0.003       0.011

 projected vibrational frequencies (cm⁻¹)
eigval :       -0.00    -0.00    -0.00    -0.00     0.00     0.00
eigval :        7.60     7.92    10.66    20.62    22.05    30.70
eigval :       32.32    37.23    40.98    44.24    46.77    50.86
eigval :       52.04    52.97    55.53    59.01    60.01    78.90
eigval :       85.25    94.55   112.19   117.04   119.78   121.63
eigval :      125.22   141.62   162.61   170.65   186.53   193.58
eigval :      194.12   208.41   226.83   227.57   253.20   253.80
eigval :      258.20   265.58   269.26   269.95   284.11   287.70
eigval :      291.71   305.85   307.05   322.58   345.87   356.36
eigval :      364.42   369.57   370.19   371.98   372.72   374.79
eigval :      375.70   379.64   386.95   394.57   406.46   410.48
eigval :      431.34   450.93   472.89   480.85   481.97   483.19
eigval :      490.49   492.73   504.87   509.94   534.60   536.06
eigval :      552.26   553.23   560.61   580.76   580.88   583.41
eigval :      583.51   585.24   585.55   585.77   589.29   599.02
eigval :      604.90   606.65   608.26   616.84   619.53   633.68
eigval :      644.11   647.61   663.49   664.96   665.08   672.60
eigval :      672.88   674.85   679.91   681.79   686.86   707.82
eigval :      709.46   718.30   736.61   741.54   751.81   752.35
eigval :      761.82   762.18   767.37   772.42   778.67   787.88
eigval :      805.95   817.86   820.12   826.17   826.59   828.43
eigval :      828.70   839.66   840.02   873.25   873.55   875.79
eigval :      876.08   876.70   878.86   879.97   886.89   887.64
eigval :      891.30   892.02   897.91   898.20   901.83   902.19
eigval :      904.08   904.47   905.65   906.16   915.27   916.11
eigval :      924.88   925.15   926.54   926.71   927.82   928.89
eigval :      929.99   930.10   930.65   931.02   950.03   953.26
eigval :      976.61   985.03   985.09   989.45   989.83   992.17
eigval :     1041.83  1059.59  1080.40  1083.58  1083.72  1085.24
eigval :     1088.69  1095.15  1097.62  1108.76  1119.15  1119.29
eigval :     1119.92  1121.13  1121.36  1122.92  1123.31  1126.96
eigval :     1138.83  1148.44  1155.98  1156.05  1168.38  1179.98
eigval :     1180.42  1180.59  1180.83  1181.08  1181.52  1198.38
eigval :     1198.78  1200.97  1201.03  1202.04  1207.04  1221.73
eigval :     1228.03  1231.42  1232.80  1242.79  1242.95  1249.55
eigval :     1250.16  1251.55  1252.50  1267.75  1276.02  1280.33
eigval :     1280.64  1281.64  1281.79  1307.18  1307.87  1313.49
eigval :     1315.19  1316.12  1317.63  1317.98  1320.24  1322.93
eigval :     1324.10  1336.81  1341.43  1351.52  1351.93  1381.46
eigval :     1385.96  1388.69  1406.83  1411.13  1413.10  1415.84
eigval :     1417.06  1426.18  1429.35  1434.16  1435.63  1438.25
eigval :     1441.05  1453.51  1454.00  1462.28  1468.79  1483.24
eigval :     1483.29  1485.19  1485.40  1488.14  1510.73  1516.63
eigval :     1520.68  1541.59  1541.95  1566.72  1571.18  1572.19
eigval :     1575.29  1575.55  1576.01  1577.78  1581.69  1581.71
eigval :     1583.87  1583.96  1598.65  1598.68  1600.38  1600.45
eigval :     3058.38  3058.62  3063.76  3064.58  3065.73  3065.78
eigval :     3067.50  3067.54  3068.11  3068.15  3068.93  3068.98
eigval :     3069.54  3069.77  3070.39  3070.52  3074.54  3074.63
eigval :     3076.28  3076.33  3077.27  3077.42  3077.70  3077.84
eigval :     3078.42  3078.59  3078.94  3079.38  3081.14  3081.18
eigval :     3082.45  3082.57  3086.66  3087.56  3087.63  3088.22
eigval :     3088.54  3088.60  3088.83  3089.36  3090.82  3091.23

   temp. (K)  partition function   enthalpy   heat capacity  entropy
                                   cal/mol     cal/K/mol   cal/K/mol   J/K/mol
 298.15  VIB  0.172E+25            30117.611    189.956    188.739
         ROT  0.120E+09              888.752      2.981     39.943
         INT  0.206E+33            31006.363    192.937    228.682
         TR   0.223E+29             1481.254      4.968     45.936
         TOT                       32487.6170   197.9051   274.6179  1149.0013

       T/K    H(0)-H(T)+PV         H(T)/Eh          T*S/Eh         G(T)/Eh
   ------------------------------------------------------------------------
    298.15    0.517723E-01    0.873910E+00    0.130480E+00    0.743430E+00
   ------------------------------------------------------------------------

         :::::::::::::::::::::::::::::::::::::::::::::::::::::
         ::                  THERMODYNAMIC                  ::
         :::::::::::::::::::::::::::::::::::::::::::::::::::::
         :: total free energy        -157.737818103361 Eh   ::
         ::.................................................::
         :: total energy             -158.481247869169 Eh   ::
         :: zero point energy           0.822137273596 Eh   ::
         :: G(RRHO) w/o ZPVE           -0.078707507788 Eh   ::
         :: G(RRHO) contrib.            0.743429765808 Eh   ::
         :::::::::::::::::::::::::::::::::::::::::::::::::::::

           -------------------------------------------------
          | TOTAL ENERGY             -158.481247869169 Eh   |
          | TOTAL ENTHALPY           -157.607338282492 Eh   |
          | TOTAL FREE ENERGY        -157.737818103361 Eh   |
          | GRADIENT NORM               0.000034886012 Eh/α |
          | HOMO-LUMO GAP               0.993040854663 eV   |
           -------------------------------------------------

 * finished run on 2025/09/10 at 11:15:26.470
