   * xtb version 6.7.1 (edcfbbe) compiled by 'albert@albert-system' on 2024-07-22

   ID    Z sym.   atoms
    1    6 C      1-64
    2    1 H      65-106

          program call               : xtb data2507/toluene/DPPP/DPPP_toluene_T1_crest.xyz --gfn 2 --uhf 2 --gbsa toluene --ohess vtight --parallel 40 --molden --ceasefiles --namespace data2507/toluene/DPPP/DPPP_toluene_T1_finalOpt
      * Solvation model:               GBSA
        Solvent                        toluene
        Solvent mass                       9.2140E+01 g/mol
          :  Hamiltonian                  GFN2-xTB          :
 * total energy  :  -158.4797419 Eh     change       -0.1910277E-07 Eh
 * total energy  :  -158.4797992 Eh     change       -0.5725658E-04 Eh
 * total energy  :  -158.4798936 Eh     change       -0.9448078E-04 Eh
 * total energy  :  -158.4799469 Eh     change       -0.5328519E-04 Eh
 * total energy  :  -158.4801001 Eh     change       -0.1532238E-03 Eh
 * total energy  :  -158.4802455 Eh     change       -0.1453492E-03 Eh
 * total energy  :  -158.4803715 Eh     change       -0.1259908E-03 Eh
 * total energy  :  -158.4804744 Eh     change       -0.1028717E-03 Eh
 * total energy  :  -158.4805620 Eh     change       -0.8760783E-04 Eh
 * total energy  :  -158.4806462 Eh     change       -0.8421726E-04 Eh
 * total energy  :  -158.4812437 Eh     change       -0.7824679E-06 Eh
 * total energy  :  -158.4812446 Eh     change       -0.8694700E-06 Eh
 * total energy  :  -158.4812455 Eh     change       -0.9185629E-06 Eh
 * total energy  :  -158.4812463 Eh     change       -0.7926601E-06 Eh
 * total energy  :  -158.4812468 Eh     change       -0.5429296E-06 Eh
 * total energy  :  -158.4812472 Eh     change       -0.3977195E-06 Eh
 * total energy  :  -158.4812476 Eh     change       -0.3668152E-06 Eh
 * total energy  :  -158.4812479 Eh     change       -0.3317735E-06 Eh
 * total energy  :  -158.4812479 Eh     change       -0.4507484E-08 Eh
   *** GEOMETRY OPTIMIZATION CONVERGED AFTER 94 ITERATIONS ***

 final structure:
================
106
 xtb: 6.7.1 (edcfbbe)
C            0.10872460902230        2.01567903094537        4.70769552120363
C           -0.64925554567433        0.92835869894818        5.10981561128268
C           -1.65631496291457        0.44345892308587        4.29559374694685
C           -1.92589008203159        1.04542077421314        3.06962166610373
C           -2.97221658458557        0.52227240577724        2.17725983768468
C           -3.84803681680744        1.38029782528360        1.52149533554316
C           -4.80697288878562        0.88589380205811        0.64373910377783
C           -5.75931543529218        1.79170069938280       -0.01863012428746
C           -7.09609617853564        1.42667962573076       -0.16589507154535
C           -7.99555299700907        2.27494550041403       -0.78513471751661
C           -7.57387226549617        3.50058540363128       -1.27372427816395
C           -6.24717161631463        3.87378023212387       -1.13429575930956
C           -5.34832240890535        3.02934131828232       -0.50880409628233
C           -4.83841806346895       -0.48022180681546        0.37861616062913
C           -3.95059753485474       -1.35002694837156        1.00017234778300
C           -3.91549835643474       -2.77393492488062        0.62439663302367
C           -5.09723205812507       -3.49810744287078        0.53083252271508
C           -5.09038853860545       -4.84858288535778        0.22784582237225
C           -3.88291084825518       -5.49805457655364        0.01660131407144
C           -2.69859770598202       -4.79541687836598        0.10435368864805
C           -2.68517665334889       -3.42599705387565        0.38886394599628
C           -1.41526457441892       -2.71925565325249        0.48777025173647
C           -0.40695854085552       -3.24233120834050        1.30672112246440
C            0.68022659576293       -2.49427220278608        1.67160441682141
C            0.83286048177256       -1.15107640909609        1.20943170545068
C            1.85718665488828       -0.32174432346591        1.65969663010135
C            2.01415452515065        0.95994110626324        1.15175746399632
C            1.18616314336791        1.43446827330593        0.13477312891560
C            1.39887526049493        2.71289523003517       -0.49744837863701
C            2.66578416528729        3.42426881356645       -0.39316345162631
C            2.67200005594387        4.79368305418260       -0.10800622828485
C            3.85268625057042        5.50169149158131       -0.01512894855699
C            5.06391513487325        4.85783096665250       -0.22203400435303
C            5.07798548370546        3.50753792110359       -0.52542701544147
C            3.89996866986988        2.77785318262192       -0.62366246754558
C            3.94404543654211        1.35385890957172       -0.99811333480707
C            3.05738763598274        0.84091546787315       -1.93956280769098
C            2.98143821162232       -0.52574966323631       -2.17603288745421
C            1.94070304963238       -1.05693994626620       -3.07023964752545
C            1.67223723041570       -0.46038235498345       -4.29904850160447
C            0.67031585411413       -0.95302784449745       -5.11498362811306
C           -0.08360380349724       -2.04275010945586       -4.71170032373918
C            0.17222790713934       -2.63961442609434       -3.48838543711885
C            1.17867369589427       -2.15338533383816       -2.67522314765710
C            3.86085103275697       -1.37747312400817       -1.51692451407475
C            4.81340667015406       -0.87641024991488       -0.63589674258358
C            5.76885594844240       -1.77531199274325        0.03126215205847
C            5.36648726512448       -3.01986235872510        0.51120272192530
C            6.26811188663050       -3.85805225135605        1.14105050689366
C            7.58912682659811       -3.47126730673916        1.29634948651772
C            8.00228559799065       -2.23844572637291        0.81867078515801
C            7.10015124203709       -1.39690065926866        0.19420400779432
C            4.83461745808253        0.49016173344399       -0.37196955196918
C            0.39174895694264        3.23438381432100       -1.31887950815250
C           -0.69382546063746        2.48510311982633       -1.68600618724752
C           -0.84651165174953        1.14222586859242       -1.22318632081882
C           -1.87129182325809        0.31309202832304       -1.67284878376324
C           -2.02975451776500       -0.96763793975735       -1.16292814770307
C           -1.20127359617163       -1.44192910664108       -0.14632068048352
C           -0.09738101518746       -0.65080873780973        0.26324191934980
C            0.08343880657117        0.64247846084771       -0.27639801482213
C           -3.05766470862366       -0.84357147181988        1.93923710381033
C           -1.15982859307030        2.13948951073524        2.67588624871669
C           -0.14825250354175        2.61793603545995        3.48728093737913
H            0.89877672714210        2.39073369162242        5.34206379978471
H           -0.45460671221508        0.45613536586309        6.06237255996977
H           -2.25150709641063       -0.39935208652990        4.61737307866192
H           -3.80516462189563        2.43994468156706        1.72694762709157
H           -7.43489029563397        0.47885422236052        0.22710160141153
H           -9.03047788927682        1.98029459471538       -0.88551833374396
H           -8.27610654607983        4.16202104557521       -1.76007301826910
H           -5.91161010560519        4.82791061343656       -1.51544811933428
H           -4.31312343032257        3.32239668074899       -0.41314291276636
H           -5.52708057102304       -0.86163838496876       -0.36141445294758
H           -6.03465717201729       -2.99796005184469        0.72880119827968
H           -6.02044607672712       -5.39424960129625        0.16630330335935
H           -3.86833820996338       -6.55252944151047       -0.21869244703406
H           -1.76009428942338       -5.29814912745509       -0.08168905393506
H           -0.54345082665028       -4.22876815383253        1.72944652447054
H            1.41752773757758       -2.89122812776138        2.35405208733640
H            2.54199136085768       -0.68614910374488        2.41211828299708
H            2.79892182927038        1.59224065864920        1.53902631598764
H            1.73051290603504        5.29209528379747        0.07460311108889
H            3.83238813084704        6.55594218265788        0.22074715344813
H            5.99125757048430        5.40766934447080       -0.15674000201027
H            6.01845377137873        3.01176292663075       -0.71992408476564
H            2.39120122191830        1.50646221893119       -2.46750386685419
H            2.26436252211219        0.38431802764947       -4.62155569475791
H            0.47656599162330       -0.48500181189391       -6.06979827885611
H           -0.86960017640207       -2.42393698134556       -5.34744347195840
H           -0.41746360293011       -3.48567484712701       -3.16605267106652
H            1.36292768475598       -2.60810655071480       -1.71268091428211
H            3.82540683970175       -2.43739898471360       -1.72223573055563
H            4.33546361861113       -3.32354799942995        0.40435809336869
H            5.93901260325641       -4.81788215343717        1.51343943398688
H            8.29354654223535       -4.12767401588686        1.78632362572347
H            9.03280706481079       -1.93300834773504        0.93137568651709
H            7.43314449041301       -0.44370371780399       -0.19063098892216
H            5.51730811861687        0.87692198307290        0.37078461576710
H            0.52769300525621        4.22111869122621       -1.74107739204783
H           -1.43038469117268        2.88127734268813       -2.36970950562561
H           -2.55580029834023        0.67730240471471       -2.42563630199328
H           -2.81608101908031       -1.59927611182665       -1.54819016667162
H           -2.39407063532303       -1.51398305939642        2.46425533896452
H           -1.34511442806056        2.59854756108473        1.71561715114514
H            0.44446676091352        3.46219416297990        3.16585627484302

          :  Hamiltonian                  GFN2-xTB          :
         :: gradient norm              0.000049073790 Eh/a0 ::
         :: HOMO-LUMO gap              0.993492183167 eV    ::
         :: SCC energy              -161.606069507222 Eh    ::
         :: -> dispersion             -0.177301250259 Eh    ::
         :: -> Gsolv                  -0.056059377301 Eh    ::
         :: repulsion energy           3.124821558466 Eh    ::

    * Orbital Energies and Occupations

         #    Occupation            Energy/Eh            Energy/eV
      -------------------------------------------------------------
         1        2.0000           -0.6516293             -17.7317
       ...           ...                  ...                  ...
       138        2.0000           -0.4015690             -10.9272
       139        2.0000           -0.4002264             -10.8907
       140        2.0000           -0.4000307             -10.8854
       141        2.0000           -0.3964297             -10.7874
       142        2.0000           -0.3952155             -10.7544
       143        2.0000           -0.3931258             -10.6975
       144        2.0000           -0.3895979             -10.6015
       145        2.0000           -0.3819935             -10.3946
       146        2.0000           -0.3813527             -10.3771
       147        2.0000           -0.3807872             -10.3617
       148        2.0000           -0.3767219             -10.2511
       149        1.0000           -0.3476622              -9.4604
       150        1.0000           -0.2855767              -7.7709 (HOMO)
       151                         -0.2490665              -6.7774 (LUMO)
       152                         -0.2474635              -6.7338
       153                         -0.2461641              -6.6985
       154                         -0.2452003              -6.6722
       155                         -0.2338520              -6.3634
       156                         -0.2322502              -6.3198
       157                         -0.2260137              -6.1501
       158                         -0.2254749              -6.1355
       159                         -0.2221070              -6.0438
       160                         -0.2215895              -6.0298
       161                         -0.2215809              -6.0295
       ...                                ...                  ...
       298                          0.7304639              19.8769
      -------------------------------------------------------------
                  HL-Gap            0.0365102 Eh            0.9935 eV

     #   Z          covCN         q      C6AA      α(0)
     1   6 C        2.920    -0.032    28.797     8.800
     2   6 C        2.918    -0.031    28.766     8.795
     3   6 C        2.924    -0.034    28.852     8.809
     4   6 C        2.978     0.009    27.803     8.649
     5   6 C        2.974     0.008    27.839     8.655
     6   6 C        2.930    -0.041    29.013     8.834
     7   6 C        2.974     0.009    27.823     8.652
     8   6 C        2.977     0.010    27.784     8.646
     9   6 C        2.925    -0.034    28.850     8.808
    10   6 C        2.918    -0.031    28.767     8.795
    11   6 C        2.920    -0.032    28.806     8.801
    12   6 C        2.918    -0.031    28.763     8.795
    13   6 C        2.925    -0.033    28.832     8.806
    14   6 C        2.931    -0.041    29.025     8.835
    15   6 C        2.973     0.011    27.769     8.644
    16   6 C        2.979     0.006    27.878     8.661
    17   6 C        2.922    -0.035    28.865     8.811
    18   6 C        2.917    -0.034    28.842     8.807
    19   6 C        2.916    -0.032    28.803     8.801
    20   6 C        2.923    -0.036    28.888     8.814
    21   6 C        2.977     0.009    27.819     8.652
    22   6 C        2.973     0.002    27.980     8.677
    23   6 C        2.912    -0.035    28.864     8.810
    24   6 C        2.914    -0.043    29.065     8.840
    25   6 C        2.979     0.008    27.846     8.656
    26   6 C        2.917    -0.040    28.990     8.829
    27   6 C        2.916    -0.036    28.895     8.815
    28   6 C        2.978     0.009    27.821     8.652
    29   6 C        2.973     0.002    27.981     8.677
    30   6 C        2.977     0.009    27.820     8.652
    31   6 C        2.923    -0.036    28.889     8.814
    32   6 C        2.916    -0.032    28.804     8.801
    33   6 C        2.917    -0.034    28.842     8.807
    34   6 C        2.922    -0.035    28.866     8.811
    35   6 C        2.979     0.006    27.878     8.661
    36   6 C        2.973     0.011    27.769     8.644
    37   6 C        2.932    -0.037    28.924     8.820
    38   6 C        2.975     0.008    27.840     8.655
    39   6 C        2.978     0.009    27.803     8.649
    40   6 C        2.924    -0.034    28.852     8.809
    41   6 C        2.918    -0.031    28.766     8.795
    42   6 C        2.920    -0.032    28.798     8.800
    43   6 C        2.918    -0.029    28.724     8.789
    44   6 C        2.926    -0.031    28.778     8.797
    45   6 C        2.930    -0.041    29.014     8.834
    46   6 C        2.973     0.009    27.823     8.652
    47   6 C        2.977     0.010    27.785     8.646
    48   6 C        2.925    -0.033    28.833     8.806
    49   6 C        2.918    -0.031    28.763     8.795
    50   6 C        2.920    -0.032    28.806     8.801
    51   6 C        2.918    -0.031    28.768     8.795
    52   6 C        2.925    -0.034    28.850     8.808
    53   6 C        2.931    -0.041    29.026     8.836
    54   6 C        2.912    -0.035    28.865     8.810
    55   6 C        2.914    -0.043    29.065     8.840
    56   6 C        2.979     0.008    27.846     8.656
    57   6 C        2.917    -0.040    28.990     8.829
    58   6 C        2.916    -0.036    28.896     8.815
    59   6 C        2.978     0.009    27.822     8.652
    60   6 C        2.996     0.002    27.977     8.677
    61   6 C        2.996     0.002    27.977     8.677
    62   6 C        2.932    -0.037    28.925     8.820
    63   6 C        2.926    -0.031    28.778     8.797
    64   6 C        2.918    -0.029    28.723     8.789
    65   1 H        0.926     0.031     2.569     2.507
    66   1 H        0.926     0.031     2.566     2.505
    67   1 H        0.926     0.031     2.576     2.510
    68   1 H        0.926     0.033     2.544     2.494
    69   1 H        0.926     0.032     2.559     2.501
    70   1 H        0.926     0.031     2.572     2.508
    71   1 H        0.926     0.031     2.579     2.511
    72   1 H        0.926     0.031     2.578     2.511
    73   1 H        0.926     0.031     2.573     2.508
    74   1 H        0.926     0.035     2.522     2.484
    75   1 H        0.926     0.033     2.548     2.496
    76   1 H        0.926     0.031     2.568     2.506
    77   1 H        0.926     0.032     2.561     2.503
    78   1 H        0.926     0.032     2.554     2.499
    79   1 H        0.925     0.031     2.571     2.507
    80   1 H        0.926     0.029     2.606     2.524
    81   1 H        0.926     0.027     2.622     2.532
    82   1 H        0.926     0.028     2.614     2.528
    83   1 H        0.926     0.032     2.554     2.499
    84   1 H        0.926     0.032     2.562     2.503
    85   1 H        0.926     0.031     2.569     2.506
    86   1 H        0.926     0.033     2.549     2.496
    87   1 H        0.926     0.030     2.580     2.512
    88   1 H        0.926     0.031     2.576     2.510
    89   1 H        0.926     0.031     2.566     2.505
    90   1 H        0.926     0.031     2.569     2.507
    91   1 H        0.926     0.030     2.593     2.518
    92   1 H        0.926     0.027     2.632     2.537
    93   1 H        0.926     0.033     2.544     2.494
    94   1 H        0.926     0.031     2.572     2.508
    95   1 H        0.926     0.031     2.578     2.511
    96   1 H        0.926     0.030     2.579     2.511
    97   1 H        0.926     0.031     2.572     2.508
    98   1 H        0.926     0.032     2.558     2.501
    99   1 H        0.926     0.035     2.522     2.483
   100   1 H        0.925     0.031     2.571     2.508
   101   1 H        0.926     0.029     2.606     2.524
   102   1 H        0.926     0.028     2.621     2.532
   103   1 H        0.926     0.028     2.614     2.529
   104   1 H        0.926     0.030     2.580     2.512
   105   1 H        0.926     0.027     2.632     2.537
   106   1 H        0.926     0.030     2.593     2.518

molecular dipole:
                 x           y           z       tot (Debye)
 q only:       -0.001      -0.001       0.002
   full:       -0.002      -0.001       0.002       0.008

 projected vibrational frequencies (cm⁻¹)
eigval :       -0.00    -0.00     0.00     0.00     0.00     0.00
eigval :        8.33     9.09    12.01    21.39    23.72    31.47
eigval :       33.95    37.69    42.31    46.17    47.28    51.68
eigval :       52.69    53.36    55.81    58.81    60.01    78.92
eigval :       85.10    94.68   112.51   117.35   120.00   121.90
eigval :      125.25   141.51   162.55   170.71   186.56   193.66
eigval :      194.23   208.48   227.03   227.84   253.29   253.97
eigval :      258.35   265.63   269.27   270.10   284.08   287.91
eigval :      291.69   305.77   307.14   322.59   345.93   356.55
eigval :      364.52   369.78   370.75   372.01   373.01   374.94
eigval :      376.06   379.75   387.01   394.49   406.45   410.51
eigval :      431.54   450.96   472.87   480.89   482.14   483.42
eigval :      490.47   492.68   505.08   509.87   534.58   536.03
eigval :      552.30   553.25   560.60   580.78   581.01   583.50
eigval :      583.53   585.25   585.56   585.82   589.30   598.98
eigval :      604.91   606.58   608.13   616.81   619.68   633.69
eigval :      644.15   647.64   663.51   664.91   665.47   672.79
eigval :      673.19   674.89   680.00   681.88   686.85   707.69
eigval :      709.37   718.27   736.60   741.55   752.29   752.84
eigval :      762.35   762.65   768.33   772.78   779.14   788.94
eigval :      805.95   818.39   820.66   826.20   826.64   828.45
eigval :      828.71   839.48   840.26   873.42   873.48   876.15
eigval :      876.50   876.92   879.22   880.10   887.12   887.95
eigval :      891.15   892.35   898.20   898.30   902.12   902.84
eigval :      904.26   904.49   905.76   906.49   915.69   915.89
eigval :      924.96   925.20   926.58   926.86   928.19   929.52
eigval :      930.33   930.52   931.29   931.45   950.06   953.30
eigval :      976.63   985.06   985.12   989.48   989.86   992.17
eigval :     1041.87  1059.59  1080.46  1083.72  1083.85  1085.37
eigval :     1088.74  1095.15  1097.66  1108.89  1119.36  1119.40
eigval :     1120.05  1121.41  1121.49  1122.95  1123.44  1127.08
eigval :     1139.00  1148.50  1156.03  1156.14  1168.38  1180.28
eigval :     1180.38  1180.62  1180.83  1181.32  1181.62  1198.68
eigval :     1199.02  1201.16  1201.24  1202.05  1207.06  1221.85
eigval :     1228.11  1231.53  1232.94  1242.90  1243.03  1249.68
eigval :     1250.58  1251.66  1252.56  1267.71  1275.93  1280.58
eigval :     1280.84  1281.80  1281.98  1307.17  1307.87  1313.52
eigval :     1315.24  1316.18  1317.69  1318.03  1320.32  1323.01
eigval :     1324.17  1336.80  1341.40  1351.53  1351.94  1381.47
eigval :     1385.92  1388.62  1406.84  1411.17  1413.09  1415.83
eigval :     1417.04  1426.20  1429.42  1434.20  1435.66  1438.31
eigval :     1441.09  1453.57  1454.01  1462.27  1468.81  1483.26
eigval :     1483.34  1485.30  1485.42  1488.23  1510.80  1516.63
eigval :     1520.69  1541.54  1541.89  1566.66  1571.22  1572.24
eigval :     1575.29  1575.55  1575.96  1577.72  1581.69  1581.83
eigval :     1583.91  1583.98  1598.64  1598.67  1600.42  1600.46
eigval :     3058.33  3058.57  3064.48  3064.59  3065.76  3065.91
eigval :     3067.54  3067.73  3068.07  3068.13  3068.95  3069.17
eigval :     3069.59  3069.76  3070.36  3070.44  3074.60  3074.72
eigval :     3076.34  3076.66  3077.28  3077.42  3077.73  3077.95
eigval :     3078.53  3078.78  3079.13  3079.50  3081.20  3081.40
eigval :     3082.61  3082.85  3086.69  3087.56  3087.60  3088.31
eigval :     3088.66  3088.68  3088.95  3089.42  3090.87  3091.03

   temp. (K)  partition function   enthalpy   heat capacity  entropy
                                   cal/mol     cal/K/mol   cal/K/mol   J/K/mol
 298.15  VIB  0.899E+24            30091.108    190.099    188.228
         ROT  0.119E+09              888.752      2.981     39.940
         INT  0.107E+33            30979.860    193.080    228.168
         TR   0.223E+29             1481.254      4.968     45.936
         TOT                       32461.1139   198.0478   274.1048  1146.8543

       T/K    H(0)-H(T)+PV         H(T)/Eh          T*S/Eh         G(T)/Eh
   ------------------------------------------------------------------------
    298.15    0.517301E-01    0.873970E+00    0.130236E+00    0.743734E+00
   ------------------------------------------------------------------------

         :::::::::::::::::::::::::::::::::::::::::::::::::::::
         ::                  THERMODYNAMIC                  ::
         :::::::::::::::::::::::::::::::::::::::::::::::::::::
         :: total free energy        -157.737513875658 Eh   ::
         ::.................................................::
         :: total energy             -158.481247948694 Eh   ::
         :: zero point energy           0.822240009717 Eh   ::
         :: G(RRHO) w/o ZPVE           -0.078505936682 Eh   ::
         :: G(RRHO) contrib.            0.743734073035 Eh   ::
         :::::::::::::::::::::::::::::::::::::::::::::::::::::

           -------------------------------------------------
          | TOTAL ENERGY             -158.481247948694 Eh   |
          | TOTAL ENTHALPY           -157.607277861213 Eh   |
          | TOTAL FREE ENERGY        -157.737513875658 Eh   |
          | GRADIENT NORM               0.000049065009 Eh/α |
          | HOMO-LUMO GAP               0.993492097001 eV   |
           -------------------------------------------------

 * finished run on 2025/09/10 at 11:24:20.543
