   * xtb version 6.7.1 (edcfbbe) compiled by 'albert@albert-system' on 2024-07-22

   ID    Z sym.   atoms
    1    6 C      1-64
    2    1 H      65-106

          program call               : xtb data2507/toluene/DPPP/DPPP_toluene_S0_crest.xyz --gfn 2 --gbsa toluene --ohess vtight --parallel 40 --molden --ceasefiles --namespace data2507/toluene/DPPP/DPPP_toluene_S0_finalOpt
      * Solvation model:               GBSA
        Solvent                        toluene
        Solvent mass                       9.2140E+01 g/mol
          :  Hamiltonian                  GFN2-xTB          :
 * total energy  :  -158.5494636 Eh     change       -0.2390408E-08 Eh
 * total energy  :  -158.5495244 Eh     change       -0.6082042E-04 Eh
 * total energy  :  -158.5496298 Eh     change       -0.1053303E-03 Eh
 * total energy  :  -158.5496905 Eh     change       -0.6072927E-04 Eh
 * total energy  :  -158.5498183 Eh     change       -0.1277742E-03 Eh
 * total energy  :  -158.5500743 Eh     change       -0.2560081E-03 Eh
 * total energy  :  -158.5502736 Eh     change       -0.1993663E-03 Eh
 * total energy  :  -158.5504343 Eh     change       -0.1607062E-03 Eh
 * total energy  :  -158.5505669 Eh     change       -0.1325797E-03 Eh
 * total energy  :  -158.5506757 Eh     change       -0.1087790E-03 Eh
 * total energy  :  -158.5518489 Eh     change       -0.6964277E-06 Eh
 * total energy  :  -158.5518496 Eh     change       -0.7061289E-06 Eh
 * total energy  :  -158.5518504 Eh     change       -0.8171046E-06 Eh
 * total energy  :  -158.5518513 Eh     change       -0.8723134E-06 Eh
 * total energy  :  -158.5518521 Eh     change       -0.8263557E-06 Eh
 * total energy  :  -158.5518528 Eh     change       -0.7048958E-06 Eh
 * total energy  :  -158.5518533 Eh     change       -0.5386985E-06 Eh
 * total energy  :  -158.5518538 Eh     change       -0.4683917E-06 Eh
 * total energy  :  -158.5518538 Eh     change       -0.2587598E-08 Eh
   *** GEOMETRY OPTIMIZATION CONVERGED AFTER 68 ITERATIONS ***

 final structure:
================
106
 xtb: 6.7.1 (edcfbbe)
C           -0.10438012433371        2.12619331289829        4.87383477916577
C           -0.85804744286871        1.03511495112173        5.27400027224953
C           -1.83828388387314        0.52430122665220        4.44289799098755
C           -2.08497712652887        1.10340063537578        3.20132751763987
C           -3.09920681272239        0.55073545673308        2.28949897198876
C           -3.97131968608472        1.38570465931812        1.59981796141600
C           -4.89476310314904        0.86439587393313        0.70042738192886
C           -5.83799577681046        1.74645676839782       -0.00593243713912
C           -7.16757199137101        1.36796723407266       -0.17913410645981
C           -8.05588232958681        2.19458382305043       -0.84241407409118
C           -7.62937427027063        3.41097383399568       -1.34958558919844
C           -6.30907490395557        3.79660996442962       -1.18553489316554
C           -5.42132965669313        2.97365300639691       -0.51692807847811
C           -4.89399025465809       -0.50456566682591        0.45104673363844
C           -4.00727980944752       -1.35094669202101        1.10636776284052
C           -3.93309092009924       -2.77381420213313        0.72323943215677
C           -5.09586607413445       -3.52818675631288        0.60867973145872
C           -5.05165160846422       -4.85738412809549        0.22794395864065
C           -3.83302959719292       -5.45275179961211       -0.05129088457573
C           -2.66747750098489       -4.71616865064049        0.06051893417588
C           -2.69678940206151       -3.37854358262673        0.44056456245387
C           -1.43386943909500       -2.63246993147991        0.60271665293429
C           -0.49104238386490       -3.11865020517795        1.50474037095998
C            0.62842796310849       -2.38427188930589        1.83763004542886
C            0.83739101153738       -1.11817801621063        1.28786133069522
C            1.92146205220992       -0.28726059929396        1.68878334403060
C            2.11874851620122        0.92787691120590        1.12922280273381
C            1.25736941809366        1.41941223647139        0.10530635863010
C            1.49137214098803        2.64271126229900       -0.54803099344132
C            2.76273833593306        3.37698101174108       -0.39756539351813
C            2.75599138705265        4.70977930008166       -0.00125802159021
C            3.93310320487147        5.42926687064803        0.10241964710638
C            5.13963159976649        4.82113451835866       -0.20071708889866
C            5.16103750494929        3.49657429280597       -0.59972848023744
C            3.98662308930063        2.75994916619957       -0.70763059348994
C            4.03044715183698        1.34182411586229       -1.11273417602741
C            3.14822041284704        0.84238961428611       -2.06430719843552
C            3.05950338815166       -0.52249516510779       -2.30568699275757
C            2.01476560468324       -1.03790238962650       -3.20489387468316
C            1.76867226750135       -0.44596339121318       -4.44042037335970
C            0.75989348998571       -0.92132923951337       -5.25830438180364
C           -0.02325261830771       -1.98844820125742       -4.85024077247404
C            0.21020340005519       -2.58044340557218       -3.62006329951638
C            1.22288463330076       -2.11104992506924       -2.80457974032501
C            3.92112511417344       -1.38682802253496       -1.63960276676072
C            4.87172934656669       -0.89859029543928       -0.74998267551009
C            5.80535407556418       -1.81258932368555       -0.07193212483863
C            5.36638927448203       -3.03352282312975        0.43525639524120
C            6.24536680585750       -3.88712263888277        1.07643004485881
C            7.57900086924981       -3.53922734278335        1.21519299394768
C            8.02761770213103       -2.32950469007239        0.71117427000730
C            7.14810587353527       -1.47193773232939        0.07601773806005
C            4.90726920700397        0.46670386489614       -0.48258465296889
C            0.54299937597585        3.13440097423686       -1.44092388871864
C           -0.57690955894665        2.40004290739871       -1.77295940392355
C           -0.78116186668625        1.13020641230472       -1.23007632710005
C           -1.85986417034684        0.29560722641596       -1.63759603587489
C           -2.05389571254951       -0.92200994236649       -1.08249711750908
C           -1.19818070774823       -1.41042499902243       -0.05230713248112
C           -0.07445392114085       -0.63204109633663        0.31934644334227
C            0.13151053988868        0.64288693181497       -0.26305223835369
C           -3.14994344023103       -0.81884087373606        2.06275583401157
C           -1.32282689821618        2.20096552459058        2.80914825918056
C           -0.33891050027035        2.70639837189060        3.63823155364427
H            0.66435173769147        2.52179403716314        5.52174058171924
H           -0.68108924624421        0.58043990020664        6.23847766699487
H           -2.43046019866745       -0.32138193826748        4.76274019442594
H           -3.95249740082474        2.44849220897195        1.79268816679278
H           -7.50976474255243        0.42692291157015        0.22722409094154
H           -9.08583511890671        1.89013610888366       -0.96295143436688
H           -8.32291849488794        4.05537303805575       -1.87012814784845
H           -5.96958520302205        4.74313796182182       -1.58192948567479
H           -4.38968975946148        3.27414625930157       -0.40399149957032
H           -5.55612618502066       -0.90738779416601       -0.30198037940271
H           -6.04501029011598       -3.06640350688644        0.84101988842835
H           -5.96604443263946       -5.42752791327127        0.15061155126443
H           -3.79011648925314       -6.48924462312508       -0.35308307872882
H           -1.71464789773851       -5.17583521671418       -0.16250390909398
H           -0.67021399356891       -4.07140240125750        1.98441944925502
H            1.33639280304773       -2.77119252429747        2.55728315707905
H            2.58337520365475       -0.65014950359267        2.46283090149362
H            2.93162268004577        1.55591875716071        1.46242792969842
H            1.81264073380761        5.17908586043647        0.24095429810880
H            3.90849136152097        6.46265122520870        0.41671605332783
H            6.06256428768980        5.37801990790255       -0.12844350349842
H            6.10055531152358        3.02523895079156       -0.85127259450246
H            2.49008428156530        1.51487726131386       -2.59285393105901
H            2.38350070650631        0.38110382381784       -4.76615809651458
H            0.58362129848200       -0.45755476740140       -6.21856662842871
H           -0.81454072335180       -2.35575320097117       -5.48760070276676
H           -0.40284466008097       -3.40805276081432       -3.29314054899632
H            1.38979991934719       -2.56069473883312       -1.83638712780975
H            3.87213757408347       -2.44667031143316       -1.84337857100754
H            4.32492222693573       -3.30499386122550        0.34096507030444
H            5.88885116821833       -4.82833704596026        1.47049870646339
H            8.26573021450357       -4.20800335608510        1.71356072800794
H            9.06794510121854       -2.05457185714258        0.81199399626683
H            7.50660862367403       -0.53602345233805       -0.32812327439997
H            5.59024589616858        0.84384245226534        0.26513612591715
H            0.71945830538197        4.08966327191963       -1.91665571459859
H           -1.28765038077067        2.78905356619374       -2.48873887469512
H           -2.51904907043658        0.65659974279522       -2.41482046492716
H           -2.86138806075351       -1.55320610225894       -1.42243929852263
H           -2.48298066025794       -1.46902246134420        2.60798112631614
H           -1.48914238554249        2.64150279432992        1.83670211697004
H            0.25142419462536        3.55287253601228        3.31765060723873

          :  Hamiltonian                  GFN2-xTB          :
         :: gradient norm              0.000044515777 Eh/a0 ::
         :: HOMO-LUMO gap              2.160728685654 eV    ::
         :: SCC energy              -161.693498199203 Eh    ::
         :: -> dispersion             -0.173266589533 Eh    ::
         :: -> Gsolv                  -0.057922128505 Eh    ::
         :: repulsion energy           3.141644395966 Eh    ::

    * Orbital Energies and Occupations

         #    Occupation            Energy/Eh            Energy/eV
      -------------------------------------------------------------
         1        2.0000           -0.6532114             -17.7748
       ...           ...                  ...                  ...
       137        2.0000           -0.4021436             -10.9429
       138        2.0000           -0.4018539             -10.9350
       139        2.0000           -0.4014209             -10.9232
       140        2.0000           -0.3999189             -10.8823
       141        2.0000           -0.3998490             -10.8804
       142        2.0000           -0.3952703             -10.7559
       143        2.0000           -0.3941129             -10.7244
       144        2.0000           -0.3878195             -10.5531
       145        2.0000           -0.3821530             -10.3989
       146        2.0000           -0.3813251             -10.3764
       147        2.0000           -0.3810499             -10.3689
       148        2.0000           -0.3785676             -10.3014
       149        2.0000           -0.3567054              -9.7064 (HOMO)
       150                         -0.2773001              -7.5457 (LUMO)
       151                         -0.2468083              -6.7160
       152                         -0.2466390              -6.7114
       153                         -0.2458014              -6.6886
       154                         -0.2443890              -6.6502
       155                         -0.2382383              -6.4828
       156                         -0.2296188              -6.2482
       157                         -0.2260102              -6.1501
       158                         -0.2253319              -6.1316
       159                         -0.2212834              -6.0214
       160                         -0.2212448              -6.0204
       ...                                ...                  ...
       298                          0.7341720              19.9778
      -------------------------------------------------------------
                  HL-Gap            0.0794053 Eh            2.1607 eV

     #   Z          covCN         q      C6AA      α(0)
     1   6 C        2.920    -0.032    28.806     8.801
     2   6 C        2.918    -0.031    28.767     8.795
     3   6 C        2.924    -0.034    28.855     8.809
     4   6 C        2.978     0.009    27.803     8.649
     5   6 C        2.975     0.007    27.858     8.658
     6   6 C        2.930    -0.041    29.025     8.835
     7   6 C        2.974     0.007    27.848     8.656
     8   6 C        2.977     0.010    27.789     8.647
     9   6 C        2.925    -0.034    28.854     8.809
    10   6 C        2.918    -0.031    28.771     8.796
    11   6 C        2.920    -0.033    28.813     8.802
    12   6 C        2.918    -0.031    28.766     8.795
    13   6 C        2.925    -0.034    28.838     8.807
    14   6 C        2.932    -0.041    29.023     8.835
    15   6 C        2.973     0.010    27.789     8.647
    16   6 C        2.979     0.007    27.869     8.660
    17   6 C        2.924    -0.035    28.870     8.811
    18   6 C        2.918    -0.033    28.820     8.803
    19   6 C        2.918    -0.033    28.817     8.803
    20   6 C        2.924    -0.035    28.863     8.810
    21   6 C        2.980     0.008    27.836     8.654
    22   6 C        2.976     0.005    27.914     8.666
    23   6 C        2.921    -0.037    28.910     8.817
    24   6 C        2.918    -0.039    28.975     8.827
    25   6 C        2.983     0.008    27.838     8.655
    26   6 C        2.914    -0.037    28.921     8.819
    27   6 C        2.913    -0.033    28.833     8.805
    28   6 C        2.984     0.007    27.847     8.656
    29   6 C        2.976     0.005    27.912     8.666
    30   6 C        2.980     0.008    27.835     8.654
    31   6 C        2.923    -0.035    28.862     8.810
    32   6 C        2.918    -0.033    28.817     8.803
    33   6 C        2.918    -0.033    28.821     8.803
    34   6 C        2.923    -0.035    28.868     8.811
    35   6 C        2.980     0.007    27.869     8.659
    36   6 C        2.973     0.010    27.792     8.647
    37   6 C        2.931    -0.039    28.963     8.826
    38   6 C        2.975     0.007    27.858     8.658
    39   6 C        2.978     0.009    27.803     8.649
    40   6 C        2.924    -0.034    28.856     8.809
    41   6 C        2.919    -0.031    28.767     8.795
    42   6 C        2.920    -0.032    28.806     8.801
    43   6 C        2.918    -0.029    28.734     8.790
    44   6 C        2.926    -0.032    28.788     8.799
    45   6 C        2.930    -0.041    29.025     8.835
    46   6 C        2.974     0.007    27.849     8.656
    47   6 C        2.977     0.010    27.788     8.647
    48   6 C        2.925    -0.034    28.837     8.806
    49   6 C        2.918    -0.031    28.766     8.795
    50   6 C        2.920    -0.033    28.814     8.803
    51   6 C        2.918    -0.031    28.771     8.796
    52   6 C        2.925    -0.034    28.854     8.809
    53   6 C        2.931    -0.041    29.023     8.835
    54   6 C        2.920    -0.036    28.907     8.817
    55   6 C        2.918    -0.039    28.973     8.827
    56   6 C        2.983     0.008    27.836     8.655
    57   6 C        2.914    -0.037    28.918     8.818
    58   6 C        2.913    -0.033    28.829     8.805
    59   6 C        2.984     0.008    27.842     8.655
    60   6 C        2.996     0.002    27.971     8.676
    61   6 C        2.997     0.002    27.971     8.676
    62   6 C        2.931    -0.039    28.962     8.826
    63   6 C        2.926    -0.032    28.793     8.800
    64   6 C        2.918    -0.030    28.738     8.791
    65   1 H        0.926     0.031     2.572     2.508
    66   1 H        0.926     0.031     2.568     2.506
    67   1 H        0.926     0.031     2.575     2.509
    68   1 H        0.926     0.032     2.557     2.501
    69   1 H        0.926     0.032     2.564     2.504
    70   1 H        0.926     0.031     2.577     2.510
    71   1 H        0.926     0.030     2.584     2.514
    72   1 H        0.926     0.030     2.583     2.513
    73   1 H        0.926     0.030     2.581     2.512
    74   1 H        0.926     0.033     2.539     2.492
    75   1 H        0.926     0.033     2.550     2.497
    76   1 H        0.926     0.031     2.565     2.505
    77   1 H        0.926     0.032     2.565     2.504
    78   1 H        0.926     0.031     2.567     2.506
    79   1 H        0.925     0.031     2.579     2.511
    80   1 H        0.926     0.031     2.577     2.510
    81   1 H        0.926     0.029     2.601     2.522
    82   1 H        0.926     0.030     2.591     2.517
    83   1 H        0.926     0.031     2.567     2.506
    84   1 H        0.926     0.032     2.564     2.504
    85   1 H        0.926     0.032     2.565     2.504
    86   1 H        0.926     0.033     2.549     2.497
    87   1 H        0.926     0.029     2.602     2.523
    88   1 H        0.926     0.031     2.575     2.509
    89   1 H        0.926     0.031     2.567     2.506
    90   1 H        0.926     0.031     2.572     2.508
    91   1 H        0.926     0.029     2.595     2.519
    92   1 H        0.926     0.026     2.643     2.542
    93   1 H        0.926     0.032     2.560     2.502
    94   1 H        0.926     0.030     2.582     2.513
    95   1 H        0.926     0.030     2.582     2.513
    96   1 H        0.926     0.030     2.584     2.514
    97   1 H        0.926     0.031     2.577     2.510
    98   1 H        0.926     0.032     2.565     2.504
    99   1 H        0.926     0.033     2.540     2.492
   100   1 H        0.925     0.030     2.579     2.511
   101   1 H        0.926     0.031     2.578     2.511
   102   1 H        0.926     0.029     2.605     2.524
   103   1 H        0.926     0.030     2.590     2.516
   104   1 H        0.926     0.029     2.603     2.523
   105   1 H        0.926     0.026     2.638     2.540
   106   1 H        0.926     0.029     2.594     2.519

molecular dipole:
                 x           y           z       tot (Debye)
 q only:       -0.001       0.002      -0.001
   full:       -0.001       0.003       0.000       0.007

 projected vibrational frequencies (cm⁻¹)
eigval :       -0.00    -0.00    -0.00     0.00     0.00     0.00
eigval :        9.04    12.36    14.53    18.22    23.46    32.92
eigval :       35.05    41.68    43.59    46.72    48.17    48.39
eigval :       51.01    54.21    54.87    59.34    60.36    79.95
eigval :       84.63    97.03   113.90   118.62   121.78   122.82
eigval :      126.15   140.32   161.26   171.73   190.90   194.41
eigval :      195.33   217.69   227.16   228.16   253.07   254.86
eigval :      256.13   265.51   271.63   277.84   286.16   293.10
eigval :      293.34   306.14   307.33   325.07   349.70   355.29
eigval :      367.98   369.85   371.56   373.73   374.14   374.75
eigval :      376.40   382.32   387.55   396.00   412.82   423.87
eigval :      452.89   479.36   479.65   482.52   483.98   485.90
eigval :      493.57   497.48   519.27   525.20   544.41   548.88
eigval :      556.52   560.74   562.52   580.69   580.92   583.87
eigval :      583.91   586.12   586.36   586.53   590.66   605.80
eigval :      607.30   607.98   611.22   626.79   643.11   644.83
eigval :      647.06   653.19   665.58   666.66   673.14   673.55
eigval :      676.65   678.24   682.09   683.12   695.94   716.09
eigval :      716.68   721.59   743.54   753.52   755.25   756.29
eigval :      763.97   764.83   783.64   784.76   808.88   811.39
eigval :      827.03   827.42   828.56   829.00   829.58   840.32
eigval :      840.77   851.42   855.43   874.40   877.75   878.42
eigval :      878.66   879.17   887.02   887.44   893.98   894.20
eigval :      898.54   899.84   902.65   904.02   907.32   907.64
eigval :      917.41   918.63   921.51   922.04   927.42   928.71
eigval :      930.23   930.33   930.81   931.39   931.69   933.47
eigval :      933.98   934.50   935.12   936.04   951.86   954.13
eigval :      985.33   985.36   989.96   990.46   994.40   998.59
eigval :     1045.02  1063.08  1082.33  1083.69  1083.85  1085.56
eigval :     1092.04  1096.82  1099.53  1110.05  1112.27  1119.18
eigval :     1119.40  1121.14  1121.26  1122.98  1123.44  1130.39
eigval :     1140.51  1152.60  1158.07  1167.71  1180.02  1180.24
eigval :     1180.73  1180.80  1181.23  1181.94  1187.82  1198.81
eigval :     1199.05  1201.20  1201.27  1203.75  1212.55  1230.32
eigval :     1230.46  1238.80  1242.86  1243.14  1249.45  1249.99
eigval :     1250.82  1252.63  1253.54  1280.55  1280.56  1281.78
eigval :     1281.82  1286.72  1289.06  1304.19  1304.76  1311.63
eigval :     1315.17  1315.33  1317.40  1317.45  1321.22  1321.81
eigval :     1322.91  1351.93  1352.03  1365.56  1377.86  1385.31
eigval :     1408.93  1411.12  1413.34  1413.76  1417.80  1421.29
eigval :     1430.82  1432.02  1437.29  1437.40  1446.56  1446.91
eigval :     1454.12  1473.02  1473.76  1484.06  1484.10  1485.64
eigval :     1485.67  1496.71  1502.50  1531.11  1560.36  1561.09
eigval :     1565.14  1567.34  1575.19  1575.24  1577.74  1577.79
eigval :     1583.03  1583.05  1584.44  1584.50  1590.38  1590.70
eigval :     1599.07  1599.11  1600.46  1600.51  1605.72  1606.98
eigval :     3061.63  3061.82  3063.82  3064.44  3064.92  3064.98
eigval :     3065.31  3065.39  3066.82  3066.95  3067.00  3067.47
eigval :     3067.74  3068.52  3069.19  3069.83  3073.83  3074.33
eigval :     3074.55  3074.85  3075.10  3075.34  3076.18  3076.43
eigval :     3077.05  3077.09  3078.04  3078.36  3079.71  3079.75
eigval :     3081.01  3081.26  3085.55  3086.86  3087.07  3087.46
eigval :     3087.76  3088.15  3088.37  3088.70  3094.81  3095.18

   temp. (K)  partition function   enthalpy   heat capacity  entropy
                                   cal/mol     cal/K/mol   cal/K/mol   J/K/mol
 298.15  VIB  0.388E+24            29839.601    188.622    186.411
         ROT  0.123E+09              888.752      2.981     39.998
         INT  0.478E+32            30728.354    191.603    226.409
         TR   0.223E+29             1481.254      4.968     45.936
         TOT                       32209.6078   196.5711   272.3452  1139.4925

       T/K    H(0)-H(T)+PV         H(T)/Eh          T*S/Eh         G(T)/Eh
   ------------------------------------------------------------------------
    298.15    0.513293E-01    0.877034E+00    0.129400E+00    0.747634E+00
   ------------------------------------------------------------------------

         :::::::::::::::::::::::::::::::::::::::::::::::::::::
         ::                  THERMODYNAMIC                  ::
         :::::::::::::::::::::::::::::::::::::::::::::::::::::
         :: total free energy        -157.804220307830 Eh   ::
         ::.................................................::
         :: total energy             -158.551853810878 Eh   ::
         :: zero point energy           0.825704236603 Eh   ::
         :: G(RRHO) w/o ZPVE           -0.078070733556 Eh   ::
         :: G(RRHO) contrib.            0.747633503048 Eh   ::
         :::::::::::::::::::::::::::::::::::::::::::::::::::::

           -------------------------------------------------
          | TOTAL ENERGY             -158.551853810878 Eh   |
          | TOTAL ENTHALPY           -157.674820297056 Eh   |
          | TOTAL FREE ENERGY        -157.804220307830 Eh   |
          | GRADIENT NORM               0.000044516940 Eh/α |
          | HOMO-LUMO GAP               2.160728678814 eV   |
           -------------------------------------------------

 * finished run on 2025/09/10 at 11:15:12.570
