   * xtb version 6.7.1 (edcfbbe) compiled by 'albert@albert-system' on 2024-07-22

   ID    Z sym.   atoms
    1    6 C      1-64
    2    1 H      65-106

          program call               : xtb data2507/toluene/DPPP/DPPP.xyz --gfn 2 --gbsa toluene --ohess vtight --parallel 40 --molden --ceasefiles --namespace data2507/toluene/DPPP/DPPP_toluene_S0_preOpt
      * Solvation model:               GBSA
        Solvent                        toluene
        Solvent mass                       9.2140E+01 g/mol
          :  Hamiltonian                  GFN2-xTB          :
 * total energy  :  -158.5211172 Eh     change       -0.3158675E-08 Eh
 * total energy  :  -158.5355035 Eh     change       -0.1438634E-01 Eh
 * total energy  :  -158.5390397 Eh     change       -0.3536213E-02 Eh
 * total energy  :  -158.5398686 Eh     change       -0.8288387E-03 Eh
 * total energy  :  -158.5404141 Eh     change       -0.5455281E-03 Eh
 * total energy  :  -158.5407675 Eh     change       -0.3533718E-03 Eh
 * total energy  :  -158.5412316 Eh     change       -0.4641208E-03 Eh
 * total energy  :  -158.5417114 Eh     change       -0.4798089E-03 Eh
 * total energy  :  -158.5421479 Eh     change       -0.4365234E-03 Eh
 * total energy  :  -158.5425240 Eh     change       -0.3761038E-03 Eh
 * total energy  :  -158.5511364 Eh     change       -0.6056590E-06 Eh
 * total energy  :  -158.5511371 Eh     change       -0.6500770E-06 Eh
 * total energy  :  -158.5511377 Eh     change       -0.6562254E-06 Eh
 * total energy  :  -158.5511383 Eh     change       -0.6325898E-06 Eh
 * total energy  :  -158.5511390 Eh     change       -0.6133767E-06 Eh
 * total energy  :  -158.5511396 Eh     change       -0.6230613E-06 Eh
 * total energy  :  -158.5511403 Eh     change       -0.6679019E-06 Eh
 * total energy  :  -158.5511410 Eh     change       -0.7446698E-06 Eh
 * total energy  :  -158.5511410 Eh     change       -0.2603002E-08 Eh
   *** GEOMETRY OPTIMIZATION CONVERGED AFTER 185 ITERATIONS ***

 final structure:
================
106
 xtb: 6.7.1 (edcfbbe)
C           -4.52587915975809       -0.63079037119303        4.80610934591303
C           -5.37340996255539       -1.31636467910871        3.95155081237598
C           -5.37825467971198       -1.02958079051058        2.59880336672651
C           -4.54062589819229       -0.04560345175261        2.07932179217150
C           -4.52120351969091        0.24538931841174        0.63677116770400
C           -4.45793491209413        1.55426531620063        0.17068220416123
C           -4.42301073834737        1.82494836590164       -1.19264134285149
C           -4.36450037606045        3.21348229164902       -1.67805803441698
C           -3.50908140335500        4.13648811293521       -1.08098711717316
C           -3.45013413156453        5.43984312194688       -1.53956691063729
C           -4.24862648605037        5.84347118406553       -2.59717737817772
C           -5.10324449112511        4.93363212885660       -3.19772467986128
C           -5.15806216599161        3.62804937617461       -2.74484045728971
C           -4.41553228401444        0.76536137424432       -2.09387700314564
C           -4.43816363034007       -0.54975345235621       -1.64601267991350
C           -4.31801558542191       -1.66367244657585       -2.60639765801582
C           -5.14910639939554       -1.72592618497924       -3.71913584493527
C           -5.05047660814809       -2.76867867227226       -4.62327312511558
C           -4.11144502713458       -3.76708436605629       -4.42442776006121
C           -3.27421616100054       -3.71507349033162       -3.32413077301132
C           -3.35813132496804       -2.66915562906961       -2.41218842953835
C           -2.46551012250703       -2.63538442820296       -1.23743036952917
C           -2.51400679270514       -3.68596132984002       -0.32632817381180
C           -1.80950474885585       -3.63917334212081        0.85880520933626
C           -1.03143119830913       -2.52588041360111        1.17986303132459
C           -0.33784945165830       -2.41827394018870        2.41931878981092
C            0.43158957920990       -1.34238308272352        2.70329756430577
C            0.57953136101610       -0.27086374993179        1.77193013173416
C            1.43286499735113        0.81719225465902        2.01649214821140
C            2.27823115450645        0.88456351217498        3.23092357055907
C            1.73628691539052        1.23063777605222        4.46193422077212
C            2.54381308464871        1.35241483736337        5.57972440821291
C            3.90773310793227        1.13734679591364        5.47273363225773
C            4.45866726865893        0.79379279088188        4.25074436668186
C            3.65671988038076        0.65563070531024        3.12384126443356
C            4.23462829190461        0.26917573805137        1.82207230883170
C            5.29817657036317        0.97429767943208        1.27323143921419
C            5.79138734215635        0.65009151206970        0.01221092141689
C            6.92588329456009        1.39507111002456       -0.55900589779371
C            7.95216133501764        0.72357186930405       -1.21985235451390
C            9.02145503342557        1.42030861338058       -1.75231975523009
C            9.08071122190625        2.79966558813032       -1.63863762777069
C            8.06394476285730        3.47789001834875       -0.98670426764735
C            6.99704016549161        2.78190203059088       -0.44833454922073
C            5.18866084549310       -0.37580707047211       -0.70962002210681
C            4.13576676175748       -1.10363489647778       -0.16737762189666
C            3.44128968016627       -2.15227622068242       -0.93290745014491
C            3.06274559933265       -1.92303827333332       -2.25313363929880
C            2.34163172762786       -2.87291259275685       -2.95318374742169
C            1.99640217659658       -4.07019752670379       -2.34879398119152
C            2.38140823544366       -4.31461138434233       -1.04102931637476
C            3.09410220582682       -3.36190924478321       -0.33665197346382
C            3.68771996941454       -0.79152310420483        1.11026138944754
C            1.54043910308891        1.83421021361570        1.07538765342477
C            0.83881799587065        1.78764004715103       -0.11182832189937
C            0.02022223527832        0.69776419198218       -0.41202119844848
C           -0.65117041602193        0.57546725319544       -1.66195223881237
C           -1.43018764594320       -0.49465321997641       -1.93970972018073
C           -1.62067176025419       -1.53974768677582       -0.98865079530873
C           -0.92112574500079       -1.47064772985986        0.24121067350341
C           -0.11370882239871       -0.34426295857352        0.53779196913511
C           -4.52479446259984       -0.79814513009491       -0.28136364343512
C           -3.69764304447019        0.64256944505914        2.94876873484714
C           -3.68726338240754        0.34831823011663        4.29970972057872
H           -4.51885612763129       -0.85889206700339        5.86216030832021
H           -6.03386961831473       -2.07785501684466        4.34158129434649
H           -6.04974846789412       -1.55972918852293        1.93856426707368
H           -4.47251550326070        2.37290693762959        0.87561683148525
H           -2.87326575109494        3.82143740824636       -0.26578735218572
H           -2.77765548094075        6.14431976621120       -1.07081470161107
H           -4.20457459718080        6.86289029055000       -2.95229392985506
H           -5.73077716409363        5.24373586625991       -4.02118946399165
H           -5.83575289593373        2.92496832071105       -3.20777182765574
H           -4.33876748281994        0.96753366222333       -3.15269694292749
H           -5.89236972735294       -0.95444465982235       -3.86295197404677
H           -5.70755256175926       -2.80373123913194       -5.48018019281240
H           -4.03008250709980       -4.58429991668613       -5.12639091723961
H           -2.53015859022795       -4.48423742468538       -3.17126606960314
H           -3.14947715296130       -4.53447716134248       -0.54132839684465
H           -1.87665841702898       -4.45775317139806        1.56157574099756
H           -0.43759558149236       -3.22645764072281        3.13065023190936
H            0.96099675428621       -1.27858195309965        3.64358359395972
H            0.67300047229157        1.41111673330520        4.53620291935031
H            2.10911673666566        1.61997862505303        6.53195061583036
H            4.54220338172355        1.23584676842952        6.34166239826679
H            5.52109785038930        0.61390881092390        4.16569452679181
H            5.74381024032232        1.78558211541417        1.83104870083164
H            7.91774176852624       -0.35368998487802       -1.29916206371246
H            9.81358528568175        0.88510594778863       -2.25653381949376
H            9.91511361219096        3.34364433190136       -2.05691770272243
H            8.10240642226530        4.55443674231692       -0.89862008247141
H            6.19910402940614        3.31806743269766        0.04534090550921
H            5.54222448035042       -0.60790110146835       -1.70392623233878
H            3.31184540153603       -0.98123916771015       -2.72115772913379
H            2.04175883840023       -2.67566490297336       -3.97259349761275
H            1.42955390455618       -4.81017586964978       -2.89496601094688
H            2.11912693882736       -5.24904935276581       -0.56556392136612
H            3.39393062195786       -3.55839590934820        0.68298528420878
H            2.88478767995497       -1.36821190195345        1.54123487120889
H            2.19707349842889        2.66827759171958        1.28134605624726
H            0.93763952601836        2.58829984834780       -0.83134276455211
H           -0.51496499985341        1.36102906732700       -2.39232867307390
H           -1.90896239486868       -0.58417971022272       -2.90343401545265
H           -4.56630536640121       -1.81659418305704        0.07385522183029
H           -3.03004700874721        1.39635726104635        2.55638565436733
H           -3.02226541140445        0.88463605206045        4.96156188183073

          :  Hamiltonian                  GFN2-xTB          :
         :: gradient norm              0.000043528910 Eh/a0 ::
         :: HOMO-LUMO gap              2.241551038249 eV    ::
         :: SCC energy              -161.692766082855 Eh    ::
         :: -> dispersion             -0.163130449108 Eh    ::
         :: -> Gsolv                  -0.063617056874 Eh    ::
         :: repulsion energy           3.141625084197 Eh    ::

    * Orbital Energies and Occupations

         #    Occupation            Energy/Eh            Energy/eV
      -------------------------------------------------------------
         1        2.0000           -0.6532967             -17.7771
       ...           ...                  ...                  ...
       137        2.0000           -0.4027021             -10.9581
       138        2.0000           -0.4022138             -10.9448
       139        2.0000           -0.4019301             -10.9371
       140        2.0000           -0.4006124             -10.9012
       141        2.0000           -0.3979269             -10.8281
       142        2.0000           -0.3957857             -10.7699
       143        2.0000           -0.3929373             -10.6924
       144        2.0000           -0.3880968             -10.5607
       145        2.0000           -0.3831479             -10.4260
       146        2.0000           -0.3817266             -10.3873
       147        2.0000           -0.3815566             -10.3827
       148        2.0000           -0.3805013             -10.3540
       149        2.0000           -0.3583314              -9.7507 (HOMO)
       150                         -0.2759559              -7.5091 (LUMO)
       151                         -0.2462997              -6.7022
       152                         -0.2455700              -6.6823
       153                         -0.2450379              -6.6678
       154                         -0.2440770              -6.6417
       155                         -0.2395170              -6.5176
       156                         -0.2273913              -6.1876
       157                         -0.2251860              -6.1276
       158                         -0.2238015              -6.0899
       159                         -0.2213721              -6.0238
       160                         -0.2212949              -6.0217
       ...                                ...                  ...
       298                          0.7330068              19.9461
      -------------------------------------------------------------
                  HL-Gap            0.0823755 Eh            2.2416 eV

     #   Z          covCN         q      C6AA      α(0)
     1   6 C        2.920    -0.032    28.808     8.802
     2   6 C        2.918    -0.031    28.766     8.795
     3   6 C        2.925    -0.034    28.850     8.808
     4   6 C        2.978     0.009    27.801     8.649
     5   6 C        2.974     0.007    27.859     8.658
     6   6 C        2.930    -0.041    29.030     8.836
     7   6 C        2.974     0.008    27.848     8.656
     8   6 C        2.977     0.010    27.787     8.647
     9   6 C        2.925    -0.033    28.832     8.806
    10   6 C        2.918    -0.031    28.763     8.795
    11   6 C        2.920    -0.033    28.813     8.802
    12   6 C        2.918    -0.031    28.770     8.796
    13   6 C        2.925    -0.034    28.852     8.809
    14   6 C        2.931    -0.041    29.009     8.833
    15   6 C        2.974     0.010    27.781     8.646
    16   6 C        2.980     0.007    27.868     8.659
    17   6 C        2.923    -0.035    28.870     8.811
    18   6 C        2.918    -0.033    28.822     8.804
    19   6 C        2.918    -0.033    28.815     8.803
    20   6 C        2.923    -0.034    28.857     8.809
    21   6 C        2.981     0.008    27.836     8.654
    22   6 C        2.977     0.005    27.906     8.665
    23   6 C        2.920    -0.036    28.891     8.814
    24   6 C        2.918    -0.039    28.968     8.826
    25   6 C        2.983     0.008    27.840     8.655
    26   6 C        2.913    -0.037    28.922     8.819
    27   6 C        2.913    -0.036    28.895     8.815
    28   6 C        2.984     0.007    27.858     8.658
    29   6 C        2.977     0.005    27.910     8.666
    30   6 C        2.982     0.008    27.824     8.653
    31   6 C        2.922    -0.033    28.830     8.805
    32   6 C        2.918    -0.033    28.821     8.804
    33   6 C        2.918    -0.033    28.824     8.804
    34   6 C        2.923    -0.035    28.859     8.810
    35   6 C        2.982     0.006    27.891     8.663
    36   6 C        2.974     0.009    27.805     8.649
    37   6 C        2.929    -0.042    29.040     8.838
    38   6 C        2.974     0.007    27.848     8.656
    39   6 C        2.977     0.010    27.794     8.648
    40   6 C        2.925    -0.034    28.858     8.810
    41   6 C        2.918    -0.031    28.767     8.795
    42   6 C        2.920    -0.033    28.811     8.802
    43   6 C        2.918    -0.031    28.771     8.796
    44   6 C        2.925    -0.034    28.855     8.809
    45   6 C        2.929    -0.042    29.036     8.837
    46   6 C        2.974     0.007    27.856     8.657
    47   6 C        2.978     0.009    27.804     8.649
    48   6 C        2.925    -0.034    28.842     8.807
    49   6 C        2.918    -0.030    28.757     8.794
    50   6 C        2.920    -0.032    28.798     8.800
    51   6 C        2.918    -0.030    28.758     8.794
    52   6 C        2.925    -0.034    28.846     8.808
    53   6 C        2.933    -0.041    29.011     8.833
    54   6 C        2.920    -0.035    28.862     8.810
    55   6 C        2.918    -0.038    28.952     8.824
    56   6 C        2.983     0.008    27.840     8.655
    57   6 C        2.914    -0.037    28.920     8.818
    58   6 C        2.913    -0.034    28.851     8.808
    59   6 C        2.984     0.006    27.879     8.661
    60   6 C        2.996     0.002    27.976     8.676
    61   6 C        2.996     0.001    27.985     8.678
    62   6 C        2.931    -0.040    28.982     8.829
    63   6 C        2.925    -0.033    28.816     8.803
    64   6 C        2.918    -0.030    28.752     8.793
    65   1 H        0.926     0.031     2.571     2.507
    66   1 H        0.926     0.031     2.570     2.507
    67   1 H        0.926     0.031     2.570     2.507
    68   1 H        0.926     0.032     2.556     2.500
    69   1 H        0.926     0.030     2.590     2.517
    70   1 H        0.926     0.030     2.582     2.513
    71   1 H        0.926     0.030     2.583     2.513
    72   1 H        0.926     0.031     2.575     2.509
    73   1 H        0.926     0.032     2.565     2.505
    74   1 H        0.926     0.033     2.549     2.496
    75   1 H        0.926     0.032     2.553     2.499
    76   1 H        0.926     0.032     2.563     2.504
    77   1 H        0.926     0.032     2.562     2.503
    78   1 H        0.926     0.031     2.565     2.505
    79   1 H        0.925     0.031     2.578     2.511
    80   1 H        0.926     0.032     2.560     2.502
    81   1 H        0.925     0.031     2.578     2.511
    82   1 H        0.926     0.031     2.571     2.507
    83   1 H        0.926     0.030     2.581     2.512
    84   1 H        0.926     0.032     2.561     2.503
    85   1 H        0.926     0.032     2.563     2.504
    86   1 H        0.926     0.033     2.550     2.497
    87   1 H        0.926     0.033     2.544     2.494
    88   1 H        0.926     0.031     2.565     2.505
    89   1 H        0.926     0.030     2.581     2.512
    90   1 H        0.926     0.030     2.584     2.514
    91   1 H        0.926     0.031     2.579     2.511
    92   1 H        0.926     0.031     2.567     2.506
    93   1 H        0.926     0.033     2.550     2.497
    94   1 H        0.926     0.030     2.585     2.514
    95   1 H        0.926     0.030     2.581     2.512
    96   1 H        0.926     0.030     2.589     2.516
    97   1 H        0.926     0.030     2.584     2.514
    98   1 H        0.926     0.030     2.583     2.513
    99   1 H        0.926     0.031     2.576     2.510
   100   1 H        0.925     0.027     2.633     2.538
   101   1 H        0.926     0.031     2.568     2.506
   102   1 H        0.925     0.030     2.591     2.517
   103   1 H        0.926     0.030     2.581     2.512
   104   1 H        0.926     0.029     2.596     2.520
   105   1 H        0.926     0.028     2.618     2.530
   106   1 H        0.926     0.030     2.590     2.516

molecular dipole:
                 x           y           z       tot (Debye)
 q only:       -0.047      -0.029      -0.012
   full:       -0.041      -0.025      -0.027       0.140

 projected vibrational frequencies (cm⁻¹)
eigval :       -0.00    -0.00     0.00     0.00     0.00     0.00
eigval :        8.73    10.29    10.74    15.87    23.37    32.76
eigval :       38.85    42.88    45.90    49.81    50.59    52.37
eigval :       55.09    55.83    57.56    58.80    62.22    72.65
eigval :       77.67    96.11   109.78   112.12   115.04   119.96
eigval :      120.94   136.47   156.01   170.26   178.35   193.82
eigval :      196.83   211.84   227.01   228.21   245.36   251.03
eigval :      254.46   261.29   269.54   278.37   283.83   288.44
eigval :      296.49   300.90   303.31   321.72   345.68   351.88
eigval :      355.17   366.71   373.75   374.20   375.08   375.98
eigval :      376.95   381.64   396.53   403.44   415.79   418.53
eigval :      450.15   475.70   477.37   478.44   482.43   486.53
eigval :      494.08   497.22   513.02   532.34   544.19   548.09
eigval :      553.74   558.58   562.03   581.01   581.23   583.14
eigval :      584.17   585.97   586.54   587.89   590.75   605.91
eigval :      607.20   608.28   611.62   628.53   641.33   645.45
eigval :      647.06   653.38   667.39   671.18   674.01   674.55
eigval :      675.25   678.40   682.72   684.93   696.87   714.98
eigval :      718.87   721.36   742.76   755.21   757.28   758.72
eigval :      759.19   765.19   779.47   781.54   802.38   811.52
eigval :      822.66   827.14   827.92   828.92   829.44   840.14
eigval :      843.83   846.42   850.91   876.80   877.40   878.02
eigval :      879.09   880.46   885.31   886.08   895.61   897.26
eigval :      898.06   899.69   903.42   906.03   906.95   908.97
eigval :      910.21   914.34   916.63   919.29   923.51   927.37
eigval :      927.79   929.76   930.66   930.67   931.26   932.16
eigval :      932.80   933.08   934.56   935.84   952.12   954.48
eigval :      985.48   985.52   989.73   990.35   994.14   997.35
eigval :     1045.75  1063.26  1082.47  1083.76  1084.18  1085.79
eigval :     1090.61  1094.60  1098.72  1110.41  1111.17  1119.37
eigval :     1119.75  1120.38  1120.84  1121.71  1122.90  1131.22
eigval :     1141.97  1150.71  1156.74  1166.75  1179.13  1180.36
eigval :     1180.52  1181.02  1181.10  1182.48  1186.79  1198.43
eigval :     1200.11  1200.73  1200.79  1201.25  1209.60  1229.39
eigval :     1230.66  1238.36  1241.35  1242.78  1248.54  1249.44
eigval :     1249.97  1253.07  1253.43  1280.14  1281.05  1281.90
eigval :     1282.32  1288.04  1291.01  1303.45  1305.18  1309.95
eigval :     1314.65  1315.11  1317.00  1317.03  1320.38  1321.29
eigval :     1322.23  1352.09  1352.38  1365.35  1377.86  1385.38
eigval :     1407.93  1411.58  1412.60  1414.37  1418.85  1421.41
eigval :     1431.11  1432.21  1437.08  1437.37  1446.37  1446.73
eigval :     1453.12  1474.20  1475.18  1483.91  1484.08  1485.28
eigval :     1485.49  1498.84  1504.68  1533.32  1562.43  1564.05
eigval :     1566.85  1568.09  1576.14  1576.23  1577.35  1577.95
eigval :     1582.82  1582.84  1584.62  1584.97  1590.75  1592.30
eigval :     1599.19  1599.31  1599.89  1600.21  1604.38  1607.16
eigval :     3061.21  3062.72  3063.44  3064.47  3065.35  3065.42
eigval :     3065.50  3065.75  3066.69  3066.78  3067.02  3067.37
eigval :     3067.43  3067.58  3069.70  3070.22  3073.78  3074.45
eigval :     3074.55  3074.95  3075.17  3075.55  3075.77  3076.15
eigval :     3076.88  3076.98  3077.79  3078.00  3078.57  3078.91
eigval :     3078.97  3079.25  3080.09  3086.87  3087.02  3087.11
eigval :     3087.51  3087.60  3087.75  3088.01  3093.82  3107.50

   temp. (K)  partition function   enthalpy   heat capacity  entropy
                                   cal/mol     cal/K/mol   cal/K/mol   J/K/mol
 298.15  VIB  0.750E+24            29940.552    189.213    188.189
         ROT  0.145E+09              888.752      2.981     40.326
         INT  0.109E+33            30829.304    192.193    228.516
         TR   0.223E+29             1481.254      4.968     45.936
         TOT                       32310.5584   197.1616   274.4518  1148.3065

       T/K    H(0)-H(T)+PV         H(T)/Eh          T*S/Eh         G(T)/Eh
   ------------------------------------------------------------------------
    298.15    0.514902E-01    0.876844E+00    0.130401E+00    0.746443E+00
   ------------------------------------------------------------------------

         :::::::::::::::::::::::::::::::::::::::::::::::::::::
         ::                  THERMODYNAMIC                  ::
         :::::::::::::::::::::::::::::::::::::::::::::::::::::
         :: total free energy        -157.804697685027 Eh   ::
         ::.................................................::
         :: total energy             -158.551141002662 Eh   ::
         :: zero point energy           0.825354094251 Eh   ::
         :: G(RRHO) w/o ZPVE           -0.078910776616 Eh   ::
         :: G(RRHO) contrib.            0.746443317636 Eh   ::
         :::::::::::::::::::::::::::::::::::::::::::::::::::::

           -------------------------------------------------
          | TOTAL ENERGY             -158.551141002662 Eh   |
          | TOTAL ENTHALPY           -157.674296756088 Eh   |
          | TOTAL FREE ENERGY        -157.804697685027 Eh   |
          | GRADIENT NORM               0.000043525761 Eh/α |
          | HOMO-LUMO GAP               2.241551024167 eV   |
           -------------------------------------------------

 * finished run on 2025/09/10 at 11:06:59.041
