   * xtb version 6.7.1 (edcfbbe) compiled by 'albert@albert-system' on 2024-07-22

   ID    Z sym.   atoms
    1    7 N      1, 7, 22, 26
    2    6 C      2-6, 8-21, 23-25, 27-34
    3    1 H      35-48

          program call               : xtb data2507/toluene/DCA/DCA.xyz --gfn 2 --gbsa toluene --ohess vtight --parallel 40 --molden --ceasefiles --namespace data2507/toluene/DCA/DCA_toluene_S0_preOpt
      * Solvation model:               GBSA
        Solvent                        toluene
        Solvent mass                       9.2140E+01 g/mol
          :  Hamiltonian                  GFN2-xTB          :
 * total energy  :   -82.9412969 Eh     change       -0.8103598E-09 Eh
 * total energy  :   -82.9526077 Eh     change       -0.1131078E-01 Eh
 * total energy  :   -82.9549010 Eh     change       -0.2293316E-02 Eh
 * total energy  :   -82.9550650 Eh     change       -0.1639871E-03 Eh
 * total energy  :   -82.9551116 Eh     change       -0.4663492E-04 Eh
 * total energy  :   -82.9551031 Eh     change        0.8487339E-05 Eh
 * total energy  :   -82.9551147 Eh     change       -0.1157830E-04 Eh
 * total energy  :   -82.9551161 Eh     change       -0.1454073E-05 Eh
 * total energy  :   -82.9551119 Eh     change        0.4282183E-05 Eh
 * total energy  :   -82.9551176 Eh     change       -0.5701359E-05 Eh
 * total energy  :   -82.9551179 Eh     change       -0.3293430E-06 Eh
 * total energy  :   -82.9551173 Eh     change        0.6313582E-06 Eh
 * total energy  :   -82.9551181 Eh     change       -0.8846054E-06 Eh
 * total energy  :   -82.9551181 Eh     change        0.3021078E-07 Eh
 * total energy  :   -82.9551181 Eh     change       -0.3307507E-07 Eh
   *** GEOMETRY OPTIMIZATION CONVERGED AFTER 15 ITERATIONS ***

 final structure:
================
48
 xtb: 6.7.1 (edcfbbe)
N           -6.25539181839766        0.00020189801408       -3.42409832699717
C           -5.68729764246922        0.00044492870306       -2.42810931032361
C           -4.98432760068597        0.00009427208810       -1.19908945102933
C           -5.69305625429711       -0.00002187470785       -0.00002044039049
C           -4.98434544462526       -0.00013673901045        1.19905917958574
C           -5.68733493146867       -0.00009178663307        2.42806771542598
N           -6.25544467507546       -0.00050401834055        3.42404686029850
C           -3.58843766333446       -0.00016210269133        1.20084537923755
C           -2.88837448677445       -0.00003320747886        0.00000076432908
C           -1.40548117372926       -0.00000986613869        0.00000798331536
C           -0.71501654638794       -1.21836687165599        0.00002958330980
C           -1.39264230518220       -2.46651822345106        0.00006149029589
C           -0.70502711540608       -3.64101213768482        0.00008071799209
C            0.70504550135732       -3.64100878182285        0.00005264956086
C            1.39265767572882       -2.46651182598240        0.00002074513754
C            0.71502789958279       -1.21836197053650        0.00001295030340
C            1.40547999174285        0.00000358150175        0.00000529721261
C            2.88837335161411        0.00001232011917        0.00000227555218
C            3.58842936659640        0.00018454023126        1.20085123817069
C            4.98433698041595        0.00017160320480        1.19907348217516
C            5.68732248298294        0.00033953348730        2.42808419708432
N            6.25543118822389        0.00066879744357        3.42406405659907
C            5.69305444661445        0.00001386099740       -0.00000226501296
C            4.98433302023331       -0.00016721314516       -1.19907577604926
C            5.68731543032846       -0.00041728805931       -2.42808791585030
N            6.25542097177477       -0.00044932352354       -3.42406679582868
C            3.58842532299777       -0.00017167223263       -1.20084905250211
C            0.71501640124739        1.21836215411638        0.00000094779707
C            1.39264144549163        2.46651436699577       -0.00000859335666
C            0.70502703551470        3.64100944360326       -0.00003693330620
C           -0.70504553115171        3.64100641816978       -0.00005993054351
C           -1.39265810608538        2.46650893348075       -0.00004104601383
C           -0.71503025278561        1.21835743100278       -0.00001251389483
C           -3.58841998275461        0.00009019482793       -1.20085425142057
H           -6.77295606081806        0.00001848301882       -0.00002866185654
H           -3.05319939839038       -0.00025515570689        2.13896057825263
H           -2.47271394745453       -2.47029948927239        0.00007440705054
H           -1.23355623871307       -4.58278894826775        0.00011236508816
H            1.23357734823489       -4.58278425769840        0.00005509291504
H            2.47272883103947       -2.47029106470174        0.00000009015905
H            3.05318498707416        0.00032198835755        2.13896295591850
H            6.77295427464280        0.00001736019584       -0.00000406041329
H            3.05317787849694       -0.00033412471597       -2.13895899974861
H            2.47271353078795        2.47029772231710        0.00000775194708
H            1.23355603883317        4.58278697506548       -0.00004085888740
H           -1.23357614717919        4.58278321534572       -0.00008775008540
H           -2.47272984160878        2.47029216865547       -0.00005062666965
H           -3.05316723678190        0.00019975251506       -2.13896119453344

          :  Hamiltonian                  GFN2-xTB          :
         :: gradient norm              0.000085631686 Eh/a0 ::
         :: HOMO-LUMO gap              2.089400716853 eV    ::
         :: SCC energy               -84.667296281757 Eh    ::
         :: -> dispersion             -0.067512218804 Eh    ::
         :: -> Gsolv                  -0.047943853003 Eh    ::
         :: repulsion energy           1.712178133010 Eh    ::

    * Orbital Energies and Occupations

         #    Occupation            Energy/Eh            Energy/eV
      -------------------------------------------------------------
         1        2.0000           -0.6945794             -18.9005
       ...           ...                  ...                  ...
        65        2.0000           -0.4458074             -12.1310
        66        2.0000           -0.4446455             -12.0994
        67        2.0000           -0.4436154             -12.0714
        68        2.0000           -0.4427056             -12.0466
        69        2.0000           -0.4426267             -12.0445
        70        2.0000           -0.4380348             -11.9195
        71        2.0000           -0.4377567             -11.9120
        72        2.0000           -0.4371769             -11.8962
        73        2.0000           -0.4249192             -11.5626
        74        2.0000           -0.4243637             -11.5475
        75        2.0000           -0.4215025             -11.4697
        76        2.0000           -0.4153419             -11.3020
        77        2.0000           -0.3778606             -10.2821 (HOMO)
        78                         -0.3010765              -8.1927 (LUMO)
        79                         -0.3010702              -8.1925
        80                         -0.2970834              -8.0841
        81                         -0.2866265              -7.7995
        82                         -0.2865663              -7.7979
        83                         -0.2473997              -6.7321
        84                         -0.2358693              -6.4183
        85                         -0.2325682              -6.3285
        86                         -0.2324501              -6.3253
        87                         -0.2234601              -6.0807
        88                         -0.2232084              -6.0738
       ...                                ...                  ...
       150                          1.1462024              31.1898
      -------------------------------------------------------------
                  HL-Gap            0.0767841 Eh            2.0894 eV

     #   Z          covCN         q      C6AA      α(0)
     1   7 N        0.911    -0.247    26.440     7.437
     2   6 C        1.913     0.120    28.144     8.568
     3   6 C        2.971     0.026    27.422     8.590
     4   6 C        2.933    -0.012    28.307     8.726
     5   6 C        2.971     0.026    27.422     8.590
     6   6 C        1.913     0.120    28.144     8.568
     7   7 N        0.911    -0.247    26.440     7.437
     8   6 C        2.930    -0.014    28.370     8.735
     9   6 C        2.975     0.033    27.254     8.563
    10   6 C        2.978    -0.006    28.159     8.704
    11   6 C        2.984     0.010    27.784     8.646
    12   6 C        2.917    -0.033    28.828     8.805
    13   6 C        2.914    -0.026    28.649     8.777
    14   6 C        2.914    -0.026    28.649     8.777
    15   6 C        2.917    -0.033    28.828     8.805
    16   6 C        2.984     0.010    27.784     8.646
    17   6 C        2.978    -0.006    28.159     8.704
    18   6 C        2.975     0.033    27.254     8.563
    19   6 C        2.930    -0.014    28.370     8.735
    20   6 C        2.971     0.026    27.422     8.590
    21   6 C        1.913     0.120    28.144     8.568
    22   7 N        0.911    -0.247    26.440     7.437
    23   6 C        2.933    -0.012    28.307     8.726
    24   6 C        2.971     0.026    27.422     8.590
    25   6 C        1.913     0.120    28.144     8.568
    26   7 N        0.911    -0.247    26.440     7.437
    27   6 C        2.930    -0.014    28.370     8.735
    28   6 C        2.984     0.010    27.784     8.646
    29   6 C        2.917    -0.033    28.828     8.805
    30   6 C        2.914    -0.026    28.649     8.777
    31   6 C        2.914    -0.026    28.649     8.777
    32   6 C        2.917    -0.033    28.828     8.805
    33   6 C        2.984     0.010    27.784     8.646
    34   6 C        2.930    -0.014    28.370     8.735
    35   1 H        0.926     0.055     2.262     2.352
    36   1 H        0.926     0.059     2.212     2.326
    37   1 H        0.926     0.032     2.558     2.501
    38   1 H        0.926     0.038     2.470     2.458
    39   1 H        0.926     0.038     2.470     2.458
    40   1 H        0.926     0.032     2.558     2.501
    41   1 H        0.926     0.059     2.212     2.326
    42   1 H        0.926     0.055     2.262     2.352
    43   1 H        0.926     0.059     2.212     2.326
    44   1 H        0.926     0.032     2.558     2.501
    45   1 H        0.926     0.038     2.470     2.458
    46   1 H        0.926     0.038     2.470     2.458
    47   1 H        0.926     0.032     2.558     2.501
    48   1 H        0.926     0.059     2.212     2.326

molecular dipole:
                 x           y           z       tot (Debye)
 q only:       -0.000       0.000       0.000
   full:       -0.000       0.000       0.000       0.000

 projected vibrational frequencies (cm⁻¹)
eigval :       -0.00    -0.00     0.00     0.00     0.00     0.00
eigval :       -6.80    -5.24    14.71    29.87    49.94    51.93
eigval :       67.90    88.37    98.05   100.42   109.61   111.91
eigval :      129.01   141.20   141.39   141.82   187.96   194.38
eigval :      208.15   210.21   220.83   232.28   247.31   338.91
eigval :      339.08   374.20   381.54   388.83   399.20   416.51
eigval :      420.77   422.87   432.59   443.80   444.44   450.18
eigval :      452.32   455.04   511.14   511.18   516.71   562.81
eigval :      564.62   568.27   606.88   609.44   610.69   610.76
eigval :      616.72   634.69   635.90   648.86   656.16   675.44
eigval :      691.66   737.61   746.85   773.31   775.02   809.56
eigval :      830.53   832.95   873.13   874.63   882.75   883.38
eigval :      900.00   903.79   903.85   919.21   919.58   931.38
eigval :      931.75   932.33   960.15   960.15   982.98   983.27
eigval :      996.40  1031.66  1079.31  1080.21  1134.85  1138.34
eigval :     1151.27  1151.47  1161.99  1180.27  1184.71  1186.83
eigval :     1227.71  1228.50  1228.65  1252.15  1265.36  1282.19
eigval :     1282.40  1303.14  1303.42  1342.49  1348.15  1373.04
eigval :     1383.01  1410.73  1410.94  1411.88  1420.82  1424.64
eigval :     1427.61  1456.57  1485.33  1526.45  1533.82  1541.33
eigval :     1554.04  1554.44  1560.10  1560.17  1606.43  1621.47
eigval :     2367.99  2368.02  2373.94  2374.42  3077.33  3077.38
eigval :     3080.12  3080.34  3087.42  3087.51  3094.48  3094.50
eigval :     3094.96  3095.12  3095.15  3096.69  3097.33  3097.33

   temp. (K)  partition function   enthalpy   heat capacity  entropy
                                   cal/mol     cal/K/mol   cal/K/mol   J/K/mol
 298.15  VIB  0.191E+14            15915.524     96.592    101.719
         ROT  0.717E+07              888.752      2.981     34.350
         INT  0.137E+21            16804.276     99.573    136.070
         TR   0.864E+28             1481.254      4.968     44.049
         TOT                       18285.5300   104.5413   180.1186   753.6163

       T/K    H(0)-H(T)+PV         H(T)/Eh          T*S/Eh         G(T)/Eh
   ------------------------------------------------------------------------
    298.15    0.291398E-01    0.366249E+00    0.855802E-01    0.280669E+00
   ------------------------------------------------------------------------

         :::::::::::::::::::::::::::::::::::::::::::::::::::::
         ::                  THERMODYNAMIC                  ::
         :::::::::::::::::::::::::::::::::::::::::::::::::::::
         :: total free energy         -82.674449020667 Eh   ::
         ::.................................................::
         :: total energy              -82.955118148744 Eh   ::
         :: zero point energy           0.337109452302 Eh   ::
         :: G(RRHO) w/o ZPVE           -0.056440324225 Eh   ::
         :: G(RRHO) contrib.            0.280669128077 Eh   ::
         :::::::::::::::::::::::::::::::::::::::::::::::::::::

           -------------------------------------------------
          | TOTAL ENERGY              -82.955118148744 Eh   |
          | TOTAL ENTHALPY            -82.588868849477 Eh   |
          | TOTAL FREE ENERGY         -82.674449020667 Eh   |
          | GRADIENT NORM               0.000085613424 Eh/α |
          | HOMO-LUMO GAP               2.089400373674 eV   |
           -------------------------------------------------

 * finished run on 2025/09/09 at 11:35:07.513
