   * xtb version 6.7.1 (edcfbbe) compiled by 'albert@albert-system' on 2024-07-22

   ID    Z sym.   atoms
    1    7 N      1, 7, 22, 26
    2    6 C      2-6, 8-21, 23-25, 27-34
    3    1 H      35-48

          program call               : xtb data2507/toluene/DCA/DCA_toluene_S0_crest.xyz --gfn 2 --gbsa toluene --ohess vtight --parallel 40 --molden --ceasefiles --namespace data2507/toluene/DCA/DCA_toluene_S0_finalOpt
      * Solvation model:               GBSA
        Solvent                        toluene
        Solvent mass                       9.2140E+01 g/mol
          :  Hamiltonian                  GFN2-xTB          :
 * total energy  :   -82.9552580 Eh     change       -0.3176126E-08 Eh
 * total energy  :   -82.9552772 Eh     change       -0.1921586E-04 Eh
 * total energy  :   -82.9552215 Eh     change        0.5574218E-04 Eh
 * total energy  :   -82.9552778 Eh     change       -0.5634138E-04 Eh
 * total energy  :   -82.9552858 Eh     change       -0.8031578E-05 Eh
 * total energy  :   -82.9552851 Eh     change        0.6739980E-06 Eh
 * total energy  :   -82.9552885 Eh     change       -0.3318609E-05 Eh
 * total energy  :   -82.9552883 Eh     change        0.1864605E-06 Eh
 * total energy  :   -82.9552907 Eh     change       -0.2413594E-05 Eh
 * total energy  :   -82.9552925 Eh     change       -0.1778491E-05 Eh
 * total energy  :   -82.9554136 Eh     change       -0.6763375E-06 Eh
 * total energy  :   -82.9554142 Eh     change       -0.5313190E-06 Eh
 * total energy  :   -82.9554145 Eh     change       -0.2822460E-06 Eh
 * total energy  :   -82.9554145 Eh     change        0.5846701E-08 Eh
 * total energy  :   -82.9554144 Eh     change        0.4768958E-07 Eh
 * total energy  :   -82.9554146 Eh     change       -0.1712189E-06 Eh
 * total energy  :   -82.9554144 Eh     change        0.1314747E-06 Eh
 * total energy  :   -82.9554147 Eh     change       -0.2547554E-06 Eh
 * total energy  :   -82.9554147 Eh     change       -0.9401276E-08 Eh
   *** GEOMETRY OPTIMIZATION CONVERGED AFTER 49 ITERATIONS ***

 final structure:
================
48
 xtb: 6.7.1 (edcfbbe)
N           -6.25493089600997        0.91174606810172       -3.30127617135598
C           -5.68718593466843        0.64620877408736       -2.34113154579898
C           -4.98433928701738        0.31947221364142       -1.15632535535774
C           -5.69345323702190        0.00001778631811       -0.00075867434986
C           -4.98460810415855       -0.31929273634210        1.15501635443751
C           -5.68769257833793       -0.64581306890341        2.33973380916551
N           -6.25585928176385       -0.91169829163572        3.29954199622163
C           -3.58885514069678       -0.32124485467596        1.15651766814469
C           -2.88760105315030        0.00017528825738       -0.00039556295901
C           -1.40658732029248       -0.00002355556481       -0.00019910475771
C           -0.71521437077335       -1.21896948353187       -0.01445660982554
C           -1.39202425411686       -2.46719866368739       -0.04887438518289
C           -0.70549216213021       -3.64234777297379       -0.05216095990003
C            0.70374154850135       -3.64302692598787       -0.01848903845179
C            1.39097709066153       -2.46844202810768        0.00185517431548
C            0.71501304592644       -1.21933275734349       -0.00871661997090
C            1.40691289028032       -0.00056184810835        0.00047845990192
C            2.88787686322045       -0.00064399188432        0.00074827071423
C            3.58887271684983        0.30593257278342        1.16189636174244
C            4.98463180964441        0.30438008680519        1.16065940167515
C            5.68738924876469        0.61648616081114        2.34944157378004
N            6.25467205094942        0.86973695932594        3.31318010742255
C            5.69384484190740        0.00012277725500        0.00106783343095
C            4.98505802636773       -0.30459590225603       -1.15866035061476
C            5.68815310632021       -0.61580257770107       -2.34747741445669
N            6.25584046508578       -0.86863538192396       -3.31108882374811
C            3.58929934645966       -0.30693939496736       -1.16021304935768
C            0.71545211001395        1.21847072800658        0.00929294168231
C            1.39188467302185        2.46732581474301       -0.00111755646325
C            0.70508718905964        3.64217405858274        0.01872303275155
C           -0.70415862170892        3.64203722168607        0.05184148096376
C           -1.39113076073425        2.46714539675127        0.04838316266191
C           -0.71477525877817        1.21865757487861        0.01431888817547
C           -3.58857737625142        0.32160878822365       -1.15746384007842
H           -6.77331789216232       -0.00002073860939       -0.00089217236683
H           -3.05379886427531       -0.57051163802186        2.06106195815772
H           -2.47158009531908       -2.47251339394478       -0.07393853124791
H           -1.23475063313162       -4.58333449739919       -0.07814673095001
H            1.23248670793745       -4.58463232555630       -0.01107298513092
H            2.47047596317887       -2.47507491537229        0.02782704797317
H            3.05367724372051        0.54342383958942        2.06953323615929
H            6.77371014029276        0.00058280914819        0.00114883262245
H            3.05445387425459       -0.54468966562958       -2.06798755510329
H            2.47139791273713        2.47358494281599       -0.02649637997390
H            1.23421280195601        4.58356819328115        0.01154221550046
H           -1.23305983604898        4.58323804806837        0.07732967368411
H           -2.47069869538051        2.47284975609859        0.07288118691096
H           -3.05332443738415        0.57090345757227       -2.06188401469548

          :  Hamiltonian                  GFN2-xTB          :
         :: gradient norm              0.000110906420 Eh/a0 ::
         :: HOMO-LUMO gap              2.092178131511 eV    ::
         :: SCC energy               -84.666976513020 Eh    ::
         :: -> dispersion             -0.067671915132 Eh    ::
         :: -> Gsolv                  -0.047856028404 Eh    ::
         :: repulsion energy           1.711561802934 Eh    ::

    * Orbital Energies and Occupations

         #    Occupation            Energy/Eh            Energy/eV
      -------------------------------------------------------------
         1        2.0000           -0.6944238             -18.8962
       ...           ...                  ...                  ...
        65        2.0000           -0.4448385             -12.1047
        66        2.0000           -0.4445726             -12.0974
        67        2.0000           -0.4429357             -12.0529
        68        2.0000           -0.4423999             -12.0383
        69        2.0000           -0.4422736             -12.0349
        70        2.0000           -0.4379130             -11.9162
        71        2.0000           -0.4377103             -11.9107
        72        2.0000           -0.4365757             -11.8798
        73        2.0000           -0.4251261             -11.5683
        74        2.0000           -0.4245033             -11.5513
        75        2.0000           -0.4210731             -11.4580
        76        2.0000           -0.4154773             -11.3057
        77        2.0000           -0.3777619             -10.2794 (HOMO)
        78                         -0.3008758              -8.1872 (LUMO)
        79                         -0.3008352              -8.1861
        80                         -0.2992982              -8.1443
        81                         -0.2863858              -7.7930
        82                         -0.2848681              -7.7517
        83                         -0.2475446              -6.7360
        84                         -0.2359371              -6.4202
        85                         -0.2324625              -6.3256
        86                         -0.2323478              -6.3225
        87                         -0.2234662              -6.0808
        88                         -0.2230977              -6.0708
       ...                                ...                  ...
       150                          1.1463503              31.1938
      -------------------------------------------------------------
                  HL-Gap            0.0768861 Eh            2.0922 eV

     #   Z          covCN         q      C6AA      α(0)
     1   7 N        0.911    -0.248    26.448     7.438
     2   6 C        1.913     0.120    28.146     8.568
     3   6 C        2.971     0.026    27.427     8.590
     4   6 C        2.933    -0.012    28.309     8.726
     5   6 C        2.971     0.026    27.427     8.590
     6   6 C        1.913     0.120    28.146     8.568
     7   7 N        0.911    -0.248    26.448     7.438
     8   6 C        2.930    -0.014    28.372     8.735
     9   6 C        2.975     0.033    27.263     8.565
    10   6 C        2.978    -0.005    28.153     8.704
    11   6 C        2.983     0.010    27.780     8.646
    12   6 C        2.917    -0.034    28.837     8.806
    13   6 C        2.914    -0.026    28.650     8.777
    14   6 C        2.914    -0.026    28.650     8.777
    15   6 C        2.917    -0.034    28.837     8.806
    16   6 C        2.983     0.010    27.780     8.646
    17   6 C        2.978    -0.005    28.154     8.704
    18   6 C        2.975     0.033    27.264     8.565
    19   6 C        2.930    -0.014    28.372     8.735
    20   6 C        2.971     0.026    27.428     8.591
    21   6 C        1.913     0.120    28.146     8.568
    22   7 N        0.911    -0.248    26.449     7.438
    23   6 C        2.933    -0.012    28.309     8.726
    24   6 C        2.971     0.026    27.428     8.591
    25   6 C        1.913     0.120    28.146     8.568
    26   7 N        0.911    -0.248    26.449     7.438
    27   6 C        2.930    -0.014    28.372     8.735
    28   6 C        2.983     0.010    27.780     8.646
    29   6 C        2.917    -0.034    28.837     8.806
    30   6 C        2.914    -0.026    28.650     8.777
    31   6 C        2.914    -0.026    28.650     8.777
    32   6 C        2.917    -0.034    28.837     8.806
    33   6 C        2.983     0.010    27.780     8.646
    34   6 C        2.930    -0.014    28.372     8.735
    35   1 H        0.926     0.054     2.265     2.354
    36   1 H        0.926     0.059     2.208     2.324
    37   1 H        0.926     0.033     2.548     2.496
    38   1 H        0.926     0.038     2.469     2.457
    39   1 H        0.926     0.038     2.469     2.457
    40   1 H        0.926     0.033     2.547     2.496
    41   1 H        0.926     0.059     2.208     2.324
    42   1 H        0.926     0.054     2.265     2.354
    43   1 H        0.926     0.059     2.208     2.324
    44   1 H        0.926     0.033     2.547     2.496
    45   1 H        0.926     0.038     2.469     2.457
    46   1 H        0.926     0.038     2.469     2.457
    47   1 H        0.926     0.033     2.548     2.496
    48   1 H        0.926     0.059     2.208     2.324

molecular dipole:
                 x           y           z       tot (Debye)
 q only:       -0.001      -0.000       0.000
   full:       -0.000      -0.000       0.000       0.002

 projected vibrational frequencies (cm⁻¹)
eigval :       -0.00    -0.00    -0.00     0.00     0.00     0.00
eigval :       14.32    16.45    20.24    34.95    51.67    53.55
eigval :       68.47    87.74    97.37   103.07   113.74   115.70
eigval :      129.56   140.15   146.35   149.44   187.58   195.51
eigval :      208.78   213.11   226.98   240.23   249.05   341.46
eigval :      342.28   374.89   381.74   391.08   400.08   411.02
eigval :      422.86   426.19   434.31   444.66   444.90   450.47
eigval :      452.84   455.22   510.07   510.54   517.75   560.31
eigval :      563.90   570.22   605.46   612.29   612.62   612.92
eigval :      616.28   634.00   637.98   648.48   658.26   676.31
eigval :      691.46   737.03   746.46   772.64   774.15   809.58
eigval :      832.85   835.40   872.99   874.37   883.73   885.03
eigval :      899.96   905.95   907.96   919.01   919.62   930.38
eigval :      930.75   931.37   960.94   961.52   982.81   983.09
eigval :      996.44  1032.25  1082.76  1083.19  1134.49  1139.15
eigval :     1153.38  1153.75  1163.37  1182.18  1186.35  1188.28
eigval :     1229.44  1229.88  1233.03  1255.58  1264.94  1282.11
eigval :     1282.27  1304.58  1304.82  1341.48  1348.48  1372.52
eigval :     1382.73  1409.92  1411.30  1412.50  1420.57  1424.43
eigval :     1427.41  1454.16  1484.09  1526.33  1531.10  1539.96
eigval :     1554.03  1554.29  1558.49  1558.59  1606.38  1621.09
eigval :     2368.38  2368.40  2374.27  2374.79  3078.06  3078.10
eigval :     3081.53  3081.70  3088.82  3088.93  3094.84  3094.97
eigval :     3095.39  3095.54  3095.85  3097.25  3097.40  3097.48

   temp. (K)  partition function   enthalpy   heat capacity  entropy
                                   cal/mol     cal/K/mol   cal/K/mol   J/K/mol
 298.15  VIB  0.151E+13            15813.550     96.666     98.993
         ROT  0.717E+07              888.752      2.981     34.351
         INT  0.108E+20            16702.303     99.646    133.344
         TR   0.864E+28             1481.254      4.968     44.049
         TOT                       18183.5568   104.6146   177.3931   742.2125

       T/K    H(0)-H(T)+PV         H(T)/Eh          T*S/Eh         G(T)/Eh
   ------------------------------------------------------------------------
    298.15    0.289773E-01    0.366393E+00    0.842852E-01    0.282108E+00
   ------------------------------------------------------------------------

         :::::::::::::::::::::::::::::::::::::::::::::::::::::
         ::                  THERMODYNAMIC                  ::
         :::::::::::::::::::::::::::::::::::::::::::::::::::::
         :: total free energy         -82.673307087380 Eh   ::
         ::.................................................::
         :: total energy              -82.955414710783 Eh   ::
         :: zero point energy           0.337415446404 Eh   ::
         :: G(RRHO) w/o ZPVE           -0.055307823001 Eh   ::
         :: G(RRHO) contrib.            0.282107623403 Eh   ::
         :::::::::::::::::::::::::::::::::::::::::::::::::::::

           -------------------------------------------------
          | TOTAL ENERGY              -82.955414710783 Eh   |
          | TOTAL ENTHALPY            -82.589021922201 Eh   |
          | TOTAL FREE ENERGY         -82.673307087380 Eh   |
          | GRADIENT NORM               0.000110922235 Eh/α |
          | HOMO-LUMO GAP               2.092178561138 eV   |
           -------------------------------------------------

 * finished run on 2025/09/09 at 11:37:06.593
