   * xtb version 6.7.1 (edcfbbe) compiled by 'albert@albert-system' on 2024-07-22

   ID    Z sym.   atoms
    1    7 N      1, 7, 22, 26
    2    6 C      2-6, 8-21, 23-25, 27-34
    3    1 H      35-48

          program call               : xtb data2507/toluene/DCA/DCA_toluene_T1_crest.xyz --gfn 2 --uhf 2 --gbsa toluene --ohess vtight --parallel 40 --molden --ceasefiles --namespace data2507/toluene/DCA/DCA_toluene_T1_finalOpt
      * Solvation model:               GBSA
        Solvent                        toluene
        Solvent mass                       9.2140E+01 g/mol
          :  Hamiltonian                  GFN2-xTB          :
 * total energy  :   -82.8872694 Eh     change       -0.1883677E-08 Eh
 * total energy  :   -82.8873023 Eh     change       -0.3289227E-04 Eh
 * total energy  :   -82.8873091 Eh     change       -0.6763553E-05 Eh
 * total energy  :   -82.8873125 Eh     change       -0.3378496E-05 Eh
 * total energy  :   -82.8873136 Eh     change       -0.1183009E-05 Eh
 * total energy  :   -82.8873146 Eh     change       -0.9699835E-06 Eh
 * total energy  :   -82.8873152 Eh     change       -0.6374158E-06 Eh
 * total energy  :   -82.8873154 Eh     change       -0.1278965E-06 Eh
 * total energy  :   -82.8873156 Eh     change       -0.2448289E-06 Eh
 * total energy  :   -82.8873158 Eh     change       -0.2256500E-06 Eh
 * total energy  :   -82.8873175 Eh     change       -0.3233965E-06 Eh
 * total energy  :   -82.8873178 Eh     change       -0.2440202E-06 Eh
 * total energy  :   -82.8873180 Eh     change       -0.1841047E-06 Eh
 * total energy  :   -82.8873181 Eh     change       -0.1621277E-06 Eh
 * total energy  :   -82.8873183 Eh     change       -0.1442091E-06 Eh
 * total energy  :   -82.8873184 Eh     change       -0.1468031E-06 Eh
 * total energy  :   -82.8873186 Eh     change       -0.1540395E-06 Eh
 * total energy  :   -82.8873186 Eh     change        0.9512604E-09 Eh
 * total energy  :   -82.8873186 Eh     change       -0.3282179E-07 Eh
   *** GEOMETRY OPTIMIZATION CONVERGED AFTER 23 ITERATIONS ***

 final structure:
================
48
 xtb: 6.7.1 (edcfbbe)
N           -6.25116539572554        2.11002726878698       -2.70411559440299
C           -5.68796516234406        1.49255343509354       -1.91854017376963
C           -4.99018858815269        0.73869853968200       -0.94507581526871
C           -5.70630425898541        0.00372244917005        0.00078020349197
C           -4.99287304427992       -0.73262250478080        0.94758352404018
C           -5.69367827124689       -1.48468696629227        1.92026892726493
N           -6.25942670267492       -2.10061326712149        2.70522452300137
C           -3.60075202758907       -0.73735267207857        0.94992994817163
C           -2.88203700899300        0.00087704025532        0.00264514495739
C           -1.42409689957818       -0.00009003182135        0.00329331183729
C           -0.71355157090805       -1.23986353728103       -0.03016938746273
C           -1.37236139210161       -2.46728178201388       -0.15565757670441
C           -0.68320406455196       -3.67633686598329       -0.09142669067778
C            0.68110235200804       -3.67640299383780        0.10817310104720
C            1.37090099416693       -2.46752345157821        0.16856059681104
C            0.71273097398158       -1.24017385374068        0.03917203211067
C            1.42407847855719       -0.00098392135908        0.00167381741830
C            2.88203219656754       -0.00124709419218        0.00075957487105
C            3.60002720789055        0.74006786822319        0.94617094879078
C            4.99213842111588        0.73690774492877        0.94375055682390
C            5.69200200638248        1.49228318087027        1.91454194477196
N            6.25676726891848        2.11077277445053        2.69818791101626
C            5.70626595466217       -0.00089809175553       -0.00139641796065
C            4.99085771736403       -0.73894486719274       -0.94538381623949
C            5.68940719214037       -1.49394849033199       -1.91740394827060
N            6.25340894127828       -2.11210889143531       -2.70186373194494
C            3.59873620066277       -0.74249318773877       -0.94566725948825
C            0.71349731552092        1.23866364508790       -0.03472603680425
C            1.37216551435910        2.46564881700838       -0.16509045030226
C            0.68317641263010        3.67491954027682       -0.10332730460490
C           -0.68078074057596        3.67562006215616        0.09863387193925
C           -1.37054335211714        2.46694695652365        0.16362875537297
C           -0.71266066702055        1.23919585509584        0.03658746554269
C           -3.59808976902394        0.74058169955437       -0.94552502449682
H           -6.78557561270740        0.00480006785036        0.00010158937370
H           -3.07344753939029       -1.29208107349151        1.71184118351177
H           -2.43940853494875       -2.48786932043258       -0.31468259333420
H           -1.22622112065272       -4.60460736802082       -0.18256286423161
H            1.22360709134467       -4.60467927742031        0.20224829275284
H            2.43796786782932       -2.48814579457710        0.32746909528305
H            3.07208283341406        1.29621753350570        1.70660384522379
H            6.78553849656695       -0.00066475076275       -0.00229746425643
H            3.06978947740729       -1.29876998693634       -1.70531025982100
H            2.43895271059788        2.48569100762570       -0.32593437235139
H            1.22606810527928        4.60288733936147       -0.19818677948294
H           -1.22309203859475        4.60418102173614        0.19097054685974
H           -2.43731172793372        2.48810719978151        0.32446526494430
H           -3.06860573994917        1.29447861735184       -1.70653336785468

          :  Hamiltonian                  GFN2-xTB          :
         :: gradient norm              0.000046984765 Eh/a0 ::
         :: HOMO-LUMO gap              0.463051576126 eV    ::
         :: SCC energy               -84.578142171054 Eh    ::
         :: -> dispersion             -0.068054300070 Eh    ::
         :: -> Gsolv                  -0.048390708641 Eh    ::
         :: repulsion energy           1.690823574478 Eh    ::

    * Orbital Energies and Occupations

         #    Occupation            Energy/Eh            Energy/eV
      -------------------------------------------------------------
         1        2.0000           -0.6903664             -18.7858
       ...           ...                  ...                  ...
        66        2.0000           -0.4427377             -12.0475
        67        2.0000           -0.4425420             -12.0422
        68        2.0000           -0.4399326             -11.9712
        69        2.0000           -0.4385539             -11.9337
        70        2.0000           -0.4356667             -11.8551
        71        2.0000           -0.4353197             -11.8457
        72        2.0000           -0.4341000             -11.8125
        73        2.0000           -0.4293935             -11.6844
        74        2.0000           -0.4258784             -11.5887
        75        2.0000           -0.4212840             -11.4637
        76        2.0000           -0.4196687             -11.4198
        77        1.0000           -0.3741970             -10.1824
        78        0.9998           -0.3141767              -8.5492 (HOMO)
        79        0.0001           -0.2971599              -8.0861 (LUMO)
        80        0.0001           -0.2969514              -8.0805
        81                         -0.2831693              -7.7054
        82                         -0.2801209              -7.6225
        83                         -0.2479112              -6.7460
        84                         -0.2438230              -6.6348
        85                         -0.2300392              -6.2597
        86                         -0.2299633              -6.2576
        87                         -0.2275269              -6.1913
        88                         -0.2215402              -6.0284
        89                         -0.2205549              -6.0016
       ...                                ...                  ...
       150                          1.1476395              31.2289
      -------------------------------------------------------------
                  HL-Gap            0.0170168 Eh            0.4631 eV

     #   Z          covCN         q      C6AA      α(0)
     1   7 N        0.911    -0.254    26.602     7.460
     2   6 C        1.914     0.119    28.169     8.571
     3   6 C        2.970     0.023    27.489     8.600
     4   6 C        2.932    -0.018    28.450     8.748
     5   6 C        2.970     0.023    27.489     8.600
     6   6 C        1.914     0.119    28.169     8.571
     7   7 N        0.911    -0.254    26.602     7.460
     8   6 C        2.930    -0.018    28.447     8.747
     9   6 C        2.971     0.026    27.412     8.588
    10   6 C        2.972    -0.004    28.124     8.699
    11   6 C        2.976     0.013    27.711     8.635
    12   6 C        2.921    -0.030    28.756     8.794
    13   6 C        2.913    -0.024    28.611     8.771
    14   6 C        2.913    -0.024    28.611     8.771
    15   6 C        2.921    -0.030    28.755     8.794
    16   6 C        2.977     0.013    27.712     8.635
    17   6 C        2.972    -0.004    28.124     8.699
    18   6 C        2.971     0.026    27.412     8.588
    19   6 C        2.931    -0.017    28.446     8.747
    20   6 C        2.970     0.023    27.489     8.600
    21   6 C        1.914     0.119    28.169     8.571
    22   7 N        0.911    -0.254    26.602     7.460
    23   6 C        2.932    -0.018    28.450     8.748
    24   6 C        2.970     0.023    27.489     8.600
    25   6 C        1.914     0.119    28.169     8.571
    26   7 N        0.911    -0.254    26.602     7.460
    27   6 C        2.931    -0.017    28.446     8.747
    28   6 C        2.977     0.013    27.711     8.635
    29   6 C        2.921    -0.030    28.755     8.794
    30   6 C        2.913    -0.024    28.611     8.771
    31   6 C        2.913    -0.024    28.611     8.771
    32   6 C        2.921    -0.030    28.755     8.794
    33   6 C        2.977     0.013    27.712     8.635
    34   6 C        2.931    -0.017    28.446     8.747
    35   1 H        0.926     0.049     2.337     2.391
    36   1 H        0.926     0.058     2.222     2.331
    37   1 H        0.926     0.042     2.419     2.432
    38   1 H        0.926     0.044     2.397     2.421
    39   1 H        0.926     0.044     2.397     2.421
    40   1 H        0.926     0.042     2.419     2.432
    41   1 H        0.926     0.058     2.223     2.331
    42   1 H        0.926     0.049     2.337     2.391
    43   1 H        0.926     0.058     2.222     2.331
    44   1 H        0.926     0.042     2.419     2.432
    45   1 H        0.926     0.044     2.397     2.421
    46   1 H        0.926     0.044     2.397     2.421
    47   1 H        0.926     0.042     2.420     2.432
    48   1 H        0.926     0.058     2.223     2.331

molecular dipole:
                 x           y           z       tot (Debye)
 q only:        0.001      -0.002       0.003
   full:        0.001      -0.003       0.003       0.011

 projected vibrational frequencies (cm⁻¹)
eigval :       -0.00    -0.00    -0.00     0.00     0.00     0.00
eigval :       14.44    14.83    31.16    33.20    54.73    54.85
eigval :       72.74    87.92    97.68   110.06   110.41   111.88
eigval :      122.91   139.08   157.70   173.14   190.07   190.61
eigval :      219.07   233.62   239.94   252.75   257.75   347.95
eigval :      351.56   353.17   371.64   382.92   388.82   394.49
eigval :      416.18   417.86   417.98   436.41   438.93   447.66
eigval :      452.06   467.28   510.39   510.52   518.48   543.20
eigval :      557.16   568.31   599.13   604.48   604.55   605.53
eigval :      606.30   618.87   628.47   652.83   655.74   669.23
eigval :      669.29   714.73   739.10   744.13   758.16   801.93
eigval :      821.25   824.89   845.75   845.97   870.39   879.77
eigval :      886.77   892.20   904.41   904.62   908.85   913.89
eigval :      915.97   936.85   962.13   967.91   977.71   977.77
eigval :     1001.17  1034.96  1103.66  1106.19  1113.70  1132.58
eigval :     1153.13  1153.27  1168.78  1169.22  1180.07  1182.02
eigval :     1227.32  1233.69  1238.97  1243.82  1246.24  1259.22
eigval :     1278.65  1300.97  1312.00  1314.07  1323.55  1341.52
eigval :     1356.08  1368.08  1373.90  1398.85  1401.57  1404.35
eigval :     1409.56  1415.24  1417.22  1473.90  1485.66  1506.35
eigval :     1506.78  1512.00  1526.44  1534.01  1537.30  1553.34
eigval :     2362.90  2362.91  2366.37  2369.19  3084.97  3085.09
eigval :     3089.38  3089.53  3093.50  3093.94  3094.12  3094.84
eigval :     3096.04  3096.61  3101.98  3102.18  3102.22  3103.12

   temp. (K)  partition function   enthalpy   heat capacity  entropy
                                   cal/mol     cal/K/mol   cal/K/mol   J/K/mol
 298.15  VIB  0.898E+12            15851.602     97.806     98.683
         ROT  0.721E+07              888.752      2.981     34.361
         INT  0.647E+19            16740.355    100.787    133.044
         TR   0.864E+28             1481.254      4.968     44.049
         TOT                       18221.6086   105.7551   177.0930   740.9570

       T/K    H(0)-H(T)+PV         H(T)/Eh          T*S/Eh         G(T)/Eh
   ------------------------------------------------------------------------
    298.15    0.290380E-01    0.363841E+00    0.841426E-01    0.279698E+00
   ------------------------------------------------------------------------

         :::::::::::::::::::::::::::::::::::::::::::::::::::::
         ::                  THERMODYNAMIC                  ::
         :::::::::::::::::::::::::::::::::::::::::::::::::::::
         :: total free energy         -82.607620617516 Eh   ::
         ::.................................................::
         :: total energy              -82.887318596585 Eh   ::
         :: zero point energy           0.334802580908 Eh   ::
         :: G(RRHO) w/o ZPVE           -0.055104601838 Eh   ::
         :: G(RRHO) contrib.            0.279697979069 Eh   ::
         :::::::::::::::::::::::::::::::::::::::::::::::::::::

           -------------------------------------------------
          | TOTAL ENERGY              -82.887318596585 Eh   |
          | TOTAL ENTHALPY            -82.523478033987 Eh   |
          | TOTAL FREE ENERGY         -82.607620617516 Eh   |
          | GRADIENT NORM               0.000046933014 Eh/α |
          | HOMO-LUMO GAP               0.463050220763 eV   |
           -------------------------------------------------

 * finished run on 2025/09/09 at 11:39:07.803
