   * xtb version 6.7.1 (edcfbbe) compiled by 'albert@albert-system' on 2024-07-22

   ID    Z sym.   atoms
    1    7 N      1, 7, 22, 26
    2    6 C      2-6, 8-21, 23-25, 27-34
    3    1 H      35-48

          program call               : xtb data2507/toluene/DCA/DCA_toluene_S0_finalOpt.xtbopt.xyz --gfn 2 --uhf 2 --gbsa toluene --ohess vtight --parallel 40 --molden --ceasefiles --namespace data2507/toluene/DCA/DCA_toluene_T1_preOpt
      * Solvation model:               GBSA
        Solvent                        toluene
        Solvent mass                       9.2140E+01 g/mol
          :  Hamiltonian                  GFN2-xTB          :
 * total energy  :   -82.8769100 Eh     change       -0.1021434E-08 Eh
 * total energy  :   -82.8824383 Eh     change       -0.5528254E-02 Eh
 * total energy  :   -82.8836896 Eh     change       -0.1251336E-02 Eh
 * total energy  :   -82.8828085 Eh     change        0.8811040E-03 Eh
 * total energy  :   -82.8839803 Eh     change       -0.1171780E-02 Eh
 * total energy  :   -82.8838752 Eh     change        0.1051062E-03 Eh
 * total energy  :   -82.8840828 Eh     change       -0.2076642E-03 Eh
 * total energy  :   -82.8841136 Eh     change       -0.3080302E-04 Eh
 * total energy  :   -82.8842113 Eh     change       -0.9763892E-04 Eh
 * total energy  :   -82.8843690 Eh     change       -0.1576905E-03 Eh
 * total energy  :   -82.8873171 Eh     change       -0.1391316E-06 Eh
 * total energy  :   -82.8873172 Eh     change       -0.1508894E-06 Eh
 * total energy  :   -82.8873174 Eh     change       -0.1786611E-06 Eh
 * total energy  :   -82.8873176 Eh     change       -0.1859212E-06 Eh
 * total energy  :   -82.8873178 Eh     change       -0.1642300E-06 Eh
 * total energy  :   -82.8873179 Eh     change       -0.1368721E-06 Eh
 * total energy  :   -82.8873180 Eh     change       -0.1151001E-06 Eh
 * total energy  :   -82.8873181 Eh     change       -0.1023650E-06 Eh
 * total energy  :   -82.8873182 Eh     change       -0.7884364E-07 Eh
   *** GEOMETRY OPTIMIZATION CONVERGED AFTER 82 ITERATIONS ***

 final structure:
================
48
 xtb: 6.7.1 (edcfbbe)
N           -6.25274293118761        2.12271740012924       -2.69660336752049
C           -5.68900518406244        1.50200254594453       -1.91396935045692
C           -4.99068336393294        0.74346572589458       -0.94455035119074
C           -5.70625442352028        0.00262360221880       -0.00286739115407
C           -4.99232187169963       -0.73896189778527        0.93946900401642
C           -5.69236032888189       -1.49674849184446        1.90823828332992
N           -6.25746205790852       -2.11684122462272        2.69038134135242
C           -3.60019854790997       -0.74323335845856        0.94130735645443
C           -2.88211428769791        0.00118561070422       -0.00152892588607
C           -1.42411276938435        0.00057081423057       -0.00083045880297
C           -0.71371267951231       -1.23898867051140       -0.04469008559303
C           -1.37255024272106       -2.46516631193501       -0.18103245502093
C           -0.68322079969109       -3.67477943452491       -0.12845759974055
C            0.68137559373020       -3.67672443396164        0.06888546077563
C            1.37125321385765       -2.46841573163856        0.13981009761414
C            0.71257314261251       -1.23997653063032        0.02416306433165
C            1.42360902976056       -0.00051994183367        0.00049005386646
C            2.88196290736101       -0.00118828145105        0.00151204720347
C            3.59852335846921        0.72095625095623        0.96241431056483
C            4.99069000838637        0.71529626170982        0.96329015559828
C            5.68977498362075        1.44765662486461        1.95212416498409
N            6.25430373538538        2.04715132297825        2.75056048922247
C            5.70569304665659       -0.00342878338512        0.00425061891350
C            4.99142700287666       -0.72082541901931       -0.95632574593483
C            5.69128192333939       -1.45420925290504       -1.94386282412470
N            6.25633362272788       -2.05449905350333       -2.74132986916065
C            3.59926136543031       -0.72424759825902       -0.95816839649195
C            0.71355354575593        1.23946938634232       -0.02394455139113
C            1.37331037081839        2.46737210018462       -0.13912929442357
C            0.68428428240253        3.67622283955511       -0.06906202924547
C           -0.68048380927542        3.67535633542235        0.12711490135211
C           -1.37079347098881        2.46628627500332        0.17931355220857
C           -0.71279388692510        1.23958374216219        0.04362679880119
C           -3.59856114270839        0.74630394659712       -0.94506441218239
H           -6.78552942978078        0.00318464711883       -0.00335984612428
H           -3.07231149180683       -1.30261395128684        1.69941034941808
H           -2.43978527317655       -2.48442374715076       -0.33898173681338
H           -1.22638739189656       -4.60218167928270       -0.22722908694996
H            1.22405060291494       -4.60584188371174        0.15317990277988
H            2.43868931578226       -2.49023704587808        0.29612277964836
H            3.06954279574924        1.26357142842838        1.73186947581138
H            6.78496973141338       -0.00442307815412        0.00540422653038
H            3.07093231565287       -1.26595785491681       -1.72870488600165
H            2.44091669483916        2.48831038817861       -0.29441421174753
H            1.22771548156708        4.60492300250469       -0.15307898185527
H           -1.22303579445879        4.60318689967176        0.22526080752407
H           -2.43813561531899        2.48639097982584        0.33643548017357
H           -3.06936571288835        1.30514843008150       -1.70265162631634

          :  Hamiltonian                  GFN2-xTB          :
         :: gradient norm              0.000029921315 Eh/a0 ::
         :: HOMO-LUMO gap              0.459172110936 eV    ::
         :: SCC energy               -84.578211834688 Eh    ::
         :: -> dispersion             -0.068040411795 Eh    ::
         :: -> Gsolv                  -0.048387712756 Eh    ::
         :: repulsion energy           1.690893624190 Eh    ::

    * Orbital Energies and Occupations

         #    Occupation            Energy/Eh            Energy/eV
      -------------------------------------------------------------
         1        2.0000           -0.6904318             -18.7876
       ...           ...                  ...                  ...
        66        2.0000           -0.4427474             -12.0478
        67        2.0000           -0.4425596             -12.0427
        68        2.0000           -0.4399606             -11.9719
        69        2.0000           -0.4385996             -11.9349
        70        2.0000           -0.4356980             -11.8559
        71        2.0000           -0.4353455             -11.8464
        72        2.0000           -0.4341216             -11.8130
        73        2.0000           -0.4293323             -11.6827
        74        2.0000           -0.4258888             -11.5890
        75        2.0000           -0.4212823             -11.4637
        76        2.0000           -0.4197341             -11.4215
        77        1.0000           -0.3742020             -10.1826
        78        0.9998           -0.3140816              -8.5466 (HOMO)
        79        0.0001           -0.2972072              -8.0874 (LUMO)
        80        0.0001           -0.2969890              -8.0815
        81                         -0.2832033              -7.7064
        82                         -0.2801914              -7.6244
        83                         -0.2478572              -6.7445
        84                         -0.2438005              -6.6341
        85                         -0.2300705              -6.2605
        86                         -0.2299801              -6.2581
        87                         -0.2274332              -6.1888
        88                         -0.2214792              -6.0268
        89                         -0.2205959              -6.0027
       ...                                ...                  ...
       150                          1.1476312              31.2286
      -------------------------------------------------------------
                  HL-Gap            0.0168743 Eh            0.4592 eV

     #   Z          covCN         q      C6AA      α(0)
     1   7 N        0.911    -0.254    26.602     7.460
     2   6 C        1.914     0.119    28.169     8.571
     3   6 C        2.970     0.023    27.489     8.600
     4   6 C        2.932    -0.018    28.450     8.748
     5   6 C        2.970     0.023    27.489     8.600
     6   6 C        1.914     0.119    28.169     8.571
     7   7 N        0.911    -0.254    26.602     7.460
     8   6 C        2.931    -0.017    28.446     8.747
     9   6 C        2.971     0.026    27.412     8.588
    10   6 C        2.972    -0.004    28.124     8.699
    11   6 C        2.976     0.013    27.712     8.635
    12   6 C        2.921    -0.030    28.756     8.794
    13   6 C        2.913    -0.024    28.612     8.771
    14   6 C        2.913    -0.024    28.611     8.771
    15   6 C        2.921    -0.030    28.756     8.794
    16   6 C        2.977     0.013    27.712     8.635
    17   6 C        2.972    -0.004    28.125     8.699
    18   6 C        2.971     0.026    27.409     8.588
    19   6 C        2.930    -0.017    28.445     8.747
    20   6 C        2.970     0.023    27.488     8.600
    21   6 C        1.913     0.119    28.168     8.571
    22   7 N        0.911    -0.254    26.599     7.459
    23   6 C        2.932    -0.018    28.448     8.747
    24   6 C        2.970     0.023    27.488     8.600
    25   6 C        1.913     0.119    28.168     8.571
    26   7 N        0.911    -0.254    26.599     7.459
    27   6 C        2.930    -0.017    28.445     8.747
    28   6 C        2.977     0.013    27.712     8.635
    29   6 C        2.921    -0.030    28.756     8.794
    30   6 C        2.913    -0.024    28.611     8.771
    31   6 C        2.913    -0.024    28.612     8.771
    32   6 C        2.921    -0.030    28.756     8.794
    33   6 C        2.976     0.013    27.712     8.635
    34   6 C        2.931    -0.017    28.446     8.747
    35   1 H        0.926     0.049     2.337     2.391
    36   1 H        0.926     0.058     2.223     2.331
    37   1 H        0.926     0.042     2.420     2.433
    38   1 H        0.926     0.044     2.397     2.421
    39   1 H        0.926     0.044     2.397     2.421
    40   1 H        0.926     0.042     2.422     2.434
    41   1 H        0.926     0.058     2.223     2.331
    42   1 H        0.926     0.049     2.336     2.390
    43   1 H        0.926     0.058     2.223     2.331
    44   1 H        0.926     0.042     2.422     2.433
    45   1 H        0.926     0.044     2.397     2.421
    46   1 H        0.926     0.044     2.397     2.421
    47   1 H        0.926     0.042     2.420     2.433
    48   1 H        0.926     0.058     2.223     2.331

molecular dipole:
                 x           y           z       tot (Debye)
 q only:        0.006       0.000      -0.001
   full:        0.006       0.000      -0.001       0.015

 projected vibrational frequencies (cm⁻¹)
eigval :       -0.00    -0.00     0.00     0.00     0.00     0.00
eigval :       11.29    15.35    31.33    33.73    54.81    55.53
eigval :       73.89    87.96    97.77   110.77   111.15   112.31
eigval :      123.35   139.50   155.71   171.36   189.87   190.90
eigval :      218.54   232.31   239.53   251.54   255.52   346.99
eigval :      350.67   355.58   371.65   383.70   389.04   394.42
eigval :      416.39   418.47   420.20   436.34   438.73   447.53
eigval :      452.12   467.23   510.43   510.66   518.69   543.31
eigval :      557.42   568.68   599.41   604.66   605.12   605.94
eigval :      608.54   618.60   629.22   652.66   655.34   668.83
eigval :      671.72   716.56   738.95   744.68   758.41   801.85
eigval :      820.71   824.23   845.69   845.79   869.29   877.67
eigval :      886.04   892.16   902.82   903.21   908.69   911.36
eigval :      914.05   936.73   961.92   967.52   977.72   977.83
eigval :     1000.66  1033.67  1103.39  1105.88  1113.59  1130.59
eigval :     1151.57  1153.00  1166.58  1168.60  1179.96  1181.91
eigval :     1225.58  1231.28  1237.93  1243.69  1246.16  1259.08
eigval :     1278.59  1300.80  1311.88  1313.95  1323.68  1341.67
eigval :     1356.50  1368.55  1374.03  1398.92  1401.66  1404.33
eigval :     1408.96  1414.74  1417.36  1474.06  1485.60  1506.23
eigval :     1506.66  1512.18  1526.63  1534.03  1537.37  1553.50
eigval :     2362.85  2362.92  2366.35  2369.18  3084.92  3085.04
eigval :     3089.40  3089.54  3093.16  3093.63  3093.83  3094.50
eigval :     3096.08  3096.61  3101.96  3102.12  3102.16  3103.12

   temp. (K)  partition function   enthalpy   heat capacity  entropy
                                   cal/mol     cal/K/mol   cal/K/mol   J/K/mol
 298.15  VIB  0.106E+13            15854.695     97.851     98.874
         ROT  0.721E+07              888.752      2.981     34.361
         INT  0.763E+19            16743.448    100.832    133.235
         TR   0.864E+28             1481.254      4.968     44.049
         TOT                       18224.7015   105.8002   177.2836   741.7544

       T/K    H(0)-H(T)+PV         H(T)/Eh          T*S/Eh         G(T)/Eh
   ------------------------------------------------------------------------
    298.15    0.290429E-01    0.363794E+00    0.842331E-01    0.279560E+00
   ------------------------------------------------------------------------

         :::::::::::::::::::::::::::::::::::::::::::::::::::::
         ::                  THERMODYNAMIC                  ::
         :::::::::::::::::::::::::::::::::::::::::::::::::::::
         :: total free energy         -82.607757748464 Eh   ::
         ::.................................................::
         :: total energy              -82.887318209568 Eh   ::
         :: zero point energy           0.334750688699 Eh   ::
         :: G(RRHO) w/o ZPVE           -0.055190227595 Eh   ::
         :: G(RRHO) contrib.            0.279560461104 Eh   ::
         :::::::::::::::::::::::::::::::::::::::::::::::::::::

           -------------------------------------------------
          | TOTAL ENERGY              -82.887318209568 Eh   |
          | TOTAL ENTHALPY            -82.523524610425 Eh   |
          | TOTAL FREE ENERGY         -82.607757748464 Eh   |
          | GRADIENT NORM               0.000029929221 Eh/α |
          | HOMO-LUMO GAP               0.459173999594 eV   |
           -------------------------------------------------

 * finished run on 2025/09/09 at 11:37:10.971
