   * xtb version 6.7.1 (edcfbbe) compiled by 'albert@albert-system' on 2024-07-22

   ID    Z sym.   atoms
    1    6 C      1-9, 11-20, 22-25, 27-30, 32, 33, 35, 36, 38-44
    2    7 N      10, 21, 26, 31, 34, 37
    3    1 H      45-66

          program call               : xtb data2507/gas/3-AcBPtCN/3-AcBPtCN_gas_S0_crest.xyz --gfn 2 --ohess vtight --parallel 40 --molden --ceasefiles --namespace data2507/gas/3-AcBPtCN/3-AcBPtCN_gas_S0_finalOpt
          :  Hamiltonian                  GFN2-xTB          :
 * total energy  :  -110.0813785 Eh     change       -0.5034494E-08 Eh
 * total energy  :  -110.0813763 Eh     change        0.2159089E-05 Eh
 * total energy  :  -110.0813795 Eh     change       -0.3177250E-05 Eh
 * total energy  :  -110.0813793 Eh     change        0.2272388E-06 Eh
 * total energy  :  -110.0813792 Eh     change        0.4494450E-07 Eh
 * total energy  :  -110.0813802 Eh     change       -0.9204802E-06 Eh
 * total energy  :  -110.0813804 Eh     change       -0.1982995E-06 Eh
 * total energy  :  -110.0813799 Eh     change        0.4957036E-06 Eh
 * total energy  :  -110.0813807 Eh     change       -0.8619640E-06 Eh
 * total energy  :  -110.0813806 Eh     change        0.9698297E-07 Eh
 * total energy  :  -110.0813818 Eh     change       -0.2007294E-06 Eh
 * total energy  :  -110.0813819 Eh     change       -0.1659670E-06 Eh
 * total energy  :  -110.0813821 Eh     change       -0.1544697E-06 Eh
 * total energy  :  -110.0813822 Eh     change       -0.1332238E-06 Eh
 * total energy  :  -110.0813824 Eh     change       -0.1418785E-06 Eh
 * total energy  :  -110.0813825 Eh     change       -0.1604841E-06 Eh
 * total energy  :  -110.0813827 Eh     change       -0.1751342E-06 Eh
 * total energy  :  -110.0813827 Eh     change        0.1283207E-07 Eh
 * total energy  :  -110.0813827 Eh     change       -0.1547956E-07 Eh
   *** GEOMETRY OPTIMIZATION CONVERGED AFTER 23 ITERATIONS ***

 final structure:
================
66
 xtb: 6.7.1 (edcfbbe)
C           -7.28163149677290        0.23509230944221       -0.54537120464037
C           -6.26201391718398        1.13095864511876        0.18157070170176
C           -6.98673176943865        2.24831997416881        0.95418925641044
C           -5.35347092743757        1.76183783787619       -0.85460896094132
C           -5.90777001436980        2.55648564959619       -1.84973505512937
C           -5.14169187033272        3.12046835523074       -2.85183596447960
C           -3.78285370765566        2.86542105629913       -2.88574102072774
C           -3.20673713850876        2.08261619125920       -1.90782215602858
C           -3.97176011905989        1.54903839787896       -0.86621322061525
N           -3.35927504349401        0.77576802631966        0.11566779692711
C           -1.95639877671090        0.62762227712509        0.09527366634323
C           -1.12946388533800        1.73523904916321        0.30719343486034
C            0.23327089868484        1.57483522087580        0.28766169480055
C            0.80671518134711        0.31822701781913        0.06166399016740
C           -0.01443735358610       -0.80920987464407       -0.14849993425997
C           -1.39699773794070       -0.62056899151834       -0.13151658157380
C            0.59042723001790       -2.11557456250327       -0.37616390798709
C           -0.17377863989416       -3.26747455517371       -0.57268071370334
C            0.42960400014225       -4.49968631552047       -0.78544894649811
C           -0.37939815382400       -5.64426140023830       -0.98065590683658
N           -1.03630567542112       -6.56964346633940       -1.13975292416195
C            1.82453576480155       -4.61962801925969       -0.80748242487507
C            2.58972314095544       -3.49712389675859       -0.61155681644725
C            1.99435060130682       -2.24924916871580       -0.39534330729216
C            2.83792880449115       -1.09367039682974       -0.18635755029135
N            4.14609424779152       -1.24661467431796       -0.21251776102515
C            4.91170154521045       -0.16349090220859       -0.01360881626288
C            6.31436835971069       -0.28947350274877       -0.03391256793887
C            7.10348173763231        0.81727726440681        0.16923233057381
C            8.51404933468767        0.70032188286574        0.15054091921981
N            9.65405377219640        0.59092223175791        0.13257746308540
C            6.51125718427892        2.09569403422866        0.40116867599075
C            7.34816483549134        3.21881769414964        0.60835447909430
N            8.01297863320112        4.13603714394743        0.77697866069853
C            5.14508637283106        2.23820318010341        0.42409026734228
C            4.31869459735529        1.11506678299487        0.21769224606660
N            2.98723221003033        1.26032494949779        0.23967179867256
C            2.24229684221300        0.18809060770435        0.04483589682215
C           -4.09521269643024        0.16200623394277        1.12537825900046
C           -3.43883370740571       -0.55295395669390        2.13199338001364
C           -4.14456697594588       -1.18499900267060        3.13379549927467
C           -5.52476708610539       -1.10376202206816        3.16052262393951
C           -6.17358885766682       -0.36011085291630        2.19352827798510
C           -5.48716747538677        0.28741502411608        1.17444329386525
H           -7.95877680706018       -0.23552403534225        0.16171614915607
H           -7.87413664418591        0.81247399373647       -1.24927503359333
H           -6.76166373734839       -0.54706404385444       -1.09548161239581
H           -6.26017473537205        2.87183750409377        1.47203356824514
H           -7.66791397658124        1.83248503941297        1.69115850407524
H           -7.55944849061036        2.87789765218320        0.27908382072736
H           -6.97106761444171        2.74122342914294       -1.84868304995455
H           -5.60400413514833        3.73793696984436       -3.60635790017451
H           -3.16791674998994        3.26997645157866       -3.67548297656317
H           -2.14914582274258        1.87481814576961       -1.95905657477270
H           -1.57346206864123        2.70244271916636        0.48733416767773
H            0.89590697056034        2.40909264475459        0.45410730361381
H           -2.07209250141988       -1.44472664848223       -0.29842564898372
H           -1.25135344356152       -3.22784042128254       -0.56156762936741
H            2.27829271174726       -5.58452288836922       -0.97476067857711
H            3.66696862479902       -3.54757707257347       -0.61800236600190
H            6.74914617516007       -1.26152746888818       -0.20966569082079
H            4.68535257383575        3.19890481880937        0.59852738982447
H           -2.36109780968793       -0.60555531214347        2.13954860949561
H           -3.61206741074643       -1.73521738535627        3.89491100896801
H           -6.08972800996181       -1.59926574137993        3.93478616951832
H           -7.24884641487047       -0.28099327038331        2.24058921576354

          :  Hamiltonian                  GFN2-xTB          :
         :: gradient norm              0.000113980796 Eh/a0 ::
         :: HOMO-LUMO gap              0.572368954079 eV    ::
         :: SCC energy              -112.166652061869 Eh    ::
         :: -> dispersion             -0.096086350003 Eh    ::
         :: repulsion energy           2.085269349550 Eh    ::

    * Orbital Energies and Occupations

         #    Occupation            Energy/Eh            Energy/eV
      -------------------------------------------------------------
         1        2.0000           -0.7080149             -19.2661
       ...           ...                  ...                  ...
        90        2.0000           -0.4375404             -11.9061
        91        2.0000           -0.4371514             -11.8955
        92        2.0000           -0.4340853             -11.8121
        93        2.0000           -0.4337604             -11.8032
        94        2.0000           -0.4246209             -11.5545
        95        2.0000           -0.4230596             -11.5120
        96        2.0000           -0.4182800             -11.3820
        97        2.0000           -0.4175369             -11.3618
        98        2.0000           -0.4146070             -11.2820
        99        2.0000           -0.4085978             -11.1185
       100        2.0000           -0.4032934             -10.9742
       101        2.0000           -0.3813592             -10.3773
       102        2.0000           -0.3601833              -9.8011 (HOMO)
       103        0.0000           -0.3391491              -9.2287 (LUMO)
       104                         -0.3132706              -8.5245
       105                         -0.2899687              -7.8905
       106                         -0.2863213              -7.7912
       107                         -0.2696022              -7.3363
       108                         -0.2520391              -6.8583
       109                         -0.2355972              -6.4109
       110                         -0.2322016              -6.3185
       111                         -0.2300400              -6.2597
       112                         -0.2285986              -6.2205
       113                         -0.2275185              -6.1911
       ...                                ...                  ...
       198                          1.1712800              31.8722
      -------------------------------------------------------------
                  HL-Gap            0.0210342 Eh            0.5724 eV

     #   Z          covCN         q      C6AA      α(0)
     1   6 C        3.761    -0.104    22.532     6.767
     2   6 C        3.909     0.022    20.153     6.381
     3   6 C        3.761    -0.104    22.529     6.766
     4   6 C        2.980    -0.011    28.291     8.725
     5   6 C        2.928    -0.035    28.875     8.812
     6   6 C        2.917    -0.042    29.036     8.836
     7   6 C        2.920    -0.032    28.798     8.800
     8   6 C        2.924    -0.058    29.434     8.897
     9   6 C        2.927     0.057    26.721     8.477
    10   7 N        2.754    -0.066    22.514     7.047
    11   6 C        2.925     0.076    26.295     8.409
    12   6 C        2.918    -0.036    28.904     8.816
    13   6 C        2.923    -0.025    28.630     8.775
    14   6 C        2.988    -0.004    28.118     8.698
    15   6 C        2.975     0.008    27.825     8.653
    16   6 C        2.925    -0.044    29.082     8.844
    17   6 C        2.975     0.012    27.736     8.639
    18   6 C        2.931    -0.024    28.609     8.772
    19   6 C        2.972     0.025    27.432     8.591
    20   6 C        1.913     0.113    28.317     8.594
    21   7 N        0.911    -0.220    25.797     7.346
    22   6 C        2.923    -0.019    28.489     8.753
    23   6 C        2.923    -0.022    28.566     8.765
    24   6 C        2.988     0.005    27.905     8.665
    25   6 C        2.962     0.089    26.013     8.366
    26   7 N        1.849    -0.233    26.942     7.693
    27   6 C        2.966     0.086    26.087     8.378
    28   6 C        2.926    -0.028    28.692     8.784
    29   6 C        2.974     0.027    27.400     8.586
    30   6 C        1.911     0.115    28.268     8.587
    31   7 N        0.911    -0.206    25.479     7.300
    32   6 C        2.974     0.028    27.379     8.583
    33   6 C        1.911     0.115    28.261     8.585
    34   7 N        0.911    -0.205    25.462     7.298
    35   6 C        2.927    -0.028    28.704     8.786
    36   6 C        2.965     0.087    26.053     8.372
    37   7 N        1.849    -0.235    26.994     7.700
    38   6 C        2.961     0.090    26.005     8.364
    39   6 C        2.926     0.057    26.725     8.478
    40   6 C        2.924    -0.058    29.449     8.899
    41   6 C        2.920    -0.032    28.799     8.800
    42   6 C        2.917    -0.042    29.033     8.836
    43   6 C        2.928    -0.035    28.871     8.812
    44   6 C        2.980    -0.011    28.290     8.725
    45   1 H        0.925     0.041     2.430     2.438
    46   1 H        0.925     0.041     2.433     2.439
    47   1 H        0.925     0.032     2.554     2.499
    48   1 H        0.925     0.032     2.556     2.500
    49   1 H        0.925     0.041     2.433     2.439
    50   1 H        0.925     0.041     2.432     2.439
    51   1 H        0.926     0.034     2.534     2.489
    52   1 H        0.926     0.030     2.580     2.512
    53   1 H        0.926     0.031     2.579     2.511
    54   1 H        0.926     0.024     2.666     2.553
    55   1 H        0.926     0.052     2.289     2.366
    56   1 H        0.926     0.069     2.096     2.264
    57   1 H        0.926     0.050     2.319     2.381
    58   1 H        0.926     0.050     2.317     2.380
    59   1 H        0.926     0.052     2.297     2.370
    60   1 H        0.926     0.070     2.087     2.259
    61   1 H        0.926     0.068     2.111     2.272
    62   1 H        0.926     0.068     2.108     2.270
    63   1 H        0.926     0.023     2.684     2.562
    64   1 H        0.926     0.030     2.586     2.515
    65   1 H        0.926     0.031     2.575     2.510
    66   1 H        0.926     0.034     2.530     2.487

molecular dipole:
                 x           y           z       tot (Debye)
 q only:       -2.368       0.086      -0.003
   full:       -2.761       0.115       0.003       7.023

 projected vibrational frequencies (cm⁻¹)
eigval :       -0.00    -0.00    -0.00    -0.00     0.00     0.00
eigval :       10.88    15.78    18.14    23.39    38.83    43.56
eigval :       61.59    67.67    80.57    87.51    92.16    97.75
eigval :      103.21   107.60   113.85   125.96   129.08   144.56
eigval :      152.38   183.27   188.51   193.89   217.43   218.43
eigval :      234.71   240.56   256.57   279.88   293.06   305.76
eigval :      307.46   332.55   334.25   343.23   358.63   365.46
eigval :      369.80   378.70   380.42   392.89   408.90   416.64
eigval :      420.33   425.84   436.13   453.43   455.42   475.59
eigval :      479.22   493.05   509.12   514.65   532.73   536.21
eigval :      547.18   547.99   552.02   567.99   569.61   584.63
eigval :      593.96   605.75   619.74   643.69   646.80   648.41
eigval :      651.39   679.15   683.72   689.14   694.53   695.23
eigval :      708.84   724.98   733.07   739.58   770.83   771.30
eigval :      777.69   778.75   824.24   830.58   835.75   849.05
eigval :      854.78   862.80   868.76   870.53   872.69   874.31
eigval :      881.98   914.31   915.28   915.81   922.35   922.88
eigval :      924.07   930.31   938.60   957.78   962.78   989.96
eigval :     1014.64  1047.50  1060.79  1076.81  1087.84  1115.92
eigval :     1119.53  1120.86  1140.19  1141.66  1147.44  1159.93
eigval :     1172.33  1173.88  1186.44  1188.65  1189.27  1191.01
eigval :     1195.81  1225.31  1236.68  1244.40  1251.26  1264.04
eigval :     1268.19  1274.03  1279.89  1294.56  1295.90  1311.86
eigval :     1318.95  1324.69  1332.08  1333.79  1337.22  1350.91
eigval :     1377.51  1396.44  1403.75  1412.66  1421.97  1428.27
eigval :     1429.76  1435.86  1439.38  1445.38  1464.38  1476.62
eigval :     1476.67  1489.19  1490.37  1492.44  1493.36  1500.18
eigval :     1504.48  1516.43  1537.95  1546.57  1573.03  1575.51
eigval :     1575.80  1585.96  1590.69  1592.37  1601.23  2375.54
eigval :     2376.27  2377.26  3027.07  3029.13  3042.07  3044.82
eigval :     3050.83  3055.21  3081.99  3082.17  3087.06  3087.30
eigval :     3096.02  3096.74  3097.41  3097.99  3102.28  3102.38
eigval :     3102.83  3102.86  3103.70  3114.01  3114.20  3114.31

   temp. (K)  partition function   enthalpy   heat capacity  entropy
                                   cal/mol     cal/K/mol   cal/K/mol   J/K/mol
 298.15  VIB  0.317E+16            20619.583    129.056    127.834
         ROT  0.718E+08              888.752      2.981     38.930
         INT  0.228E+24            21508.335    132.036    166.764
         TR   0.129E+29             1481.254      4.968     44.847
         TOT                       22989.5891   137.0045   211.6106   885.3786

       T/K    H(0)-H(T)+PV         H(T)/Eh          T*S/Eh         G(T)/Eh
   ------------------------------------------------------------------------
    298.15    0.366362E-01    0.521664E+00    0.100543E+00    0.421121E+00
   ------------------------------------------------------------------------

         :::::::::::::::::::::::::::::::::::::::::::::::::::::
         ::                  THERMODYNAMIC                  ::
         :::::::::::::::::::::::::::::::::::::::::::::::::::::
         :: total free energy        -109.660261448823 Eh   ::
         ::.................................................::
         :: total energy             -110.081382712310 Eh   ::
         :: zero point energy           0.485028028998 Eh   ::
         :: G(RRHO) w/o ZPVE           -0.063906765511 Eh   ::
         :: G(RRHO) contrib.            0.421121263487 Eh   ::
         :::::::::::::::::::::::::::::::::::::::::::::::::::::

           -------------------------------------------------
          | TOTAL ENERGY             -110.081382712310 Eh   |
          | TOTAL ENTHALPY           -109.559718441148 Eh   |
          | TOTAL FREE ENERGY        -109.660261448823 Eh   |
          | GRADIENT NORM               0.000113973655 Eh/α |
          | HOMO-LUMO GAP               0.572370277057 eV   |
           -------------------------------------------------

 * finished run on 2025/07/19 at 23:30:44.728
