   * xtb version 6.7.1 (edcfbbe) compiled by 'albert@albert-system' on 2024-07-22

   ID    Z sym.   atoms
    1    6 C      1-9, 11-20, 22-25, 27-30, 32, 33, 35, 36, 38-44
    2    7 N      10, 21, 26, 31, 34, 37
    3    1 H      45-66

          program call               : xtb data2507/gas/3-AcBPtCN/3-AcBPtCN_gas_S0_finalOpt.xtbopt.xyz --gfn 2 --spinpol --tblite --uhf 2 --ohess vtight --parallel 40 --molden --ceasefiles --namespace data2507/gas/3-AcBPtCN/3-AcBPtCN_gas_T1_preOpt
 * total energy  :  -110.0428205 Eh     change        0.1810506E-08 Eh
 * total energy  :  -110.0455861 Eh     change       -0.2765641E-02 Eh
 * total energy  :  -110.0464008 Eh     change       -0.8146916E-03 Eh
 * total energy  :  -110.0460554 Eh     change        0.3453827E-03 Eh
 * total energy  :  -110.0465478 Eh     change       -0.4923753E-03 Eh
 * total energy  :  -110.0463733 Eh     change        0.1744970E-03 Eh
 * total energy  :  -110.0466066 Eh     change       -0.2332444E-03 Eh
 * total energy  :  -110.0466148 Eh     change       -0.8238853E-05 Eh
 * total energy  :  -110.0466017 Eh     change        0.1314129E-04 Eh
 * total energy  :  -110.0466351 Eh     change       -0.3344774E-04 Eh
 * total energy  :  -110.0469557 Eh     change        0.4673084E-05 Eh
 * total energy  :  -110.0469609 Eh     change       -0.5138771E-05 Eh
 * total energy  :  -110.0469589 Eh     change        0.1977242E-05 Eh
 * total energy  :  -110.0469611 Eh     change       -0.2216583E-05 Eh
 * total energy  :  -110.0469612 Eh     change       -0.1041944E-06 Eh
 * total energy  :  -110.0469614 Eh     change       -0.2378880E-06 Eh
 * total energy  :  -110.0469614 Eh     change        0.6303317E-07 Eh
 * total energy  :  -110.0469616 Eh     change       -0.2282530E-06 Eh
 * total energy  :  -110.0469617 Eh     change       -0.6829498E-07 Eh
   *** GEOMETRY OPTIMIZATION CONVERGED AFTER 105 ITERATIONS ***

 final structure:
================
66
 xtb: 6.7.1 (edcfbbe)
C           -7.28620265994673        0.10206195564903       -0.32882889041207
C           -6.26841979479782        1.11372286954146        0.23083709545443
C           -6.99980299262403        2.33585354576621        0.81743879907753
C           -5.37692161715356        1.57839095323311       -0.90221088664467
C           -5.93739651007253        2.21358830456284       -2.00185748925044
C           -5.17046015916243        2.64466647561670       -3.06847481481019
C           -3.80151222558942        2.43335340009339       -3.05310499235718
C           -3.21722601431832        1.80609436140369       -1.97518000373774
C           -3.98955367333715        1.38112609644623       -0.88695028239599
N           -3.37426158321643        0.76085244214462        0.18398424429106
C           -1.96019731761287        0.59793877426748        0.16280910838356
C           -1.13373189588950        1.67055872251575        0.52022305209300
C            0.22503519052716        1.50544050568183        0.49232698028815
C            0.79613122663412        0.27851960349769        0.11590061502034
C           -0.03184942772343       -0.81097173585322       -0.24083446522084
C           -1.41854790317213       -0.61335846422891       -0.20962806606513
C            0.57087300652613       -2.06799552595943       -0.62164879072227
C           -0.18309842258007       -3.19105261376303       -0.97350227499997
C            0.42720745694795       -4.38138137131850       -1.33471774464509
C           -0.37008759951492       -5.49401863715356       -1.68279527898383
N           -1.02209801886105       -6.39455700556424       -1.96456813052961
C            1.82945270514748       -4.48780600148818       -1.35629684809974
C            2.58511162022073       -3.40140700517411       -1.01352888167767
C            1.98286032727935       -2.18512048345056       -0.64262753081320
C            2.81396487795709       -1.08016881235613       -0.28807843408613
N            4.13818915066539       -1.18603210392095       -0.30937584850832
C            4.92879034895953       -0.16861724988817        0.01711377046428
C            6.31902217550356       -0.27198870228430       -0.00423340654920
C            7.11845655581744        0.81119252213400        0.34215275564532
C            8.52438127584786        0.68487991958031        0.31248904813290
N            9.66432539241863        0.56539499772707        0.28297828564774
C            6.52814966690415        2.03389286794925        0.72198468007545
C            7.34025883255770        3.13365493655620        1.07291926095133
N            7.98304673325502        4.03847718501468        1.36117251033464
C            5.14330202250128        2.15940988330665        0.75138852109874
C            4.32277984477035        1.08745542667349        0.40811770817864
N            2.99466910320955        1.17771782608457        0.42791303705086
C            2.22062813737688        0.15381122422184        0.09619051774815
C           -4.08512495274080        0.30703561049172        1.27908685931543
C           -3.40313096106818       -0.28984253096644        2.34674041639060
C           -4.08626370972599       -0.75928181836002        3.44659973163062
C           -5.46501677936530       -0.63847652966936        3.50465029856816
C           -6.13968185961280       -0.03651599064912        2.45868679739546
C           -5.47832584583593        0.44727957864204        1.33821392658924
H           -7.95658536556461       -0.24473654633099        0.45216079757216
H           -7.88471949089983        0.55071988911101       -1.11630913072266
H           -6.76505358560819       -0.75939764709116       -0.74199683471326
H           -6.27673667554412        3.04704663808690        1.21226145597132
H           -7.66427564657093        2.03913087459808        1.62367566563683
H           -7.59147984140723        2.83516653111736        0.05573064194567
H           -7.00328713287141        2.37856890586836       -2.03346292871899
H           -5.63844064219917        3.13661347622073       -3.90686180516195
H           -3.18884377494169        2.75521145680860       -3.88113914190417
H           -2.15166242309766        1.63771177665799       -1.97016952716145
H           -1.57823924564074        2.61031835282846        0.80980687729323
H            0.89083532943276        2.31102535915299        0.76010209103414
H           -2.09653862809651       -1.40853434366032       -0.47618679831311
H           -1.26122335465312       -3.15590143652872       -0.96994268718724
H            2.28936780619917       -5.42189433525300       -1.64082168527570
H            3.66301823520799       -3.44955689038106       -1.01783540084250
H            6.76737137240384       -1.20908058574593       -0.29556035355257
H            4.68722025574371        3.09336009688129        1.04098181426470
H           -2.32872964297363       -0.37961943966512        2.30878047209598
H           -3.54249439910312       -1.21767004346654        4.25825550998776
H           -6.01055994288382       -1.00523163200728        4.36007493143079
H           -7.21268918124686        0.05720422717763        2.52343211692871

 projected vibrational frequencies (cm⁻¹)
eigval :       -0.00    -0.00     0.00     0.00     0.00     0.00
eigval :        4.66    15.25    17.42    25.56    39.92    41.52
eigval :       62.25    66.33    79.76    88.55    93.14    96.58
eigval :       97.28   106.18   115.71   125.82   127.65   141.09
eigval :      151.94   180.71   188.34   191.40   210.79   217.18
eigval :      227.99   238.76   251.80   281.05   285.23   303.27
eigval :      305.60   327.88   330.66   340.88   359.82   364.35
eigval :      373.55   378.10   381.36   397.69   408.84   416.29
eigval :      419.44   419.88   433.83   447.19   449.44   475.86
eigval :      488.42   496.64   508.12   511.87   532.96   535.11
eigval :      539.55   544.34   549.00   566.02   568.30   581.53
eigval :      589.06   603.28   618.70   622.46   640.36   643.59
eigval :      647.56   652.00   684.31   684.71   685.60   687.50
eigval :      698.07   706.86   712.11   726.19   732.32   758.67
eigval :      774.40   775.93   817.32   819.77   821.85   824.67
eigval :      828.94   851.53   856.46   868.04   868.59   870.43
eigval :      871.77   915.00   915.35   916.05   916.38   916.87
eigval :      922.89   923.12   937.76   943.32   958.11   985.43
eigval :     1013.53  1039.89  1062.51  1075.95  1087.66  1109.24
eigval :     1115.26  1116.61  1139.61  1142.04  1148.14  1153.78
eigval :     1167.89  1184.19  1185.54  1186.21  1189.08  1190.50
eigval :     1195.76  1222.94  1234.42  1240.80  1243.62  1245.87
eigval :     1260.99  1266.13  1280.67  1286.94  1293.92  1302.72
eigval :     1309.14  1317.10  1321.85  1331.35  1334.45  1337.65
eigval :     1348.78  1372.09  1395.64  1401.95  1402.72  1413.36
eigval :     1419.82  1421.47  1428.90  1432.46  1457.68  1461.43
eigval :     1468.92  1479.96  1484.76  1487.03  1487.96  1490.79
eigval :     1498.00  1501.57  1510.26  1511.84  1532.94  1561.17
eigval :     1570.53  1575.24  1581.48  1582.27  1594.06  2362.33
eigval :     2365.16  2367.61  3029.52  3031.34  3045.57  3047.98
eigval :     3053.85  3057.47  3087.67  3087.84  3091.80  3091.85
eigval :     3094.17  3094.28  3099.26  3101.14  3101.45  3101.58
eigval :     3102.38  3105.54  3105.76  3106.70  3106.87  3110.16

   temp. (K)  partition function   enthalpy   heat capacity  entropy
                                   cal/mol     cal/K/mol   cal/K/mol   J/K/mol
 298.15  VIB  0.932E+16            20782.487    130.018    129.651
         ROT  0.721E+08              888.752      2.981     38.937
         INT  0.672E+24            21671.240    132.999    168.588
         TR   0.129E+29             1481.254      4.968     44.847
         TOT                       23152.4935   137.9669   213.4350   893.0120

       T/K    H(0)-H(T)+PV         H(T)/Eh          T*S/Eh         G(T)/Eh
   ------------------------------------------------------------------------
    298.15    0.368958E-01    0.519588E+00    0.101410E+00    0.418178E+00
   ------------------------------------------------------------------------

         :::::::::::::::::::::::::::::::::::::::::::::::::::::
         ::                  THERMODYNAMIC                  ::
         :::::::::::::::::::::::::::::::::::::::::::::::::::::
         :: total free energy        -109.628783591944 Eh   ::
         ::.................................................::
         :: total energy             -110.046961640058 Eh   ::
         :: zero point energy           0.482692054582 Eh   ::
         :: G(RRHO) w/o ZPVE           -0.064514006467 Eh   ::
         :: G(RRHO) contrib.            0.418178048114 Eh   ::
         :::::::::::::::::::::::::::::::::::::::::::::::::::::

           -------------------------------------------------
          | TOTAL ENERGY             -110.046961640058 Eh   |
          | TOTAL ENTHALPY           -109.527373738580 Eh   |
          | TOTAL FREE ENERGY        -109.628783591944 Eh   |
          | GRADIENT NORM               0.000083450649 Eh/α |
           -------------------------------------------------

 * finished run on 2025/07/19 at 23:30:58.006
