   * xtb version 6.7.1 (edcfbbe) compiled by 'albert@albert-system' on 2024-07-22

   ID    Z sym.   atoms
    1    6 C      1-9, 11-20, 22-25, 27-30, 32, 33, 35, 36, 38-44
    2    7 N      10, 21, 26, 31, 34, 37
    3    1 H      45-66

          program call               : xtb data2507/gas/3-AcBPtCN/3-AcBPtCN_gas_T1_crest.xyz --gfn 2 --spinpol --tblite --uhf 2 --ohess vtight --parallel 40 --molden --ceasefiles --namespace data2507/gas/3-AcBPtCN/3-AcBPtCN_gas_T1_finalOpt
 * total energy  :  -110.0469471 Eh     change        0.5029311E-07 Eh
 * total energy  :  -110.0469628 Eh     change       -0.1571387E-04 Eh
 * total energy  :  -110.0469597 Eh     change        0.3127623E-05 Eh
 * total energy  :  -110.0469675 Eh     change       -0.7881169E-05 Eh
 * total energy  :  -110.0469471 Eh     change        0.2043711E-04 Eh
 * total energy  :  -110.0469664 Eh     change       -0.1927200E-04 Eh
 * total energy  :  -110.0469653 Eh     change        0.1117365E-05 Eh
 * total energy  :  -110.0469626 Eh     change        0.2631234E-05 Eh
 * total energy  :  -110.0469685 Eh     change       -0.5904852E-05 Eh
 * total energy  :  -110.0469692 Eh     change       -0.7184012E-06 Eh
 * total energy  :  -110.0469694 Eh     change       -0.1257892E-06 Eh
 * total energy  :  -110.0469695 Eh     change       -0.1222935E-06 Eh
 * total energy  :  -110.0469695 Eh     change       -0.4587775E-08 Eh
 * total energy  :  -110.0469696 Eh     change       -0.1448154E-06 Eh
 * total energy  :  -110.0469697 Eh     change       -0.9113889E-07 Eh
   *** GEOMETRY OPTIMIZATION CONVERGED AFTER 15 ITERATIONS ***

 final structure:
================
66
 xtb: 6.7.1 (edcfbbe)
C           -7.29669610947442       -0.00576670195347        0.02769426182749
C           -6.26713517628443        1.13871520108570       -0.02371429710282
C           -6.98639177381345        2.49951024246322       -0.08354388795397
C           -5.42736597259271        0.98018544309993       -1.27455835181254
C           -6.03813144203434        1.00176235725669       -2.52083445358951
C           -5.31670039406114        0.86555158562579       -3.69253576492692
C           -3.94212819196408        0.70423370433096       -3.63241752376609
C           -3.30836551661900        0.67860307971032       -2.40995748600442
C           -4.03690429226796        0.81308356536287       -1.22156859825360
N           -3.37407939638768        0.78082466067175       -0.00982099398344
C           -1.95894453950164        0.61811883082614       -0.00353777844257
C           -1.13228143785468        1.74817640470034       -0.01744012018245
C            0.22668805803036        1.58148945250057       -0.01392086121764
C            0.79694199305493        0.29791343125349        0.00288140411212
C           -0.03165403308804       -0.84797321204531        0.01842116529954
C           -1.41867459977611       -0.64932600152951        0.01483238026255
C            0.57052979462773       -2.16149688686130        0.03661929063878
C           -0.18395349996616       -3.33793660881784        0.05438922883044
C            0.42584670262484       -4.58198535630310        0.07128135853891
C           -0.37196855538811       -5.74731864134513        0.08896787100718
N           -1.02432240678397       -6.69055950220416        0.10318457632686
C            1.82808716673335       -4.69067152024965        0.07090941805042
C            2.58425264949306       -3.55194379189394        0.05375695801220
C            1.98252362758443       -2.28024881217041        0.03657737712451
C            2.81424362171286       -1.12034334042471        0.01905662423496
N            4.13843934825465       -1.22863640506038        0.01728328367953
C            4.92959691399814       -0.16059293414543        0.00131477558994
C            6.31980227229161       -0.26654012906696       -0.00181986621993
C            7.11993380212336        0.87005774975907       -0.01849014393942
C            8.52579907880135        0.73961141985789       -0.02181556097319
N            9.66561423405753        0.61546031570638       -0.02462491418464
C            6.53035244672540        2.15067106342565       -0.03218181600946
C            7.34325211140486        3.30440768819781       -0.04849105639115
N            7.98680480475502        4.25340427272577       -0.06198289956808
C            5.14556412390167        2.28011365541132       -0.02967708762795
C            4.32434334582525        1.15512705554361       -0.01362867655706
N            2.99621565374584        1.24806905143921       -0.01222606070082
C            2.22162108328753        0.17224188428623        0.00305188913520
C           -4.03575736530332        0.91646239990680        1.19528031511351
C           -3.30677027197913        0.87610535644685        2.39028899214605
C           -3.93890255767530        1.00838780996357        3.60669481595332
C           -5.31239613414978        1.18273630000930        3.65393244136581
C           -6.03487142153405        1.22096383382569        2.47558257231137
C           -5.42578387784662        1.09057696607499        1.23514733028718
H           -7.93086763999935        0.08338211079832        0.90491015729630
H           -7.93163792899323        0.00511570755852       -0.85341934819125
H           -6.78429204954587       -0.96495433007357        0.07017702416716
H           -6.25514586793209        3.30478343577091       -0.12013700560586
H           -7.61309613462122        2.64472835405552        0.79155022792354
H           -7.61486896055282        2.56650653467416       -0.96681050070031
H           -7.10774366165508        1.12845709134746       -2.58587362295787
H           -5.82350810355980        0.88632714795047       -4.64470388598799
H           -3.36355514192006        0.59862422053088       -4.53723346258447
H           -2.23750764809750        0.55466320979403       -2.36639325733445
H           -1.57650167982834        2.73153647045083       -0.03106046485490
H            0.89322186623636        2.42976308546316       -0.02503313975555
H           -2.09758058075352       -1.48714900049700        0.02506543606223
H           -1.26207665463652       -3.30283156845602        0.05553784477583
H            2.28759808008620       -5.66723159415377        0.08416933167426
H            3.66218730156998       -3.59965897195427        0.05303470897992
H            6.76753881019662       -1.24809072403473        0.00892757317179
H            4.69006228312669        3.25814450248870       -0.04030366887157
H           -2.23706731563515        0.73965940331376        2.35649059295693
H           -3.36004032453928        0.97497002987032        4.51685596169393
H           -5.81784355079219        1.28738504160795        4.60129168324591
H           -7.10398783414146        1.35631975329775        2.53061124025620

 projected vibrational frequencies (cm⁻¹)
eigval :       -0.00    -0.00    -0.00    -0.00     0.00     0.00
eigval :       -2.72    15.01    17.84    25.44    39.88    41.10
eigval :       61.96    66.25    79.20    89.19    92.71    96.06
eigval :       97.35   106.22   115.44   125.57   127.96   140.88
eigval :      151.93   180.55   188.19   191.76   210.94   217.51
eigval :      227.04   238.78   251.32   281.02   285.28   303.07
eigval :      305.46   327.60   330.48   340.89   359.68   364.25
eigval :      373.41   378.04   381.15   397.57   408.75   416.57
eigval :      419.47   419.93   434.05   447.16   449.08   475.84
eigval :      488.62   496.09   508.15   511.95   533.87   534.44
eigval :      538.71   544.35   548.97   565.98   568.54   581.50
eigval :      589.01   602.86   618.79   622.51   640.63   643.46
eigval :      647.62   652.68   684.33   684.90   685.53   687.72
eigval :      698.08   707.20   712.28   726.30   731.70   758.70
eigval :      774.35   775.90   817.36   819.39   822.08   824.77
eigval :      828.81   851.89   856.23   867.91   868.21   870.06
eigval :      871.91   915.06   915.40   916.08   916.14   917.02
eigval :      922.93   923.17   937.87   943.29   958.16   985.46
eigval :     1013.54  1039.76  1063.42  1075.98  1087.80  1109.17
eigval :     1114.90  1116.44  1139.54  1141.28  1147.92  1153.79
eigval :     1167.64  1184.25  1185.37  1185.86  1189.05  1190.60
eigval :     1195.73  1223.04  1234.40  1240.01  1244.01  1245.50
eigval :     1261.22  1266.09  1280.87  1286.08  1293.85  1302.27
eigval :     1309.09  1317.43  1322.43  1332.04  1334.59  1337.38
eigval :     1348.66  1372.55  1395.65  1401.88  1402.86  1413.56
eigval :     1419.88  1421.75  1429.26  1432.90  1457.65  1461.51
eigval :     1469.07  1479.99  1484.74  1487.27  1488.07  1490.76
eigval :     1498.29  1501.62  1510.30  1512.32  1533.13  1561.11
eigval :     1570.90  1574.62  1581.66  1582.15  1593.59  2362.47
eigval :     2365.28  2367.75  3029.61  3031.55  3045.56  3047.99
eigval :     3054.03  3057.75  3087.75  3087.88  3091.76  3091.81
eigval :     3094.40  3094.58  3099.63  3100.90  3101.24  3101.84
eigval :     3102.61  3105.77  3106.02  3106.65  3107.09  3110.51

   temp. (K)  partition function   enthalpy   heat capacity  entropy
                                   cal/mol     cal/K/mol   cal/K/mol   J/K/mol
 298.15  VIB  0.163E+17            20789.638    130.006    130.222
         ROT  0.721E+08              888.752      2.981     38.937
         INT  0.118E+25            21678.391    132.987    169.159
         TR   0.129E+29             1481.254      4.968     44.847
         TOT                       23159.6447   137.9550   214.0062   895.4020

       T/K    H(0)-H(T)+PV         H(T)/Eh          T*S/Eh         G(T)/Eh
   ------------------------------------------------------------------------
    298.15    0.369072E-01    0.519594E+00    0.101681E+00    0.417912E+00
   ------------------------------------------------------------------------

         :::::::::::::::::::::::::::::::::::::::::::::::::::::
         ::                  THERMODYNAMIC                  ::
         :::::::::::::::::::::::::::::::::::::::::::::::::::::
         :: total free energy        -109.629057281779 Eh   ::
         ::.................................................::
         :: total energy             -110.046969744719 Eh   ::
         :: zero point energy           0.482686482144 Eh   ::
         :: G(RRHO) w/o ZPVE           -0.064774019204 Eh   ::
         :: G(RRHO) contrib.            0.417912462940 Eh   ::
         :::::::::::::::::::::::::::::::::::::::::::::::::::::

           -------------------------------------------------
          | TOTAL ENERGY             -110.046969744719 Eh   |
          | TOTAL ENTHALPY           -109.527376019438 Eh   |
          | TOTAL FREE ENERGY        -109.629057281779 Eh   |
          | GRADIENT NORM               0.000087300321 Eh/α |
           -------------------------------------------------

 * finished run on 2025/07/19 at 23:35:35.237
