   * xtb version 6.7.1 (edcfbbe) compiled by 'albert@albert-system' on 2024-07-22

   ID    Z sym.   atoms
    1    6 C      1-9, 11-20, 22-25, 27-30, 32, 33, 35, 36, 38-44
    2    7 N      10, 21, 26, 31, 34, 37
    3    1 H      45-66

          program call               : xtb data2507/gas/3-AcBPtCN/3-AcBPtCN.xyz --gfn 2 --ohess vtight --parallel 40 --molden --ceasefiles --namespace data2507/gas/3-AcBPtCN/3-AcBPtCN_gas_S0_preOpt
          :  Hamiltonian                  GFN2-xTB          :
 * total energy  :  -110.0534855 Eh     change       -0.4393627E-08 Eh
 * total energy  :  -110.0734162 Eh     change       -0.1993077E-01 Eh
 * total energy  :  -110.0790800 Eh     change       -0.5663813E-02 Eh
 * total energy  :  -110.0799632 Eh     change       -0.8831597E-03 Eh
 * total energy  :  -110.0804179 Eh     change       -0.4546962E-03 Eh
 * total energy  :  -110.0804012 Eh     change        0.1668397E-04 Eh
 * total energy  :  -110.0805256 Eh     change       -0.1244282E-03 Eh
 * total energy  :  -110.0805533 Eh     change       -0.2761497E-04 Eh
 * total energy  :  -110.0805570 Eh     change       -0.3695405E-05 Eh
 * total energy  :  -110.0805574 Eh     change       -0.4219896E-06 Eh
 * total energy  :  -110.0805767 Eh     change       -0.1183375E-06 Eh
 * total energy  :  -110.0805763 Eh     change        0.4028046E-06 Eh
 * total energy  :  -110.0805768 Eh     change       -0.4974461E-06 Eh
 * total energy  :  -110.0805768 Eh     change        0.2545885E-07 Eh
 * total energy  :  -110.0805768 Eh     change       -0.9607106E-08 Eh
 * total energy  :  -110.0805768 Eh     change       -0.8004449E-07 Eh
 * total energy  :  -110.0805769 Eh     change       -0.1025918E-06 Eh
 * total energy  :  -110.0805769 Eh     change        0.6914178E-08 Eh
 * total energy  :  -110.0805770 Eh     change       -0.4508894E-07 Eh
   *** GEOMETRY OPTIMIZATION CONVERGED AFTER 31 ITERATIONS ***

 final structure:
================
66
 xtb: 6.7.1 (edcfbbe)
C           -6.24112385874675       -0.69085907288085       -0.00005250925098
C           -5.33664449470488        0.55498040269664       -0.00000952372492
C           -6.19204491480263        1.83490106499119        0.00003611607523
C           -4.48818022164329        0.53823796438081       -1.25764695877631
C           -5.10484464187967        0.55655131656347       -2.50107438766229
C           -4.38200527642124        0.54246643042719       -3.67974333457616
C           -3.00058028441633        0.50898474277427       -3.62691258167600
C           -2.36134073470053        0.48934285798220       -2.40497603636765
C           -3.09118396866993        0.50350061585641       -1.21350067293386
N           -2.42031213798673        0.48094348273336       -0.00000360559381
C           -1.00140736012213        0.44768385568797        0.00000327545466
C           -0.27518029508287        1.63947214113525        0.00000559953732
C            1.09784675289800        1.58968229705711        0.00000900363010
C            1.77008620336669        0.36321062233717        0.00001497803311
C            1.04784651977962       -0.84746366914998        0.00002114517467
C           -0.34734046116931       -0.77142443799772        0.00001025325737
C            1.75942399084481       -2.11934719257461        0.00001614829715
C            1.09290471454485       -3.34624117060131        0.00001660841431
C            1.79634844734561       -4.54321995372973       -0.00001796144610
C            1.08560175245602       -5.76716196275775       -0.00001632058935
N            0.50978737949037       -6.75782157646552        0.00004813673201
C            3.19663855172134       -4.55103345166954       -0.00003578267869
C            3.86660873581442       -3.35312145128164       -0.00003219060941
C            3.16975038592856       -2.13942904268036       -0.00001036909105
C            3.91394145227827       -0.90024955729235       -0.00000990587972
N            5.23098427336541       -0.94681937099340        0.00000184967755
C            5.90319992574604        0.21262153398300        0.00002002038564
C            7.31243352140756        0.20082728791800        0.00002756988743
C            8.00539803974845        1.38692335600721        0.00001412996693
C            9.42137512204239        1.38548988298748        0.00032634026143
N           10.56650407740575        1.36956439651572       -0.00033140251633
C            7.30848307506560        2.63363568910674       -0.00001370970387
C            8.04960859598694        3.84026352227181       -0.00020006731712
N            8.63674726768613        4.82353165678769        0.00034201531369
C            5.93524382196887        2.66535288911321        0.00000569484941
C            5.20607784354193        1.45909734483068        0.00001656430443
N            3.86665497816701        1.49505064353256        0.00000690339734
C            3.21448156122188        0.34923423794638        0.00000313281901
C           -3.09119387204974        0.50340737194390        1.21349033100440
C           -2.36135812606189        0.48917288758646        2.40496826783377
C           -3.00060411961623        0.50872971706258        3.62690279059855
C           -4.38202936291103        0.54220369711411        3.67972956808403
C           -5.10486256738487        0.55637033259339        2.50105794675466
C           -4.48819029278202        0.53814438972516        1.25763227756295
H           -6.87749469729370       -0.70827422837618        0.88029056824121
H           -6.87749856112583       -0.70821582569452       -0.88039420767821
H           -5.63082405169436       -1.59215901967779       -0.00008342912593
H           -5.54690777441943        2.71159027840588        0.00007372084620
H           -6.82754568031908        1.87709948207852        0.88010991031202
H           -6.82754306183323        1.87717072827364       -0.88003677139988
H           -6.18239686136524        0.58233233923041       -2.55838079575290
H           -4.89427107300594        0.55760411538266       -4.62940894886421
H           -2.41684929457982        0.49803145971333       -4.53519258607500
H           -1.28237136070165        0.46406936409829       -2.37030142641473
H           -0.80094575882342        2.58190486059263        0.00000406778811
H            1.69038790113019        2.49067107457484        0.00000533845474
H           -0.95547089988735       -1.66174436465911       -0.00000398597816
H            0.01566160779076       -3.39286581053593        0.00002670738986
H            3.72862046177331       -5.49009921700049       -0.00005230432302
H            4.94440704801379       -3.31617320582742       -0.00006315286777
H            7.82679214262556       -0.74796432792022        0.00003981703327
H            5.39668129034229        3.60059456840052       -0.00000822043778
H           -1.28238882792304        0.46390891563047        2.37029704227542
H           -2.41687695232715        0.49771125654497        4.53518420513014
H           -4.89429927518653        0.55727196283584        4.62939436927829
H           -6.18241531986106        0.58215087235506        2.55836073525489

          :  Hamiltonian                  GFN2-xTB          :
         :: gradient norm              0.000160374876 Eh/a0 ::
         :: HOMO-LUMO gap              0.331735204492 eV    ::
         :: SCC energy              -112.166772108909 Eh    ::
         :: -> dispersion             -0.095823262924 Eh    ::
         :: repulsion energy           2.086195126113 Eh    ::

    * Orbital Energies and Occupations

         #    Occupation            Energy/Eh            Energy/eV
      -------------------------------------------------------------
         1        2.0000           -0.7119843             -19.3741
       ...           ...                  ...                  ...
        90        2.0000           -0.4402191             -11.9790
        91        2.0000           -0.4372313             -11.8977
        92        2.0000           -0.4358810             -11.8609
        93        2.0000           -0.4337079             -11.8018
        94        2.0000           -0.4263062             -11.6004
        95        2.0000           -0.4248681             -11.5612
        96        2.0000           -0.4157683             -11.3136
        97        2.0000           -0.4146151             -11.2823
        98        2.0000           -0.4106310             -11.1738
        99        2.0000           -0.4050793             -11.0228
       100        2.0000           -0.3997586             -10.8780
       101        2.0000           -0.3851240             -10.4798
       102        1.9967           -0.3550084              -9.6603 (HOMO)
       103        0.0033           -0.3428173              -9.3285 (LUMO)
       104                         -0.3165247              -8.6131
       105                         -0.2926405              -7.9632
       106                         -0.2892389              -7.8706
       107                         -0.2726474              -7.4191
       108                         -0.2549186              -6.9367
       109                         -0.2336820              -6.3588
       110                         -0.2311649              -6.2903
       111                         -0.2303825              -6.2690
       112                         -0.2262289              -6.1560
       113                         -0.2253016              -6.1308
       ...                                ...                  ...
       198                          1.1685275              31.7973
      -------------------------------------------------------------
                  HL-Gap            0.0121911 Eh            0.3317 eV

     #   Z          covCN         q      C6AA      α(0)
     1   6 C        3.761    -0.103    22.521     6.765
     2   6 C        3.909     0.022    20.155     6.381
     3   6 C        3.761    -0.103    22.523     6.765
     4   6 C        2.979    -0.013    28.335     8.732
     5   6 C        2.928    -0.035    28.876     8.813
     6   6 C        2.917    -0.044    29.082     8.843
     7   6 C        2.920    -0.032    28.807     8.802
     8   6 C        2.924    -0.059    29.476     8.903
     9   6 C        2.929     0.058    26.707     8.475
    10   7 N        2.756    -0.075    22.696     7.076
    11   6 C        2.927     0.081    26.195     8.393
    12   6 C        2.918    -0.034    28.840     8.806
    13   6 C        2.923    -0.024    28.600     8.770
    14   6 C        2.988    -0.002    28.060     8.689
    15   6 C        2.976     0.010    27.792     8.647
    16   6 C        2.925    -0.041    29.020     8.834
    17   6 C        2.975     0.013    27.726     8.637
    18   6 C        2.931    -0.024    28.596     8.770
    19   6 C        2.972     0.026    27.414     8.588
    20   6 C        1.913     0.113    28.314     8.593
    21   7 N        0.911    -0.218    25.753     7.340
    22   6 C        2.923    -0.019    28.478     8.751
    23   6 C        2.923    -0.022    28.560     8.764
    24   6 C        2.988     0.005    27.901     8.665
    25   6 C        2.962     0.089    26.009     8.365
    26   7 N        1.849    -0.231    26.893     7.686
    27   6 C        2.966     0.087    26.068     8.375
    28   6 C        2.926    -0.027    28.679     8.782
    29   6 C        2.974     0.028    27.370     8.581
    30   6 C        1.911     0.115    28.262     8.586
    31   7 N        0.911    -0.203    25.415     7.291
    32   6 C        2.974     0.028    27.362     8.580
    33   6 C        1.911     0.115    28.260     8.585
    34   7 N        0.911    -0.203    25.410     7.291
    35   6 C        2.926    -0.027    28.683     8.783
    36   6 C        2.966     0.087    26.053     8.372
    37   7 N        1.849    -0.231    26.903     7.687
    38   6 C        2.961     0.091    25.979     8.360
    39   6 C        2.929     0.058    26.707     8.475
    40   6 C        2.924    -0.059    29.476     8.903
    41   6 C        2.920    -0.032    28.807     8.802
    42   6 C        2.917    -0.044    29.082     8.843
    43   6 C        2.928    -0.035    28.876     8.813
    44   6 C        2.979    -0.013    28.335     8.732
    45   1 H        0.925     0.040     2.444     2.445
    46   1 H        0.925     0.040     2.444     2.445
    47   1 H        0.925     0.031     2.567     2.506
    48   1 H        0.925     0.031     2.565     2.505
    49   1 H        0.925     0.040     2.445     2.445
    50   1 H        0.925     0.040     2.445     2.445
    51   1 H        0.926     0.032     2.555     2.500
    52   1 H        0.926     0.029     2.607     2.525
    53   1 H        0.926     0.028     2.615     2.529
    54   1 H        0.926     0.018     2.763     2.599
    55   1 H        0.926     0.055     2.262     2.352
    56   1 H        0.926     0.071     2.080     2.255
    57   1 H        0.926     0.052     2.299     2.371
    58   1 H        0.926     0.051     2.302     2.373
    59   1 H        0.926     0.053     2.286     2.364
    60   1 H        0.926     0.070     2.083     2.257
    61   1 H        0.926     0.069     2.095     2.264
    62   1 H        0.926     0.069     2.092     2.262
    63   1 H        0.926     0.018     2.763     2.599
    64   1 H        0.926     0.028     2.615     2.529
    65   1 H        0.926     0.029     2.607     2.525
    66   1 H        0.926     0.032     2.555     2.500

molecular dipole:
                 x           y           z       tot (Debye)
 q only:       -1.799      -0.150       0.000
   full:       -2.183      -0.146       0.000       5.560

 projected vibrational frequencies (cm⁻¹)
eigval :       -0.00    -0.00    -0.00     0.00     0.00     0.00
eigval :      -20.71    11.07    16.70    22.49    36.27    38.39
eigval :       55.48    65.53    67.34    89.49    89.98    96.73
eigval :       97.86   105.55   108.64   126.76   128.20   139.65
eigval :      153.03   182.51   188.63   191.05   213.78   219.14
eigval :      225.48   237.20   249.44   278.21   291.44   304.59
eigval :      305.88   330.31   331.94   343.17   356.38   364.47
eigval :      367.64   377.90   380.71   388.16   407.37   418.10
eigval :      420.00   425.63   436.34   446.18   454.41   474.63
eigval :      478.51   486.37   508.62   515.19   532.03   534.42
eigval :      542.74   547.46   551.53   567.71   569.63   584.30
eigval :      593.16   606.15   619.21   644.12   644.71   649.50
eigval :      652.08   679.71   681.12   689.33   692.70   695.12
eigval :      708.94   724.72   733.94   739.57   771.63   772.70
eigval :      776.06   777.20   820.34   830.35   832.73   849.39
eigval :      855.05   862.24   864.37   865.10   873.56   874.78
eigval :      875.32   913.06   913.87   917.31   921.38   921.41
eigval :      924.01   929.07   938.74   957.41   962.76   989.79
eigval :     1014.33  1047.14  1060.41  1077.20  1088.46  1113.10
eigval :     1119.05  1119.30  1138.20  1141.00  1146.63  1160.79
eigval :     1170.51  1173.40  1186.54  1187.54  1187.78  1189.69
eigval :     1195.09  1225.30  1235.57  1243.37  1249.59  1262.01
eigval :     1268.90  1273.59  1279.28  1294.23  1294.26  1313.58
eigval :     1317.45  1325.55  1331.12  1335.30  1344.96  1349.73
eigval :     1377.07  1394.07  1403.24  1413.36  1421.30  1427.98
eigval :     1430.78  1436.94  1443.84  1444.68  1464.00  1476.42
eigval :     1481.75  1489.57  1490.52  1495.93  1498.63  1500.36
eigval :     1505.13  1517.48  1539.06  1549.04  1574.83  1576.59
eigval :     1577.30  1587.01  1592.28  1593.11  1602.35  2376.47
eigval :     2376.60  2377.52  3026.67  3028.72  3040.91  3043.62
eigval :     3049.58  3053.59  3078.82  3078.94  3083.99  3084.09
eigval :     3090.87  3091.15  3098.44  3098.92  3099.29  3099.89
eigval :     3102.79  3103.09  3105.39  3113.95  3114.38  3115.76

   temp. (K)  partition function   enthalpy   heat capacity  entropy
                                   cal/mol     cal/K/mol   cal/K/mol   J/K/mol
 298.15  VIB  0.502E+15            20168.271    127.861    124.233
         ROT  0.717E+08              888.752      2.981     38.928
         INT  0.360E+23            21057.023    130.842    163.160
         TR   0.129E+29             1481.254      4.968     44.847
         TOT                       22538.2773   135.8099   208.0068   870.3006

       T/K    H(0)-H(T)+PV         H(T)/Eh          T*S/Eh         G(T)/Eh
   ------------------------------------------------------------------------
    298.15    0.359170E-01    0.520529E+00    0.988308E-01    0.421698E+00
   ------------------------------------------------------------------------

         :::::::::::::::::::::::::::::::::::::::::::::::::::::
         ::                  THERMODYNAMIC                  ::
         :::::::::::::::::::::::::::::::::::::::::::::::::::::
         :: total free energy        -109.658878795951 Eh   ::
         ::.................................................::
         :: total energy             -110.080576982793 Eh   ::
         :: zero point energy           0.484611919819 Eh   ::
         :: G(RRHO) w/o ZPVE           -0.062913732977 Eh   ::
         :: G(RRHO) contrib.            0.421698186842 Eh   ::
         :::::::::::::::::::::::::::::::::::::::::::::::::::::

           -------------------------------------------------
          | TOTAL ENERGY             -110.080576982793 Eh   |
          | TOTAL ENTHALPY           -109.560048031880 Eh   |
          | TOTAL FREE ENERGY        -109.658878795951 Eh   |
          | GRADIENT NORM               0.000160114032 Eh/α |
          | HOMO-LUMO GAP               0.331736210539 eV   |
           -------------------------------------------------

 * finished run on 2025/07/19 at 23:27:39.758
