   * xtb version 6.7.1 (edcfbbe) compiled by 'albert@albert-system' on 2024-07-22

   ID    Z sym.   atoms
    1    6 C      1-6, 8-11, 13-21, 23-51
    2    5 B      7
    3    7 N      12, 22
    4    1 H      52-92

          program call               : xtb data2507/toluene/CCDMB/CCDMB.xyz --gfn 2 --gbsa toluene --ohess vtight --parallel 40 --molden --ceasefiles --namespace data2507/toluene/CCDMB/CCDMB_toluene_S0_preOpt
      * Solvation model:               GBSA
        Solvent                        toluene
        Solvent mass                       9.2140E+01 g/mol
          :  Hamiltonian                  GFN2-xTB          :
 * total energy  :  -130.8601689 Eh     change       -0.1744922E-08 Eh
 * total energy  :  -130.8957012 Eh     change       -0.3553231E-01 Eh
 * total energy  :  -130.9038548 Eh     change       -0.8153632E-02 Eh
 * total energy  :  -130.9054469 Eh     change       -0.1592041E-02 Eh
 * total energy  :  -130.9063487 Eh     change       -0.9018485E-03 Eh
 * total energy  :  -130.9067210 Eh     change       -0.3722448E-03 Eh
 * total energy  :  -130.9069683 Eh     change       -0.2473269E-03 Eh
 * total energy  :  -130.9071307 Eh     change       -0.1624338E-03 Eh
 * total energy  :  -130.9072424 Eh     change       -0.1117089E-03 Eh
 * total energy  :  -130.9073337 Eh     change       -0.9131224E-04 Eh
 * total energy  :  -130.9106003 Eh     change       -0.1208033E-05 Eh
 * total energy  :  -130.9106016 Eh     change       -0.1283246E-05 Eh
 * total energy  :  -130.9106028 Eh     change       -0.1270760E-05 Eh
 * total energy  :  -130.9106040 Eh     change       -0.1190814E-05 Eh
 * total energy  :  -130.9106051 Eh     change       -0.1074912E-05 Eh
 * total energy  :  -130.9106061 Eh     change       -0.9627487E-06 Eh
 * total energy  :  -130.9106070 Eh     change       -0.8907789E-06 Eh
 * total energy  :  -130.9106078 Eh     change       -0.8806856E-06 Eh
 * total energy  :  -130.9106078 Eh     change       -0.5630653E-08 Eh
   *** GEOMETRY OPTIMIZATION CONVERGED AFTER 152 ITERATIONS ***

 final structure:
================
92
 xtb: 6.7.1 (edcfbbe)
C           -8.36655252444328       -3.53290142510661        0.70245058898557
C           -7.26384802580829       -2.53722209694293        0.50095968165955
C           -7.16123716286662       -1.39927925034805        1.28508176690846
C           -6.14988733663921       -0.46895403800363        1.09004603850526
C           -6.08714854426119        0.72706685193023        1.99525996382103
C           -5.18357379686052       -0.66701176900643        0.09022239940283
B           -3.99597848305704        0.33865734503427       -0.11969420319962
C           -2.53718307384047       -0.22694487282050       -0.07515129604626
C           -2.19214079657332       -1.29591724036292        0.75850987512671
C           -0.90515002884185       -1.79190933794043        0.81030749570621
C            0.08013183406077       -1.25725930733133       -0.01589294683487
N            1.38332576153967       -1.77871208557579        0.00637302372439
C            1.71937475805025       -3.11551721383110       -0.08326534785684
C            0.90262487740417       -4.22623486606325       -0.24840955503668
C            1.50655194963733       -5.46602852616311       -0.33257681163494
C            2.89148948275092       -5.60881360436707       -0.26520739845262
C            3.71158050837964       -4.50674902993336       -0.12973843182766
C            3.12683144904642       -3.24938576130833       -0.04318003470597
C            3.65803438347173       -1.92073874863050        0.07191519214547
C            4.94850252719950       -1.42002027107995        0.16028876855379
C            5.12171289084214       -0.04781826856889        0.26151428232952
N            6.42086908185793        0.49133232877495        0.31305305560876
C            6.90290041973200        1.36167101143186        1.26733479600541
C            6.27735953057725        1.86889195431253        2.39833742472715
C            7.00201698914362        2.71968338683809        3.21054735044698
C            8.32157938337491        3.05908529277877        2.91603984938221
C            8.95653582125488        2.54124203767585        1.80479576012176
C            8.24926959974301        1.68256819747699        0.97248931131106
C            8.58576218061747        0.96376642137037       -0.22410557661114
C            9.73563329002973        0.87844351465621       -0.99935239423892
C            9.71549282380787        0.08520390627047       -2.12919453382755
C            8.56320133054336       -0.60698572075332       -2.49852071951373
C            7.40755691876121       -0.53842535887257       -1.74456411432726
C            7.42768082934976        0.24056373926082       -0.59540517013601
C            4.01630451568271        0.81011432392270        0.31008450241815
C            2.72611777903876        0.32514375648670        0.24415341412563
C            2.54697462470203       -1.04434850185648        0.09730432404160
C           -0.24204175338180       -0.20384891705841       -0.86779292831730
C           -1.52273070371503        0.31073385244939       -0.87411369240106
C           -4.18570853500644        1.87600803698589       -0.37811177128021
C           -3.53105548560218        2.82150343151594        0.42727820936039
C           -2.68661861950755        2.40181467029421        1.59871843768747
C           -3.66603180451345        4.17914870830692        0.17458542136745
C           -4.43600099354698        4.64755100689187       -0.87798738946494
C           -4.59013016658290        6.11543351556174       -1.14103261726855
C           -5.08575350194671        3.71450499332476       -1.67431598683124
C           -4.97776593011201        2.35322294929938       -1.43729966629458
C           -5.68753546098180        1.40160005670504       -2.35632412781640
C           -5.28886085712913       -1.82236005212145       -0.70327991502950
C           -4.31309732249411       -2.10198732347427       -1.81290434892767
C           -6.31637344051504       -2.72831744254910       -0.49522005172599
H           -8.99658781087240       -3.58380177074479       -0.18577434575278
H           -7.95528399159696       -4.52726216099095        0.87434160169933
H           -8.98820426724071       -3.26060059829102        1.55213693330715
H           -7.89053123748772       -1.22797600456249        2.06585517251286
H           -5.27631897970198        0.61509104849654        2.71522426437863
H           -5.90321138280030        1.63382455310192        1.42497199753308
H           -7.01689256535178        0.83956016443005        2.54881514012230
H           -2.95075428372195       -1.73196454127053        1.39325801665971
H           -0.65266926600626       -2.59215014807202        1.49075657156849
H           -0.16975580189067       -4.12834834194442       -0.31912175989224
H            0.89112361901054       -6.34518436329308       -0.45684913288070
H            3.32481479898341       -6.59596934540028       -0.33094395161139
H            4.78547273023489       -4.61426214464048       -0.09578493016935
H            5.80207165235797       -2.08040837026867        0.15702808706557
H            5.26040400735377        1.60013643186822        2.64173620115469
H            6.53691334603876        3.12949668307206        4.09560182668518
H            8.85351336703541        3.73064477896669        3.57415307067271
H            9.98336641856671        2.79384851327752        1.58497677699816
H           10.62465570713107        1.42535803344677       -0.72179024031960
H           10.60026729481811        0.00338539990494       -2.74371546595405
H            8.57393040861664       -1.20882874451216       -3.39591978083903
H            6.51537709834079       -1.06720215541839       -2.04555180295844
H            4.18629490704897        1.87319317407752        0.39218913927967
H            1.88521543341770        0.99862776238744        0.30203911662940
H            0.51390224414981        0.19936782792124       -1.52587139785925
H           -1.75525997955096        1.13677665831746       -1.53138391262606
H           -1.64035238525541        2.33442118122372        1.29938411236721
H           -2.75805594470415        3.13584570932422        2.39974501791340
H           -2.99039120289551        1.43238265526158        1.98093436670850
H           -3.15781382175985        4.88662729057352        0.81667009242867
H           -4.50180272809751        6.32719839395433       -2.20545506620537
H           -3.83801353025472        6.68894453268403       -0.60403653265235
H           -5.57514109398935        6.45240639545068       -0.81501483163584
H           -5.69578866955352        4.06106434916341       -2.49806103510685
H           -6.21830095088538        0.64107948145698       -1.78935494869462
H           -6.39760405783582        1.93321036850291       -2.98608712949988
H           -4.97232566770837        0.89573028940365       -3.00474821027326
H           -4.80833929548995       -2.62217102655620       -2.63113970093249
H           -3.50773943483660       -2.74071671138717       -1.44937861590839
H           -3.86986700603838       -1.18715502985761       -2.19342962801889
H           -6.38332687002212       -3.60548047830034       -1.12541298974272

          :  Hamiltonian                  GFN2-xTB          :
         :: gradient norm              0.000063353049 Eh/a0 ::
         :: HOMO-LUMO gap              2.310980286746 eV    ::
         :: SCC energy              -133.325314913410 Eh    ::
         :: -> dispersion             -0.124022585393 Eh    ::
         :: -> Gsolv                  -0.051716076344 Eh    ::
         :: repulsion energy           2.414707075809 Eh    ::

    * Orbital Energies and Occupations

         #    Occupation            Energy/Eh            Energy/eV
      -------------------------------------------------------------
         1        2.0000           -0.6795182             -18.4906
       ...           ...                  ...                  ...
       111        2.0000           -0.4071571             -11.0793
       112        2.0000           -0.4062109             -11.0536
       113        2.0000           -0.4027747             -10.9601
       114        2.0000           -0.3996623             -10.8754
       115        2.0000           -0.3908698             -10.6361
       116        2.0000           -0.3837806             -10.4432
       117        2.0000           -0.3796332             -10.3303
       118        2.0000           -0.3785990             -10.3022
       119        2.0000           -0.3760485             -10.2328
       120        2.0000           -0.3735484             -10.1648
       121        2.0000           -0.3687193             -10.0334
       122        2.0000           -0.3666899              -9.9781
       123        2.0000           -0.3548418              -9.6557 (HOMO)
       124                         -0.2699149              -7.3448 (LUMO)
       125                         -0.2497946              -6.7973
       126                         -0.2430827              -6.6146
       127                         -0.2287517              -6.2247
       128                         -0.2250451              -6.1238
       129                         -0.2210814              -6.0159
       130                         -0.2195193              -5.9734
       131                         -0.2100614              -5.7161
       132                         -0.2059687              -5.6047
       133                         -0.2045568              -5.5663
       134                         -0.2013045              -5.4778
       ...                                ...                  ...
       245                          0.7471493              20.3310
      -------------------------------------------------------------
                  HL-Gap            0.0849270 Eh            2.3110 eV

     #   Z          covCN         q      C6AA      α(0)
     1   6 C        3.757    -0.107    22.590     6.776
     2   6 C        2.962     0.010    27.786     8.646
     3   6 C        2.928    -0.058    29.430     8.897
     4   6 C        2.966     0.011    27.778     8.645
     5   6 C        3.758    -0.112    22.698     6.792
     6   6 C        2.889    -0.083    30.088     8.993
     7   5 B        2.709     0.251    17.690     7.053
     8   6 C        2.884    -0.058    29.450     8.897
     9   6 C        2.924    -0.026    28.658     8.779
    10   6 C        2.918    -0.045    29.109     8.847
    11   6 C        2.913     0.063    26.591     8.456
    12   7 N        2.801    -0.041    22.038     6.972
    13   6 C        3.077     0.048    26.841     8.494
    14   6 C        2.910    -0.051    29.258     8.870
    15   6 C        2.924    -0.034    28.848     8.808
    16   6 C        2.920    -0.042    29.038     8.837
    17   6 C        2.912    -0.034    28.846     8.807
    18   6 C        3.067    -0.018    28.392     8.737
    19   6 C        3.068    -0.017    28.359     8.732
    20   6 C        2.915    -0.047    29.168     8.856
    21   6 C        2.912     0.052    26.836     8.495
    22   7 N        2.802    -0.048    22.171     6.993
    23   6 C        3.078     0.048    26.848     8.495
    24   6 C        2.909    -0.053    29.305     8.877
    25   6 C        2.923    -0.036    28.895     8.815
    26   6 C        2.919    -0.044    29.091     8.845
    27   6 C        2.912    -0.036    28.888     8.813
    28   6 C        3.068    -0.020    28.438     8.744
    29   6 C        3.067    -0.020    28.438     8.744
    30   6 C        2.912    -0.036    28.888     8.813
    31   6 C        2.919    -0.044    29.090     8.845
    32   6 C        2.923    -0.036    28.893     8.815
    33   6 C        2.909    -0.052    29.298     8.876
    34   6 C        3.079     0.048    26.846     8.495
    35   6 C        2.925    -0.047    29.167     8.857
    36   6 C        2.909    -0.050    29.244     8.867
    37   6 C        3.075     0.045    26.907     8.505
    38   6 C        2.917    -0.045    29.121     8.849
    39   6 C        2.924    -0.026    28.659     8.779
    40   6 C        2.889    -0.084    30.092     8.994
    41   6 C        2.967     0.011    27.778     8.645
    42   6 C        3.759    -0.110    22.661     6.787
    43   6 C        2.929    -0.058    29.439     8.898
    44   6 C        2.962     0.010    27.785     8.646
    45   6 C        3.757    -0.107    22.590     6.776
    46   6 C        2.929    -0.058    29.444     8.899
    47   6 C        2.966     0.011    27.778     8.645
    48   6 C        3.758    -0.112    22.697     6.792
    49   6 C        2.967     0.011    27.776     8.645
    50   6 C        3.759    -0.110    22.657     6.786
    51   6 C        2.929    -0.058    29.452     8.900
    52   1 H        0.925     0.043     2.404     2.425
    53   1 H        0.925     0.043     2.412     2.429
    54   1 H        0.925     0.038     2.479     2.462
    55   1 H        0.925     0.021     2.725     2.581
    56   1 H        0.925     0.040     2.444     2.445
    57   1 H        0.925     0.050     2.316     2.380
    58   1 H        0.925     0.037     2.487     2.466
    59   1 H        0.926     0.034     2.529     2.487
    60   1 H        0.926     0.036     2.505     2.475
    61   1 H        0.926     0.033     2.542     2.493
    62   1 H        0.926     0.032     2.558     2.501
    63   1 H        0.926     0.029     2.595     2.519
    64   1 H        0.926     0.032     2.565     2.504
    65   1 H        0.926     0.040     2.453     2.449
    66   1 H        0.926     0.029     2.607     2.525
    67   1 H        0.926     0.028     2.610     2.526
    68   1 H        0.926     0.026     2.644     2.543
    69   1 H        0.926     0.028     2.613     2.528
    70   1 H        0.926     0.028     2.612     2.527
    71   1 H        0.926     0.026     2.644     2.543
    72   1 H        0.926     0.028     2.612     2.527
    73   1 H        0.926     0.028     2.613     2.528
    74   1 H        0.926     0.040     2.443     2.444
    75   1 H        0.926     0.040     2.450     2.448
    76   1 H        0.926     0.035     2.510     2.478
    77   1 H        0.926     0.034     2.529     2.487
    78   1 H        0.924     0.042     2.417     2.431
    79   1 H        0.925     0.041     2.439     2.442
    80   1 H        0.925     0.042     2.425     2.435
    81   1 H        0.925     0.021     2.711     2.575
    82   1 H        0.925     0.041     2.431     2.438
    83   1 H        0.925     0.038     2.469     2.457
    84   1 H        0.924     0.044     2.394     2.420
    85   1 H        0.925     0.021     2.711     2.575
    86   1 H        0.925     0.050     2.318     2.381
    87   1 H        0.925     0.037     2.486     2.466
    88   1 H        0.925     0.040     2.445     2.445
    89   1 H        0.925     0.041     2.441     2.443
    90   1 H        0.924     0.042     2.420     2.433
    91   1 H        0.925     0.041     2.431     2.438
    92   1 H        0.925     0.022     2.697     2.568

molecular dipole:
                 x           y           z       tot (Debye)
 q only:       -1.606      -0.144      -0.065
   full:       -1.584      -0.180      -0.075       4.058

 projected vibrational frequencies (cm⁻¹)
eigval :       -0.00    -0.00    -0.00     0.00     0.00     0.00
eigval :        8.25    12.68    14.68    24.80    27.23    29.33
eigval :       32.88    37.09    46.54    50.16    51.61    60.20
eigval :       68.70    72.06    85.95    93.34    96.88   101.27
eigval :      103.32   104.93   118.08   127.80   132.71   134.74
eigval :      143.07   146.71   154.64   159.11   178.03   181.54
eigval :      185.22   201.01   204.46   206.48   222.53   251.27
eigval :      269.23   273.04   273.94   275.50   278.46   305.68
eigval :      308.58   316.56   323.85   334.40   340.48   377.79
eigval :      381.06   391.42   396.32   399.33   413.76   423.05
eigval :      430.08   434.83   454.51   463.43   481.30   487.19
eigval :      490.98   495.75   497.14   508.72   511.22   517.84
eigval :      522.72   530.17   535.29   538.24   542.30   543.47
eigval :      557.06   561.29   586.12   588.28   597.88   598.35
eigval :      599.70   604.36   620.24   627.90   634.50   671.62
eigval :      673.89   678.66   679.41   686.98   695.36   707.65
eigval :      709.20   727.00   754.79   769.18   774.12   780.38
eigval :      793.75   814.54   825.50   838.71   843.60   865.63
eigval :      869.65   871.59   878.24   879.14   882.17   886.49
eigval :      890.16   893.44   893.82   897.21   900.48   902.65
eigval :      903.04   912.97   920.73   923.06   923.32   932.95
eigval :      938.34   945.89   963.40   963.98   971.40   975.00
eigval :      975.63  1010.91  1019.16  1020.27  1021.78  1026.91
eigval :     1027.46  1028.11  1030.22  1030.51  1031.99  1033.35
eigval :     1039.32  1041.06  1044.14  1045.00  1068.33  1070.81
eigval :     1071.69  1101.66  1106.80  1124.25  1135.83  1149.44
eigval :     1152.63  1162.22  1171.56  1176.70  1180.15  1181.46
eigval :     1183.55  1191.00  1205.56  1217.44  1221.48  1221.62
eigval :     1235.18  1235.47  1235.77  1240.10  1245.36  1270.47
eigval :     1276.81  1294.23  1301.88  1304.79  1304.97  1305.30
eigval :     1305.85  1331.12  1332.51  1341.41  1350.96  1356.72
eigval :     1358.22  1363.05  1380.48  1394.43  1399.35  1399.98
eigval :     1400.50  1402.07  1402.94  1404.78  1420.59  1425.40
eigval :     1426.42  1427.48  1427.67  1438.24  1450.96  1453.47
eigval :     1471.79  1475.06  1476.45  1476.62  1478.70  1479.35
eigval :     1480.11  1482.30  1482.98  1484.35  1485.09  1485.18
eigval :     1486.73  1487.58  1488.97  1492.58  1495.06  1545.95
eigval :     1558.49  1559.23  1564.81  1572.12  1581.34  1584.30
eigval :     1587.02  1596.08  1596.96  1598.64  1600.89  1612.40
eigval :     1613.86  2989.66  2995.14  2996.06  2996.39  2996.66
eigval :     2998.17  3011.56  3018.73  3019.49  3020.08  3030.88
eigval :     3031.89  3034.87  3037.13  3043.94  3045.71  3052.52
eigval :     3053.21  3056.24  3057.25  3057.86  3058.41  3068.15
eigval :     3069.19  3069.49  3070.37  3073.63  3074.10  3074.99
eigval :     3078.93  3081.88  3082.43  3082.76  3084.88  3087.99
eigval :     3088.30  3089.00  3091.39  3094.12  3095.85  3099.67

   temp. (K)  partition function   enthalpy   heat capacity  entropy
                                   cal/mol     cal/K/mol   cal/K/mol   J/K/mol
 298.15  VIB  0.684E+22            27209.980    164.737    172.201
         ROT  0.126E+09              888.752      2.981     40.042
         INT  0.860E+30            28098.732    167.718    212.244
         TR   0.163E+29             1481.254      4.968     45.307
         TOT                       29579.9861   172.6865   257.5510  1077.5934

       T/K    H(0)-H(T)+PV         H(T)/Eh          T*S/Eh         G(T)/Eh
   ------------------------------------------------------------------------
    298.15    0.471387E-01    0.781680E+00    0.122371E+00    0.659310E+00
   ------------------------------------------------------------------------

         :::::::::::::::::::::::::::::::::::::::::::::::::::::
         ::                  THERMODYNAMIC                  ::
         :::::::::::::::::::::::::::::::::::::::::::::::::::::
         :: total free energy        -130.251298192522 Eh   ::
         ::.................................................::
         :: total energy             -130.910607836474 Eh   ::
         :: zero point energy           0.734541725159 Eh   ::
         :: G(RRHO) w/o ZPVE           -0.075232081208 Eh   ::
         :: G(RRHO) contrib.            0.659309643952 Eh   ::
         :::::::::::::::::::::::::::::::::::::::::::::::::::::

           -------------------------------------------------
          | TOTAL ENERGY             -130.910607836474 Eh   |
          | TOTAL ENTHALPY           -130.128927402929 Eh   |
          | TOTAL FREE ENERGY        -130.251298192522 Eh   |
          | GRADIENT NORM               0.000063353580 Eh/α |
          | HOMO-LUMO GAP               2.310980008257 eV   |
           -------------------------------------------------

 * finished run on 2025/07/19 at 04:34:52.201
