   * xtb version 6.7.1 (edcfbbe) compiled by 'albert@albert-system' on 2024-07-22

   ID    Z sym.   atoms
    1    6 C      1-6, 8-11, 13-21, 23-51
    2    5 B      7
    3    7 N      12, 22
    4    1 H      52-92

          program call               : xtb data2507/toluene/CCDMB/CCDMB_toluene_S0_finalOpt.xtbopt.xyz --gfn 2 --uhf 2 --gbsa toluene --ohess vtight --parallel 40 --molden --ceasefiles --namespace data2507/toluene/CCDMB/CCDMB_toluene_T1_preOpt
      * Solvation model:               GBSA
        Solvent                        toluene
        Solvent mass                       9.2140E+01 g/mol
          :  Hamiltonian                  GFN2-xTB          :
 * total energy  :  -130.8121926 Eh     change        0.7720729E-08 Eh
 * total energy  :  -130.8140417 Eh     change       -0.1849104E-02 Eh
 * total energy  :  -130.8147867 Eh     change       -0.7449934E-03 Eh
 * total energy  :  -130.8149930 Eh     change       -0.2063753E-03 Eh
 * total energy  :  -130.8151840 Eh     change       -0.1909157E-03 Eh
 * total energy  :  -130.8152905 Eh     change       -0.1065093E-03 Eh
 * total energy  :  -130.8153754 Eh     change       -0.8492113E-04 Eh
 * total energy  :  -130.8154382 Eh     change       -0.6276249E-04 Eh
 * total energy  :  -130.8154744 Eh     change       -0.3620769E-04 Eh
 * total energy  :  -130.8155024 Eh     change       -0.2801549E-04 Eh
 * total energy  :  -130.8158215 Eh     change       -0.3787753E-06 Eh
 * total energy  :  -130.8158216 Eh     change       -0.6719011E-07 Eh
 * total energy  :  -130.8158220 Eh     change       -0.4465701E-06 Eh
 * total energy  :  -130.8158219 Eh     change        0.9201548E-07 Eh
 * total energy  :  -130.8158222 Eh     change       -0.2575001E-06 Eh
 * total energy  :  -130.8158223 Eh     change       -0.1245063E-06 Eh
 * total energy  :  -130.8158223 Eh     change        0.2720299E-07 Eh
 * total energy  :  -130.8158224 Eh     change       -0.1578030E-06 Eh
 * total energy  :  -130.8158225 Eh     change       -0.1469431E-07 Eh
   *** GEOMETRY OPTIMIZATION CONVERGED AFTER 68 ITERATIONS ***

 final structure:
================
92
 xtb: 6.7.1 (edcfbbe)
C           -9.05267606018731       -2.89444214655695        1.82875802094240
C           -7.90493300124819       -2.05874317794409        1.34943537776331
C           -7.67132592600343       -0.79833824134810        1.89077325886419
C           -6.62191950404676       -0.00720187229754        1.46141321852034
C           -6.40683265182554        1.32885512590052        2.10757126829987
C           -5.75200493225126       -0.45504401342292        0.44157657000538
B           -4.56559475522608        0.44832137987994       -0.05851238791762
C           -3.14260051444398       -0.12369417927052       -0.07901313439685
C           -2.76465225905566       -1.23901357176029        0.71700692923617
C           -1.49978718918498       -1.75731783286966        0.69881465319169
C           -0.50332092867960       -1.18158951127272       -0.11324507781228
N            0.78700524108135       -1.69959300693973       -0.12948464967978
C            1.11611686073610       -3.04373065674936       -0.22797996865747
C            0.29084213214897       -4.14171911941464       -0.40036150560383
C            0.88342558802680       -5.39287969618095       -0.49845006788899
C            2.26727463916976       -5.54357898000044       -0.43461534545442
C            3.10084259375778       -4.44913419709413       -0.29697235608462
C            2.52924639875836       -3.18361701947913       -0.20337529915342
C            3.06646519551713       -1.86325921449874       -0.10135213160633
C            4.35812460763966       -1.36278632889532       -0.03040262583652
C            4.53671129993062        0.00944042505383        0.11133611916851
N            5.82984245690822        0.53560108893830        0.17981377842775
C            6.29542633143788        1.43263647563482        1.12215663446420
C            5.64900298100691        1.97215427882557        2.22609115867293
C            6.36574428759590        2.83149508413779        3.03896616711396
C            7.69678572731825        3.14336040206849        2.77251114647404
C            8.35524178095714        2.58625939672943        1.69157806993433
C            7.65618410101257        1.72115212325124        0.86172307022413
C            8.01968322547599        0.95881746490444       -0.30242653230581
C            9.18974955081334        0.84108130801794       -1.03924067170674
C            9.19208037680042        0.01771316976191       -2.15035127064246
C            8.04229979536159       -0.66604596759663       -2.53851288042741
C            6.86458668671880       -0.56322368218422       -1.82050132236952
C            6.86411679000962        0.23851314177901       -0.68697583022983
C            3.43076523718683        0.87498583497019        0.19774303743702
C            2.13883115331507        0.39191292326812        0.11821418105870
C            1.95124406945553       -0.97312068269808       -0.05325850445288
C           -0.84416513481394       -0.06988627149097       -0.90802254742032
C           -2.11687088431815        0.42873820029435       -0.89374439163555
C           -4.80479126843285        1.92828776638898       -0.53603192411887
C           -4.08318971885632        3.00899379028080        0.00781522138721
C           -3.05007052940953        2.80887120133302        1.07959678183668
C           -4.32688965376190        4.30596700001510       -0.41833116284956
C           -5.27308043227276        4.58812319724245       -1.39279891977439
C           -5.52882839434318        5.98949049757504       -1.85804471577394
C           -5.98623693802690        3.52339638085459       -1.93572664355186
C           -5.76471457239947        2.22019096901171       -1.53120747946507
C           -6.54637068702721        1.11501846783287       -2.17659950543809
C           -5.99300591289744       -1.73222200842182       -0.10319174714694
C           -5.13752889813722       -2.29507091471457       -1.20198508053448
C           -7.05241457207588       -2.50374086157884        0.34887373575317
H           -8.95688104743602       -3.92234469545966        1.48627116375119
H           -9.10561346864926       -2.88797445852390        2.91667793325450
H           -9.99328652601578       -2.49247838576886        1.44865937755854
H           -8.32495131658198       -0.43510684974763        2.67345838931727
H           -5.40625413594670        1.38878244382386        2.53220371219373
H           -6.49772614440192        2.12679762321740        1.37220220786070
H           -7.13377546234495        1.49831098443659        2.89918592997210
H           -3.50306216541167       -1.67338334384817        1.37638639793969
H           -1.23504265894709       -2.58096002564604        1.34743946986659
H           -0.78023284774994       -4.03279773337551       -0.47216379929178
H            0.25946869057965       -6.26381216856606       -0.63180194125129
H            2.69332099594011       -6.53367017780154       -0.50664883940959
H            4.17322234258821       -4.56953225340794       -0.26676022802157
H            5.20909388840808       -2.02574437803537       -0.04563227590525
H            4.62460468049926        1.72136626063962        2.45412756219493
H            5.88304919115076        3.26655456393200        3.90168050161136
H            8.22219368091969        3.82146533310285        3.42859026808203
H            9.39280372196832        2.81295173178697        1.49806844655875
H           10.07610985173602        1.38605242219254       -0.75160158544356
H           10.09361637036249       -0.09001766473475       -2.73518693325908
H            8.06900381073891       -1.28674194323116       -3.42203927765282
H            5.97345318221089       -1.08054243585488       -2.14172550188448
H            3.60232146797012        1.93483133836176        0.29989777102512
H            1.30079450848467        1.06687943528690        0.19042692606524
H           -0.09874584599427        0.34807105470160       -1.57053711608817
H           -2.36562554129315        1.25855383748821       -1.54047328288119
H           -3.09051483765225        3.62229361750171        1.80288918400813
H           -3.19618009189815        1.86282396511897        1.59325158032926
H           -2.05119686497285        2.79911242999636        0.64186909174000
H           -3.76558265223954        5.11848330510441        0.02513298291243
H           -5.34962053524209        6.07297989366058       -2.93017141782331
H           -4.88384071224155        6.69638027332717       -1.34136968756368
H           -6.56726058116007        6.26635286386382       -1.67460195486002
H           -6.72688447968801        3.72478372443750       -2.69902456910241
H           -5.87401785554316        0.39589503664667       -2.64169138766202
H           -7.13368381263599        0.57904313664207       -1.43270287317293
H           -7.21830836392917        1.50771301994501       -2.93693193659713
H           -5.74766936598218       -2.85375889567347       -1.91047212192734
H           -4.39482545598310       -2.97822469791965       -0.78824681488001
H           -4.60649042112133       -1.50670313991063       -1.72786558235942
H           -7.21949077721628       -3.47761869352123       -0.09336931758004

          :  Hamiltonian                  GFN2-xTB          :
         :: gradient norm              0.000056431435 Eh/a0 ::
         :: HOMO-LUMO gap              0.210393548542 eV    ::
         :: SCC energy              -133.214597703651 Eh    ::
         :: -> dispersion             -0.124598638051 Eh    ::
         :: -> Gsolv                  -0.051028583502 Eh    ::
         :: repulsion energy           2.398775205223 Eh    ::

    * Orbital Energies and Occupations

         #    Occupation            Energy/Eh            Energy/eV
      -------------------------------------------------------------
         1        2.0000           -0.6827702             -18.5791
       ...           ...                  ...                  ...
       112        2.0000           -0.3948427             -10.7442
       113        2.0000           -0.3944245             -10.7328
       114        2.0000           -0.3878747             -10.5546
       115        2.0000           -0.3842341             -10.4555
       116        2.0000           -0.3841764             -10.4540
       117        2.0000           -0.3810052             -10.3677
       118        2.0000           -0.3754962             -10.2178
       119        2.0000           -0.3751054             -10.2071
       120        2.0000           -0.3724150             -10.1339
       121        1.9995           -0.3646639              -9.9230
       122        1.6920           -0.3582296              -9.7479
       123        1.3085           -0.3566936              -9.7061
       124        0.9801           -0.2588862              -7.0447 (HOMO)
       125        0.0142           -0.2511532              -6.8342 (LUMO)
       126        0.0057           -0.2502884              -6.8107
       127                         -0.2325266              -6.3274
       128                         -0.2279239              -6.2021
       129                         -0.2150141              -5.8508
       130                         -0.2077174              -5.6523
       131                         -0.2061353              -5.6092
       132                         -0.2038645              -5.5474
       133                         -0.2009362              -5.4678
       134                         -0.2002907              -5.4502
       135                         -0.1918893              -5.2216
       ...                                ...                  ...
       245                          0.7405654              20.1518
      -------------------------------------------------------------
                  HL-Gap            0.0077330 Eh            0.2104 eV

     #   Z          covCN         q      C6AA      α(0)
     1   6 C        3.757    -0.105    22.563     6.772
     2   6 C        2.962     0.008    27.848     8.656
     3   6 C        2.927    -0.059    29.465     8.902
     4   6 C        2.965     0.008    27.833     8.654
     5   6 C        3.759    -0.110    22.646     6.784
     6   6 C        2.887    -0.070    29.754     8.943
     7   5 B        2.710     0.186    18.617     7.235
     8   6 C        2.881    -0.063    29.572     8.915
     9   6 C        2.917    -0.039    28.972     8.827
    10   6 C        2.911    -0.047    29.159     8.855
    11   6 C        2.912     0.034    27.244     8.559
    12   7 N        2.796    -0.007    21.399     6.870
    13   6 C        3.074     0.043    26.967     8.514
    14   6 C        2.909    -0.043    29.063     8.840
    15   6 C        2.922    -0.041    29.014     8.833
    16   6 C        2.918    -0.036    28.885     8.813
    17   6 C        2.911    -0.036    28.887     8.813
    18   6 C        3.059    -0.019    28.433     8.744
    19   6 C        3.063    -0.017    28.382     8.736
    20   6 C        2.913    -0.048    29.183     8.858
    21   6 C        2.911     0.056    26.734     8.478
    22   7 N        2.802    -0.024    21.709     6.920
    23   6 C        3.072     0.047    26.876     8.500
    24   6 C        2.909    -0.047    29.162     8.855
    25   6 C        2.923    -0.034    28.835     8.806
    26   6 C        2.920    -0.037    28.932     8.821
    27   6 C        2.912    -0.032    28.808     8.801
    28   6 C        3.066    -0.015    28.312     8.725
    29   6 C        3.065    -0.015    28.312     8.725
    30   6 C        2.912    -0.032    28.808     8.801
    31   6 C        2.920    -0.037    28.931     8.820
    32   6 C        2.923    -0.034    28.835     8.806
    33   6 C        2.909    -0.047    29.157     8.854
    34   6 C        3.073     0.047    26.876     8.500
    35   6 C        2.922    -0.057    29.405     8.893
    36   6 C        2.907    -0.043    29.065     8.840
    37   6 C        3.069     0.041    27.001     8.520
    38   6 C        2.911    -0.047    29.178     8.858
    39   6 C        2.917    -0.039    28.969     8.826
    40   6 C        2.887    -0.070    29.749     8.942
    41   6 C        2.965     0.008    27.829     8.653
    42   6 C        3.759    -0.108    22.620     6.781
    43   6 C        2.927    -0.058    29.436     8.898
    44   6 C        2.962     0.007    27.852     8.656
    45   6 C        3.757    -0.105    22.563     6.772
    46   6 C        2.927    -0.059    29.467     8.902
    47   6 C        2.965     0.008    27.835     8.654
    48   6 C        3.759    -0.110    22.644     6.784
    49   6 C        2.965     0.008    27.829     8.653
    50   6 C        3.759    -0.108    22.618     6.780
    51   6 C        2.927    -0.058    29.438     8.898
    52   1 H        0.925     0.038     2.476     2.461
    53   1 H        0.925     0.041     2.433     2.439
    54   1 H        0.924     0.044     2.394     2.420
    55   1 H        0.925     0.018     2.764     2.600
    56   1 H        0.925     0.044     2.393     2.419
    57   1 H        0.925     0.049     2.334     2.389
    58   1 H        0.925     0.034     2.525     2.485
    59   1 H        0.926     0.021     2.720     2.579
    60   1 H        0.925     0.022     2.701     2.570
    61   1 H        0.926     0.037     2.494     2.470
    62   1 H        0.926     0.031     2.568     2.506
    63   1 H        0.926     0.032     2.560     2.502
    64   1 H        0.926     0.033     2.540     2.492
    65   1 H        0.926     0.044     2.395     2.420
    66   1 H        0.926     0.038     2.481     2.463
    67   1 H        0.926     0.036     2.509     2.477
    68   1 H        0.926     0.034     2.528     2.486
    69   1 H        0.926     0.036     2.497     2.471
    70   1 H        0.926     0.036     2.496     2.471
    71   1 H        0.926     0.034     2.527     2.486
    72   1 H        0.926     0.035     2.510     2.477
    73   1 H        0.926     0.037     2.490     2.467
    74   1 H        0.926     0.042     2.422     2.434
    75   1 H        0.926     0.044     2.396     2.421
    76   1 H        0.925     0.022     2.701     2.570
    77   1 H        0.926     0.021     2.714     2.576
    78   1 H        0.925     0.037     2.485     2.465
    79   1 H        0.925     0.043     2.410     2.428
    80   1 H        0.924     0.042     2.429     2.437
    81   1 H        0.925     0.018     2.757     2.597
    82   1 H        0.925     0.043     2.414     2.430
    83   1 H        0.925     0.038     2.482     2.464
    84   1 H        0.924     0.043     2.410     2.428
    85   1 H        0.925     0.018     2.763     2.600
    86   1 H        0.925     0.044     2.400     2.423
    87   1 H        0.925     0.049     2.333     2.389
    88   1 H        0.925     0.034     2.526     2.486
    89   1 H        0.925     0.037     2.487     2.466
    90   1 H        0.924     0.041     2.432     2.439
    91   1 H        0.925     0.043     2.409     2.427
    92   1 H        0.925     0.018     2.758     2.597

molecular dipole:
                 x           y           z       tot (Debye)
 q only:        1.361       0.075       0.033
   full:        1.242       0.067       0.021       3.163

 projected vibrational frequencies (cm⁻¹)
eigval :       -0.00    -0.00    -0.00     0.00     0.00     0.00
eigval :        5.26    10.35    12.87    15.49    23.38    27.69
eigval :       29.70    35.63    36.27    38.53    53.10    61.63
eigval :       62.95    68.75    71.44    90.27    97.03   101.23
eigval :      102.50   118.98   129.86   131.02   136.33   138.05
eigval :      142.14   148.15   158.31   161.81   173.18   184.59
eigval :      185.43   190.86   200.61   204.71   228.29   253.30
eigval :      264.40   269.23   272.03   273.11   274.89   289.88
eigval :      298.08   306.66   312.46   318.88   329.29   356.92
eigval :      380.20   385.82   388.24   395.87   404.55   417.56
eigval :      421.61   433.56   435.63   458.10   464.42   476.73
eigval :      481.43   486.53   489.01   499.09   507.53   515.51
eigval :      518.50   521.00   531.14   535.44   538.76   542.03
eigval :      546.02   555.70   558.55   581.09   585.90   593.03
eigval :      596.69   597.23   611.73   618.72   629.00   640.39
eigval :      663.17   669.08   671.34   674.49   681.70   694.59
eigval :      708.96   719.02   753.32   761.96   767.62   777.08
eigval :      789.48   795.41   812.28   835.40   837.63   841.23
eigval :      855.49   859.06   860.65   870.05   871.21   876.01
eigval :      876.07   878.35   888.60   892.70   894.62   895.82
eigval :      903.86   905.17   908.13   910.94   917.51   920.27
eigval :      923.78   926.42   960.20   961.28   964.28   971.68
eigval :      972.22   990.68  1009.57  1010.24  1015.48  1016.51
eigval :     1019.83  1024.45  1024.79  1025.87  1027.48  1028.00
eigval :     1029.13  1030.77  1040.89  1041.75  1062.42  1064.59
eigval :     1067.49  1069.56  1082.97  1100.04  1111.96  1131.93
eigval :     1135.83  1139.90  1146.00  1166.88  1172.48  1178.06
eigval :     1178.51  1182.54  1186.36  1193.74  1213.93  1217.75
eigval :     1227.20  1229.64  1230.30  1231.70  1234.63  1252.63
eigval :     1260.22  1268.71  1283.30  1287.41  1289.17  1300.02
eigval :     1309.98  1311.51  1315.72  1330.01  1337.45  1342.69
eigval :     1350.31  1356.61  1372.30  1393.54  1396.27  1397.10
eigval :     1398.77  1399.22  1400.08  1402.75  1403.63  1410.32
eigval :     1410.55  1416.17  1419.27  1424.24  1424.56  1428.34
eigval :     1439.73  1443.85  1452.18  1463.64  1468.34  1469.02
eigval :     1469.68  1471.02  1474.97  1476.80  1477.17  1479.04
eigval :     1480.37  1480.84  1481.25  1481.90  1488.48  1489.74
eigval :     1496.89  1507.80  1510.72  1512.83  1526.14  1547.56
eigval :     1553.46  1563.78  1565.51  1572.92  1581.52  1582.92
eigval :     1588.51  2983.90  2987.43  2987.99  2991.19  3005.60
eigval :     3006.94  3007.49  3011.44  3012.18  3013.51  3019.87
eigval :     3020.65  3027.62  3027.94  3033.81  3035.82  3041.89
eigval :     3043.11  3046.37  3046.46  3048.86  3049.39  3056.96
eigval :     3059.05  3069.50  3072.62  3075.02  3076.15  3076.38
eigval :     3081.78  3082.77  3082.82  3089.33  3089.75  3090.71
eigval :     3095.16  3096.92  3097.15  3098.05  3098.50  3107.89

   temp. (K)  partition function   enthalpy   heat capacity  entropy
                                   cal/mol     cal/K/mol   cal/K/mol   J/K/mol
 298.15  VIB  0.739E+23            27588.336    166.141    175.195
         ROT  0.126E+09              888.752      2.981     40.053
         INT  0.935E+31            28477.088    169.122    215.248
         TR   0.163E+29             1481.254      4.968     45.307
         TOT                       29958.3419   174.0904   260.5553  1090.1633

       T/K    H(0)-H(T)+PV         H(T)/Eh          T*S/Eh         G(T)/Eh
   ------------------------------------------------------------------------
    298.15    0.477417E-01    0.776494E+00    0.123798E+00    0.652696E+00
   ------------------------------------------------------------------------

         :::::::::::::::::::::::::::::::::::::::::::::::::::::
         ::                  THERMODYNAMIC                  ::
         :::::::::::::::::::::::::::::::::::::::::::::::::::::
         :: total free energy        -130.163126716581 Eh   ::
         ::.................................................::
         :: total energy             -130.815822500983 Eh   ::
         :: zero point energy           0.728752349011 Eh   ::
         :: G(RRHO) w/o ZPVE           -0.076056564609 Eh   ::
         :: G(RRHO) contrib.            0.652695784402 Eh   ::
         :::::::::::::::::::::::::::::::::::::::::::::::::::::

           -------------------------------------------------
          | TOTAL ENERGY             -130.815822500983 Eh   |
          | TOTAL ENTHALPY           -130.039328495293 Eh   |
          | TOTAL FREE ENERGY        -130.163126716581 Eh   |
          | GRADIENT NORM               0.000054941396 Eh/α |
          | HOMO-LUMO GAP               0.210424643600 eV   |
           -------------------------------------------------

 * finished run on 2025/07/19 at 04:46:50.497
