   * xtb version 6.7.1 (edcfbbe) compiled by 'albert@albert-system' on 2024-07-22

   ID    Z sym.   atoms
    1    6 C      1-6, 8-11, 13-21, 23-51
    2    5 B      7
    3    7 N      12, 22
    4    1 H      52-92

          program call               : xtb data2507/toluene/CCDMB/CCDMB_toluene_S0_crest.xyz --gfn 2 --gbsa toluene --ohess vtight --parallel 40 --molden --ceasefiles --namespace data2507/toluene/CCDMB/CCDMB_toluene_S0_finalOpt
      * Solvation model:               GBSA
        Solvent                        toluene
        Solvent mass                       9.2140E+01 g/mol
          :  Hamiltonian                  GFN2-xTB          :
 * total energy  :  -130.9107567 Eh     change       -0.1425974E-08 Eh
 * total energy  :  -130.9108283 Eh     change       -0.7163209E-04 Eh
 * total energy  :  -130.9108735 Eh     change       -0.4518887E-04 Eh
 * total energy  :  -130.9108870 Eh     change       -0.1347265E-04 Eh
 * total energy  :  -130.9108956 Eh     change       -0.8569699E-05 Eh
 * total energy  :  -130.9109016 Eh     change       -0.6021015E-05 Eh
 * total energy  :  -130.9109066 Eh     change       -0.5054563E-05 Eh
 * total energy  :  -130.9109100 Eh     change       -0.3350512E-05 Eh
 * total energy  :  -130.9109130 Eh     change       -0.3045543E-05 Eh
 * total energy  :  -130.9109161 Eh     change       -0.3081582E-05 Eh
 * total energy  :  -130.9109475 Eh     change       -0.3928941E-06 Eh
 * total energy  :  -130.9109482 Eh     change       -0.6163339E-06 Eh
 * total energy  :  -130.9109492 Eh     change       -0.1002845E-05 Eh
 * total energy  :  -130.9109500 Eh     change       -0.8315466E-06 Eh
 * total energy  :  -130.9109506 Eh     change       -0.6324439E-06 Eh
 * total energy  :  -130.9109513 Eh     change       -0.6873626E-06 Eh
 * total energy  :  -130.9109519 Eh     change       -0.5837675E-06 Eh
 * total energy  :  -130.9109522 Eh     change       -0.3078482E-06 Eh
 * total energy  :  -130.9109523 Eh     change       -0.7160864E-07 Eh
   *** GEOMETRY OPTIMIZATION CONVERGED AFTER 32 ITERATIONS ***

 final structure:
================
92
 xtb: 6.7.1 (edcfbbe)
C           -8.88807273213210       -3.02923490957074        1.98753524057131
C           -7.80188789039642       -2.14504710158998        1.45225578506694
C           -7.55444244621968       -0.90249893077927        2.02202363339881
C           -6.57050359170503       -0.06036778476525        1.53174627074463
C           -6.34053618230037        1.25866593289641        2.21074472237789
C           -5.77578891357618       -0.45131066742154        0.43790355144038
B           -4.60639226537338        0.46394758932499       -0.07324040528660
C           -3.15784993075534       -0.13085059912747       -0.10058045607220
C           -2.78254886870721       -1.17553754458036        0.75250055645748
C           -1.50238090874992       -1.69025360280181        0.75208497867252
C           -0.55154942155586       -1.18862540466432       -0.13299072871987
N            0.75068595359882       -1.71299882192710       -0.14343284398846
C            1.08278881174205       -3.05087360488618       -0.21847664289988
C            0.25975898663208       -4.15946444452495       -0.36453762890863
C            0.85900464941407       -5.40188975274778       -0.44270060598639
C            2.24422881490376       -5.54804739711346       -0.38619382139606
C            3.06956516963620       -4.44800855964634       -0.26563834622223
C            2.49013858396170       -3.18770527911824       -0.18567997171913
C            3.02473510038156       -1.85911592265961       -0.08265099479063
C            4.31539600092042       -1.35940617665579        0.01033302456668
C            4.48941768740347        0.01303460708372        0.10777359003364
N            5.78791943764341        0.55102747489239        0.18183197852919
C            6.25049876794327        1.42030658008959        1.14679101940114
C            5.60020692904264        1.93035317329957        2.26247031929785
C            6.30840761669477        2.77915167707524        3.09106140765225
C            7.63583808236783        3.11353678425532        2.82779518412756
C            8.29501429495502        2.59276729506061        1.73212158603493
C            7.60455476671598        1.73615428370034        0.88366385513397
C            7.96643918118023        1.01523422774688       -0.30425514098607
C            9.13375797646222        0.92535080163644       -1.05238798128965
C            9.13745579781181        0.13053104369222       -2.18131201844100
C            7.99210399073389       -0.55910120010832       -2.57626018783756
C            6.81932272799244       -0.48579576368785       -1.84969197657390
C            6.81504994066831        0.29515407542539       -0.70173396829691
C            3.38548397750551        0.87391008961506        0.13710366638126
C            2.09500490709404        0.39075810133540        0.06584681909443
C            1.91557196758203       -0.98015081548198       -0.06457091159357
C           -0.90366337176966       -0.16138114281833       -1.00474815925529
C           -2.18035256517782        0.36144077461606       -0.97344718035320
C           -4.81262780001212        1.94571385315831       -0.55072547355307
C           -4.08654446014669        3.00457322494612        0.01290972029294
C           -3.13925304554370        2.80098786963648        1.16308145940408
C           -4.25022602156258        4.30258852860149       -0.45519736207366
C           -5.12023500044218        4.59580576136151       -1.49078116058210
C           -5.28387426349365        5.99395256956978       -2.00683370157212
C           -5.84127817809946        3.54825101255149       -2.05059915067914
C           -5.70586693710413        2.24763334607662       -1.59585944805935
C           -6.50017580939635        1.15979641274978       -2.25858008514947
C           -6.03136108866069       -1.70367087062496       -0.13906626599913
C           -5.28082589463606       -2.19474819930032       -1.34593726344750
C           -7.03208472575438       -2.52434967761667        0.36608730898133
H           -8.76391488612747       -4.05256975926116        1.64042265232065
H           -8.88891374067303       -3.02300708282686        3.07625459651324
H           -9.86189715325410       -2.67048003398976        1.65117809276489
H           -8.14755822007220       -0.58629329652223        2.87003931159883
H           -5.36962866625237        1.26867025740875        2.70418447681306
H           -6.35277532116958        2.06983202651694        1.48652302981986
H           -7.10728189178859        1.44444267436069        2.95981183733537
H           -3.51247377520171       -1.57702352152341        1.44086822262478
H           -1.22638508894914       -2.47597066425553        1.44036025054263
H           -0.81294354348473       -4.05594928839455       -0.42490962555510
H            0.24023628511530       -6.28051360226409       -0.55338388156188
H            2.67382247436459       -6.53713186064816       -0.44763424976843
H            4.14323312774647       -4.55963659269503       -0.23828581869318
H            5.16811682640721       -2.02085177256036        0.01761956664527
H            4.57692684146136        1.66506787716234        2.48211831107996
H            5.82380973696390        3.19107994366981        3.96460222503712
H            8.15439408440817        3.78357858546065        3.49802597798239
H            9.32765673429159        2.84162904033476        1.53662149001590
H           10.01787732913519        1.46955899384212       -0.75461031155380
H           10.03617104303275        0.04493238980082       -2.77473750877966
H            8.02209494721376       -1.16251370188684       -3.47216717117057
H            5.93264819326245       -1.01218356932289       -2.17048633354961
H            3.55734212375073        1.93728453454079        0.21102508417852
H            1.25362614293171        1.06481456045312        0.10983514934581
H           -0.17354202256178        0.21457749865239       -1.70677618358883
H           -2.43940007109973        1.16294247856060       -1.65055763854298
H           -3.39226861328464        3.47805416932012        1.97876559741417
H           -3.16905599504401        1.78150982387004        1.53303569490075
H           -2.11917592498040        3.02703143557952        0.85153579706904
H           -3.68212498837288        5.09991745161225        0.00593627700592
H           -4.85223685355039        6.07886954380962       -3.00484874755351
H           -4.78815351254660        6.71062531481414       -1.35614946052208
H           -6.33892821726987        6.25502250703495       -2.07836228851225
H           -6.52802529682448        3.75821107996290       -2.86006151539719
H           -5.83847684422833        0.46852535624874       -2.77826635124982
H           -7.05992614092231        0.59077978415462       -1.51981895851011
H           -7.19693573521546        1.57803850498999       -2.98183013820020
H           -5.97669266420685       -2.38440821410450       -2.16343324077105
H           -4.77687121873054       -3.13404351169132       -1.11818553103215
H           -4.54045509502504       -1.47493068063448       -1.67910368712066
H           -7.20986666646751       -3.48253231566319       -0.10444141621075

          :  Hamiltonian                  GFN2-xTB          :
         :: gradient norm              0.000122945487 Eh/a0 ::
         :: HOMO-LUMO gap              2.287299980847 eV    ::
         :: SCC energy              -133.325352091391 Eh    ::
         :: -> dispersion             -0.123931782043 Eh    ::
         :: -> Gsolv                  -0.051807700995 Eh    ::
         :: repulsion energy           2.414399815894 Eh    ::

    * Orbital Energies and Occupations

         #    Occupation            Energy/Eh            Energy/eV
      -------------------------------------------------------------
         1        2.0000           -0.6795712             -18.4921
       ...           ...                  ...                  ...
       111        2.0000           -0.4077921             -11.0966
       112        2.0000           -0.4060176             -11.0483
       113        2.0000           -0.4027307             -10.9589
       114        2.0000           -0.3989640             -10.8564
       115        2.0000           -0.3910896             -10.6421
       116        2.0000           -0.3837229             -10.4416
       117        2.0000           -0.3788267             -10.3084
       118        2.0000           -0.3776302             -10.2758
       119        2.0000           -0.3760111             -10.2318
       120        2.0000           -0.3729394             -10.1482
       121        2.0000           -0.3689602             -10.0399
       122        2.0000           -0.3669336              -9.9848
       123        2.0000           -0.3548445              -9.6558 (HOMO)
       124                         -0.2707877              -7.3685 (LUMO)
       125                         -0.2496567              -6.7935
       126                         -0.2430319              -6.6132
       127                         -0.2285281              -6.2186
       128                         -0.2253278              -6.1315
       129                         -0.2194796              -5.9723
       130                         -0.2193313              -5.9683
       131                         -0.2092019              -5.6927
       132                         -0.2057809              -5.5996
       133                         -0.2045247              -5.5654
       134                         -0.2014299              -5.4812
       ...                                ...                  ...
       245                          0.7471841              20.3319
      -------------------------------------------------------------
                  HL-Gap            0.0840569 Eh            2.2873 eV

     #   Z          covCN         q      C6AA      α(0)
     1   6 C        3.757    -0.106    22.586     6.776
     2   6 C        2.962     0.010    27.799     8.648
     3   6 C        2.929    -0.058    29.446     8.899
     4   6 C        2.967     0.010    27.786     8.646
     5   6 C        3.759    -0.113    22.706     6.793
     6   6 C        2.889    -0.083    30.080     8.992
     7   5 B        2.709     0.251    17.703     7.056
     8   6 C        2.883    -0.062    29.528     8.909
     9   6 C        2.924    -0.026    28.655     8.778
    10   6 C        2.917    -0.044    29.089     8.844
    11   6 C        2.914     0.064    26.568     8.452
    12   7 N        2.802    -0.041    22.039     6.972
    13   6 C        3.078     0.048    26.840     8.494
    14   6 C        2.909    -0.051    29.258     8.869
    15   6 C        2.924    -0.034    28.846     8.808
    16   6 C        2.920    -0.042    29.039     8.837
    17   6 C        2.912    -0.034    28.845     8.807
    18   6 C        3.067    -0.018    28.393     8.737
    19   6 C        3.068    -0.017    28.359     8.732
    20   6 C        2.915    -0.047    29.167     8.856
    21   6 C        2.912     0.052    26.837     8.495
    22   7 N        2.803    -0.048    22.169     6.993
    23   6 C        3.078     0.048    26.849     8.495
    24   6 C        2.909    -0.053    29.305     8.877
    25   6 C        2.923    -0.036    28.895     8.815
    26   6 C        2.919    -0.044    29.091     8.845
    27   6 C        2.912    -0.036    28.888     8.813
    28   6 C        3.068    -0.020    28.438     8.744
    29   6 C        3.068    -0.020    28.438     8.744
    30   6 C        2.912    -0.036    28.888     8.813
    31   6 C        2.919    -0.044    29.091     8.845
    32   6 C        2.924    -0.036    28.893     8.815
    33   6 C        2.909    -0.052    29.299     8.876
    34   6 C        3.078     0.048    26.846     8.495
    35   6 C        2.926    -0.047    29.164     8.856
    36   6 C        2.909    -0.050    29.247     8.868
    37   6 C        3.076     0.045    26.905     8.504
    38   6 C        2.917    -0.044    29.103     8.846
    39   6 C        2.923    -0.026    28.656     8.779
    40   6 C        2.889    -0.083    30.083     8.992
    41   6 C        2.967     0.011    27.777     8.645
    42   6 C        3.759    -0.110    22.658     6.786
    43   6 C        2.930    -0.059    29.454     8.900
    44   6 C        2.962     0.010    27.796     8.648
    45   6 C        3.757    -0.106    22.587     6.776
    46   6 C        2.929    -0.058    29.447     8.899
    47   6 C        2.967     0.010    27.781     8.646
    48   6 C        3.759    -0.113    22.711     6.794
    49   6 C        2.967     0.011    27.777     8.645
    50   6 C        3.759    -0.111    22.665     6.787
    51   6 C        2.930    -0.059    29.457     8.901
    52   1 H        0.925     0.038     2.470     2.458
    53   1 H        0.925     0.041     2.439     2.442
    54   1 H        0.924     0.044     2.400     2.423
    55   1 H        0.925     0.021     2.722     2.580
    56   1 H        0.925     0.042     2.417     2.431
    57   1 H        0.925     0.049     2.327     2.386
    58   1 H        0.925     0.036     2.497     2.471
    59   1 H        0.926     0.037     2.490     2.468
    60   1 H        0.926     0.036     2.499     2.472
    61   1 H        0.926     0.033     2.538     2.491
    62   1 H        0.926     0.032     2.559     2.501
    63   1 H        0.926     0.029     2.595     2.519
    64   1 H        0.926     0.031     2.565     2.505
    65   1 H        0.926     0.040     2.453     2.449
    66   1 H        0.926     0.029     2.607     2.525
    67   1 H        0.926     0.028     2.610     2.526
    68   1 H        0.926     0.026     2.644     2.543
    69   1 H        0.926     0.028     2.613     2.528
    70   1 H        0.926     0.028     2.612     2.528
    71   1 H        0.926     0.026     2.645     2.543
    72   1 H        0.926     0.028     2.612     2.527
    73   1 H        0.926     0.028     2.612     2.527
    74   1 H        0.926     0.040     2.442     2.444
    75   1 H        0.926     0.040     2.448     2.447
    76   1 H        0.926     0.036     2.501     2.473
    77   1 H        0.926     0.037     2.489     2.467
    78   1 H        0.925     0.042     2.419     2.432
    79   1 H        0.925     0.041     2.439     2.442
    80   1 H        0.924     0.041     2.435     2.440
    81   1 H        0.925     0.021     2.714     2.576
    82   1 H        0.924     0.043     2.404     2.425
    83   1 H        0.925     0.038     2.477     2.461
    84   1 H        0.925     0.042     2.428     2.437
    85   1 H        0.925     0.021     2.718     2.578
    86   1 H        0.925     0.043     2.407     2.426
    87   1 H        0.925     0.049     2.327     2.385
    88   1 H        0.925     0.036     2.497     2.471
    89   1 H        0.925     0.043     2.410     2.428
    90   1 H        0.925     0.041     2.440     2.443
    91   1 H        0.925     0.041     2.436     2.441
    92   1 H        0.925     0.021     2.711     2.575

molecular dipole:
                 x           y           z       tot (Debye)
 q only:       -1.559      -0.146      -0.072
   full:       -1.561      -0.166      -0.082       3.996

 projected vibrational frequencies (cm⁻¹)
eigval :       -0.00    -0.00     0.00     0.00     0.00     0.00
eigval :        7.87    12.04    13.10    18.87    21.21    24.21
eigval :       28.16    29.23    31.86    36.87    44.65    51.13
eigval :       51.66    59.08    63.62    82.61    93.70    96.96
eigval :      102.86   103.72   113.74   122.80   131.90   135.88
eigval :      141.74   145.53   154.20   160.27   179.28   183.19
eigval :      188.12   199.97   206.27   208.63   224.37   250.39
eigval :      267.82   273.50   273.97   274.46   277.94   304.59
eigval :      307.88   316.74   324.21   334.01   341.11   377.53
eigval :      382.11   392.50   396.01   399.05   413.41   423.33
eigval :      429.27   434.88   452.77   462.69   479.16   486.21
eigval :      490.39   498.42   499.50   505.68   509.90   517.90
eigval :      522.77   529.74   534.14   536.77   541.94   543.11
eigval :      556.63   560.68   585.59   588.10   596.90   599.98
eigval :      600.58   604.11   619.40   627.77   634.16   671.75
eigval :      674.06   678.64   679.27   688.04   696.14   707.07
eigval :      709.32   727.42   754.81   767.91   773.45   779.26
eigval :      793.66   814.80   825.76   840.03   844.25   865.13
eigval :      869.46   871.21   877.46   879.13   881.92   884.86
eigval :      890.51   893.82   893.92   897.21   900.20   901.89
eigval :      902.21   912.88   920.15   922.62   922.84   932.96
eigval :      937.53   943.74   964.11   964.29   971.43   972.53
eigval :      973.60  1011.03  1019.00  1021.86  1022.96  1027.06
eigval :     1029.57  1029.85  1031.08  1032.71  1033.64  1034.85
eigval :     1039.70  1040.78  1043.13  1043.98  1067.96  1069.64
eigval :     1071.38  1102.00  1106.87  1123.88  1136.79  1149.77
eigval :     1152.27  1162.54  1171.35  1176.74  1180.40  1181.78
eigval :     1183.68  1189.17  1205.69  1216.68  1221.41  1221.85
eigval :     1234.02  1234.80  1235.30  1240.14  1245.35  1271.25
eigval :     1276.68  1294.50  1300.19  1301.45  1302.69  1305.09
eigval :     1305.90  1335.07  1337.71  1341.47  1350.90  1356.65
eigval :     1358.18  1363.02  1380.59  1395.48  1398.30  1398.58
eigval :     1401.60  1401.73  1404.43  1407.75  1420.74  1425.18
eigval :     1425.87  1426.89  1427.40  1438.34  1450.95  1454.77
eigval :     1471.94  1473.26  1476.43  1476.92  1479.49  1480.36
eigval :     1480.66  1482.43  1482.95  1483.33  1484.07  1485.78
eigval :     1486.80  1487.61  1488.84  1492.84  1494.10  1544.83
eigval :     1559.73  1560.31  1564.78  1572.08  1581.10  1584.04
eigval :     1587.01  1596.04  1596.96  1599.14  1601.28  1612.32
eigval :     1613.80  2987.93  2991.57  2993.45  2993.56  3007.62
eigval :     3008.53  3009.21  3010.52  3015.22  3020.07  3029.90
eigval :     3030.74  3033.84  3035.82  3036.57  3038.14  3052.95
eigval :     3053.00  3056.08  3056.78  3064.10  3065.07  3069.06
eigval :     3069.74  3071.60  3072.71  3073.53  3074.10  3075.16
eigval :     3078.62  3081.76  3082.63  3082.81  3085.27  3087.13
eigval :     3087.78  3088.92  3091.37  3093.68  3094.92  3099.28

   temp. (K)  partition function   enthalpy   heat capacity  entropy
                                   cal/mol     cal/K/mol   cal/K/mol   J/K/mol
 298.15  VIB  0.140E+24            27414.023    162.996    174.400
         ROT  0.126E+09              888.752      2.981     40.047
         INT  0.176E+32            28302.776    165.977    214.447
         TR   0.163E+29             1481.254      4.968     45.307
         TOT                       29784.0295   170.9450   259.7542  1086.8114

       T/K    H(0)-H(T)+PV         H(T)/Eh          T*S/Eh         G(T)/Eh
   ------------------------------------------------------------------------
    298.15    0.474639E-01    0.781618E+00    0.123418E+00    0.658200E+00
   ------------------------------------------------------------------------

         :::::::::::::::::::::::::::::::::::::::::::::::::::::
         ::                  THERMODYNAMIC                  ::
         :::::::::::::::::::::::::::::::::::::::::::::::::::::
         :: total free energy        -130.252752362439 Eh   ::
         ::.................................................::
         :: total energy             -130.910952277158 Eh   ::
         :: zero point energy           0.734153630477 Eh   ::
         :: G(RRHO) w/o ZPVE           -0.075953715758 Eh   ::
         :: G(RRHO) contrib.            0.658199914719 Eh   ::
         :::::::::::::::::::::::::::::::::::::::::::::::::::::

           -------------------------------------------------
          | TOTAL ENERGY             -130.910952277158 Eh   |
          | TOTAL ENTHALPY           -130.129334774443 Eh   |
          | TOTAL FREE ENERGY        -130.252752362439 Eh   |
          | GRADIENT NORM               0.000122967698 Eh/α |
          | HOMO-LUMO GAP               2.287304381816 eV   |
           -------------------------------------------------

 * finished run on 2025/07/19 at 04:46:37.808
