   * xtb version 6.7.1 (edcfbbe) compiled by 'albert@albert-system' on 2024-07-22

   ID    Z sym.   atoms
    1    6 C      1-6, 8-11, 13-21, 23-51
    2    5 B      7
    3    7 N      12, 22
    4    1 H      52-92

          program call               : xtb data2507/toluene/CCDMB/CCDMB_toluene_T1_crest.xyz --gfn 2 --uhf 2 --gbsa toluene --ohess vtight --parallel 40 --molden --ceasefiles --namespace data2507/toluene/CCDMB/CCDMB_toluene_T1_finalOpt
      * Solvation model:               GBSA
        Solvent                        toluene
        Solvent mass                       9.2140E+01 g/mol
          :  Hamiltonian                  GFN2-xTB          :
 * total energy  :  -130.8162853 Eh     change       -0.4357474E-08 Eh
 * total energy  :  -130.8163620 Eh     change       -0.7672892E-04 Eh
 * total energy  :  -130.8164030 Eh     change       -0.4099203E-04 Eh
 * total energy  :  -130.8164157 Eh     change       -0.1264080E-04 Eh
 * total energy  :  -130.8164228 Eh     change       -0.7118948E-05 Eh
 * total energy  :  -130.8164276 Eh     change       -0.4853296E-05 Eh
 * total energy  :  -130.8164341 Eh     change       -0.6448905E-05 Eh
 * total energy  :  -130.8164417 Eh     change       -0.7579851E-05 Eh
 * total energy  :  -130.8164480 Eh     change       -0.6379587E-05 Eh
 * total energy  :  -130.8164535 Eh     change       -0.5471338E-05 Eh
 * total energy  :  -130.8165015 Eh     change       -0.1222107E-05 Eh
 * total energy  :  -130.8165027 Eh     change       -0.1260001E-05 Eh
 * total energy  :  -130.8165038 Eh     change       -0.1064754E-05 Eh
 * total energy  :  -130.8165047 Eh     change       -0.9378427E-06 Eh
 * total energy  :  -130.8165056 Eh     change       -0.8636158E-06 Eh
 * total energy  :  -130.8165064 Eh     change       -0.8546783E-06 Eh
 * total energy  :  -130.8165074 Eh     change       -0.9420756E-06 Eh
 * total energy  :  -130.8165084 Eh     change       -0.1027501E-05 Eh
 * total energy  :  -130.8165084 Eh     change       -0.2060290E-08 Eh
   *** GEOMETRY OPTIMIZATION CONVERGED AFTER 44 ITERATIONS ***

 final structure:
================
92
 xtb: 6.7.1 (edcfbbe)
C           -6.55615147854759       -5.29570726111242        2.05107847222254
C           -6.09636664879948       -3.98357199096470        1.49083037996161
C           -6.20239814849587       -3.70992115108588        0.13147095023114
C           -5.78111481448264       -2.50512381297533       -0.40395384408457
C           -5.93588273412301       -2.27946062642946       -1.87964574076021
C           -5.19040535917340       -1.52717339636312        0.42112643094302
B           -4.57868656609950       -0.20289519985393       -0.17348049898084
C           -3.15579647513664        0.21560878080546        0.16817812349494
C           -2.71257794918870        1.56725699015196        0.07190096358981
C           -1.43864225216149        1.94959090951595        0.37584339499446
C           -0.48256420928343        0.99410089348118        0.78120827780660
N            0.82433865881753        1.36823624065832        1.05607691503148
C            1.21614761368269        2.45374581612897        1.82613434655028
C            0.44130879080713        3.35773776509632        2.53352846463644
C            1.09227773201998        4.34634936601190        3.25636111653230
C            2.48349053843013        4.42704337039588        3.28083425782791
C            3.26503258956233        3.50970843179845        2.60359130776128
C            2.63439540199025        2.50453785770443        1.87763941873728
C            3.10980930855648        1.39968414265899        1.10356129468825
C            4.37692079851763        0.94048091971708        0.77545621531537
C            4.49034050247465       -0.16727228444456       -0.05754027022866
N            5.75659226509389       -0.64310495517020       -0.41302520106339
C            6.80411787710571        0.12504371760273       -0.88423829266115
C            6.84937754181608        1.48468278569649       -1.16198551715056
C            8.02925265632106        2.00306735498501       -1.66304568905704
C            9.13863276697526        1.19325423397258       -1.89505629784216
C            9.09062802743599       -0.16613392058123       -1.64793295126700
C            7.91695461582907       -0.70899835271530       -1.14411506153244
C            7.51187678439004       -2.04682666464843       -0.80563244190494
C            8.15914470245744       -3.27421761530045       -0.82718271827585
C            7.46889731990958       -4.39408229314496       -0.40186216918864
C            6.15745467316845       -4.29595778716825        0.05745210597814
C            5.49266215308413       -3.08401600254554        0.08912727379795
C            6.17060939922840       -1.96013060374523       -0.36374288758714
C            3.34550292714353       -0.80480964897210       -0.56848106404237
C            2.07777752579258       -0.36459408238914       -0.24269411826739
C            1.95561940267434        0.72317843684487        0.61142544722287
C           -0.88475427370047       -0.35479452474746        0.88241051620757
C           -2.16839140989541       -0.71915276178993        0.59768580610950
C           -5.45084001724908        0.68382301440664       -1.14531675376776
C           -6.74268918042402        1.11468437726895       -0.78679699134142
C           -7.36714709245985        0.68626524429272        0.50927562262692
C           -7.44655380203844        1.97442140563247       -1.61218284148942
C           -6.92700392707957        2.41244099422125       -2.82562357058216
C           -7.70694060194927        3.34577201935172       -3.70229631448764
C           -5.66882747380568        1.96222616690647       -3.19339155757821
C           -4.93860254930257        1.09977649189016       -2.38799032140234
C           -3.60234718813155        0.63738123234527       -2.89540744317051
C           -5.11948253648544       -1.78897181081561        1.80388796335513
C           -4.58002510021832       -0.77691399117919        2.77357030799823
C           -5.55064513915488       -3.00573316793829        2.30977480813314
H           -6.88266974941928       -5.18501553447452        3.08322184679992
H           -7.37486816521379       -5.70419433576405        1.46197147053148
H           -5.73621814781174       -6.01610757093957        2.03253494612183
H           -6.63192752270359       -4.45797639269877       -0.52246564123681
H           -6.25694644789559       -3.19213835740236       -2.37785457926751
H           -6.67562830370798       -1.50357747857553       -2.07156309179928
H           -4.99613342488222       -1.95204458169826       -2.31805586683111
H           -3.42317195414005        2.30884074270610       -0.26711299370155
H           -1.12853179845285        2.97807204894949        0.25408235338950
H           -0.63573475360167        3.29234248127352        2.53714697531345
H            0.50887224572059        5.06297978310752        3.81472229524727
H            2.95558671705602        5.21391104056482        3.85080488429104
H            4.34256722543172        3.56429631184887        2.64133290469647
H            5.25832370460496        1.41861648802998        1.17335677341826
H            5.98911689369640        2.11768142984633       -1.00667652431888
H            8.08982635672345        3.05862708151127       -1.88402013821179
H           10.04352879617812        1.63552907966343       -2.28488802559443
H            9.94447073545091       -0.79599236832579       -1.84730238397444
H            9.18189321353128       -3.34891143591267       -1.16466244949904
H            7.95367632628838       -5.35910528214236       -0.41431267764769
H            5.64964013924786       -5.18554237725747        0.40019192769586
H            4.48316774431553       -3.01578920079149        0.46441470204061
H            3.46919968395203       -1.62683568591773       -1.25592514724569
H            1.20801581282778       -0.83967474704532       -0.66928996529147
H           -0.17176632313689       -1.08420883225116        1.24121306908301
H           -2.46425989650938       -1.75406234466244        0.70432389947285
H           -8.31504232207884        1.19653135448458        0.66813155273469
H           -7.54739466884855       -0.38737778914129        0.51193060961183
H           -6.70581056194332        0.91053275002986        1.34360649748846
H           -8.42923973504840        2.31295317841139       -1.30981766236286
H           -7.56476744507354        4.37559144541511       -3.36979280097220
H           -8.77153205752462        3.12367095795893       -3.65494418926133
H           -7.37655770871106        3.27583412475833       -4.73650181265061
H           -5.24829329290645        2.27754485957274       -4.13971924221996
H           -2.84758247634945        1.40620372187450       -2.72531070368938
H           -3.27732080775907       -0.26555837953516       -2.38571667772011
H           -3.64913665170119        0.44721320678737       -3.96703530283580
H           -3.52760885483102       -0.97489409413720        2.98094059053178
H           -5.12227172107081       -0.82763489699514        3.71670552858779
H           -4.65313492824333        0.23018204875876        2.37208206977248
H           -5.47279492325892       -3.18954887795360        3.37370534999484

          :  Hamiltonian                  GFN2-xTB          :
         :: gradient norm              0.000047636564 Eh/a0 ::
         :: HOMO-LUMO gap              0.225821791703 eV    ::
         :: SCC energy              -133.217427860379 Eh    ::
         :: -> dispersion             -0.124526906916 Eh    ::
         :: -> Gsolv                  -0.050933414865 Eh    ::
         :: repulsion energy           2.400919453417 Eh    ::

    * Orbital Energies and Occupations

         #    Occupation            Energy/Eh            Energy/eV
      -------------------------------------------------------------
         1        2.0000           -0.6822074             -18.5638
       ...           ...                  ...                  ...
       112        2.0000           -0.3965909             -10.7918
       113        2.0000           -0.3939246             -10.7192
       114        2.0000           -0.3869742             -10.5301
       115        2.0000           -0.3848056             -10.4711
       116        2.0000           -0.3835115             -10.4359
       117        2.0000           -0.3834905             -10.4353
       118        2.0000           -0.3752491             -10.2110
       119        2.0000           -0.3744726             -10.1899
       120        2.0000           -0.3729921             -10.1496
       121        1.9877           -0.3620292              -9.8513
       122        1.9865           -0.3619359              -9.8488
       123        1.0258           -0.3544103              -9.6440
       124        0.9867           -0.2599544              -7.0737 (HOMO)
       125        0.0117           -0.2516545              -6.8479 (LUMO)
       126        0.0016           -0.2497406              -6.7958
       127                         -0.2327020              -6.3321
       128                         -0.2270655              -6.1788
       129                         -0.2162313              -5.8840
       130                         -0.2079913              -5.6597
       131                         -0.2045344              -5.5657
       132                         -0.2041494              -5.5552
       133                         -0.2014597              -5.4820
       134                         -0.2002372              -5.4487
       135                         -0.1926242              -5.2416
       ...                                ...                  ...
       245                          0.7397886              20.1307
      -------------------------------------------------------------
                  HL-Gap            0.0082999 Eh            0.2259 eV

     #   Z          covCN         q      C6AA      α(0)
     1   6 C        3.757    -0.105    22.558     6.772
     2   6 C        2.962     0.006    27.882     8.661
     3   6 C        2.928    -0.058    29.447     8.899
     4   6 C        2.964     0.008    27.843     8.655
     5   6 C        3.759    -0.109    22.636     6.783
     6   6 C        2.888    -0.067    29.671     8.930
     7   5 B        2.711     0.185    18.634     7.238
     8   6 C        2.881    -0.067    29.666     8.929
     9   6 C        2.917    -0.038    28.935     8.821
    10   6 C        2.910    -0.046    29.150     8.853
    11   6 C        2.912     0.036    27.198     8.552
    12   7 N        2.795    -0.007    21.386     6.868
    13   6 C        3.073     0.042    26.973     8.515
    14   6 C        2.909    -0.043    29.066     8.840
    15   6 C        2.922    -0.040    28.986     8.829
    16   6 C        2.919    -0.036    28.888     8.814
    17   6 C        2.911    -0.035    28.870     8.811
    18   6 C        3.060    -0.018    28.407     8.740
    19   6 C        3.062    -0.017    28.369     8.734
    20   6 C        2.913    -0.047    29.177     8.857
    21   6 C        2.912     0.056    26.736     8.479
    22   7 N        2.802    -0.027    21.772     6.930
    23   6 C        3.073     0.047    26.875     8.500
    24   6 C        2.909    -0.048    29.179     8.858
    25   6 C        2.923    -0.033    28.834     8.806
    26   6 C        2.920    -0.038    28.955     8.824
    27   6 C        2.912    -0.033    28.813     8.802
    28   6 C        3.066    -0.015    28.322     8.727
    29   6 C        3.066    -0.015    28.324     8.727
    30   6 C        2.912    -0.033    28.813     8.802
    31   6 C        2.920    -0.038    28.955     8.824
    32   6 C        2.923    -0.034    28.835     8.806
    33   6 C        2.909    -0.047    29.178     8.857
    34   6 C        3.073     0.047    26.872     8.499
    35   6 C        2.923    -0.055    29.365     8.887
    36   6 C        2.908    -0.043    29.059     8.839
    37   6 C        3.070     0.041    27.021     8.523
    38   6 C        2.910    -0.047    29.165     8.855
    39   6 C        2.917    -0.038    28.948     8.823
    40   6 C        2.888    -0.067    29.667     8.930
    41   6 C        2.965     0.007    27.854     8.657
    42   6 C        3.758    -0.109    22.625     6.781
    43   6 C        2.928    -0.058    29.450     8.900
    44   6 C        2.962     0.005    27.903     8.664
    45   6 C        3.757    -0.105    22.553     6.771
    46   6 C        2.929    -0.058    29.451     8.900
    47   6 C        2.965     0.009    27.823     8.652
    48   6 C        3.759    -0.108    22.610     6.779
    49   6 C        2.965     0.009    27.812     8.650
    50   6 C        3.759    -0.108    22.617     6.780
    51   6 C        2.928    -0.058    29.449     8.900
    52   1 H        0.925     0.039     2.461     2.453
    53   1 H        0.925     0.039     2.463     2.454
    54   1 H        0.924     0.044     2.395     2.420
    55   1 H        0.925     0.018     2.763     2.600
    56   1 H        0.925     0.034     2.533     2.489
    57   1 H        0.925     0.045     2.383     2.414
    58   1 H        0.925     0.046     2.365     2.405
    59   1 H        0.925     0.023     2.694     2.567
    60   1 H        0.926     0.023     2.681     2.560
    61   1 H        0.926     0.038     2.478     2.462
    62   1 H        0.926     0.032     2.555     2.500
    63   1 H        0.926     0.032     2.551     2.498
    64   1 H        0.926     0.034     2.529     2.487
    65   1 H        0.926     0.045     2.389     2.417
    66   1 H        0.926     0.036     2.500     2.473
    67   1 H        0.926     0.035     2.519     2.482
    68   1 H        0.926     0.033     2.540     2.492
    69   1 H        0.926     0.036     2.509     2.477
    70   1 H        0.926     0.036     2.509     2.477
    71   1 H        0.926     0.033     2.541     2.493
    72   1 H        0.926     0.035     2.520     2.483
    73   1 H        0.926     0.036     2.498     2.472
    74   1 H        0.926     0.042     2.418     2.432
    75   1 H        0.926     0.045     2.383     2.414
    76   1 H        0.925     0.024     2.677     2.559
    77   1 H        0.925     0.022     2.698     2.569
    78   1 H        0.925     0.034     2.536     2.491
    79   1 H        0.925     0.046     2.376     2.411
    80   1 H        0.925     0.044     2.393     2.419
    81   1 H        0.925     0.018     2.766     2.601
    82   1 H        0.924     0.043     2.406     2.426
    83   1 H        0.925     0.039     2.461     2.453
    84   1 H        0.925     0.038     2.475     2.460
    85   1 H        0.925     0.019     2.745     2.591
    86   1 H        0.924     0.042     2.421     2.433
    87   1 H        0.925     0.041     2.433     2.439
    88   1 H        0.925     0.038     2.469     2.457
    89   1 H        0.924     0.043     2.404     2.425
    90   1 H        0.925     0.038     2.470     2.458
    91   1 H        0.925     0.041     2.433     2.439
    92   1 H        0.925     0.020     2.739     2.588

molecular dipole:
                 x           y           z       tot (Debye)
 q only:        1.259      -0.026       0.030
   full:        1.185      -0.005       0.041       3.015

 projected vibrational frequencies (cm⁻¹)
eigval :       -0.00    -0.00     0.00     0.00     0.00     0.00
eigval :        8.76    13.10    15.84    24.96    28.34    29.71
eigval :       30.77    36.34    43.44    53.09    63.57    67.85
eigval :       72.38    77.19    89.19    91.53    96.13   101.56
eigval :      102.22   114.39   117.07   121.92   129.78   137.13
eigval :      144.33   149.11   157.35   164.86   180.82   182.89
eigval :      185.54   191.32   203.12   208.99   231.34   253.45
eigval :      263.53   268.69   273.99   275.63   276.76   293.14
eigval :      301.45   307.83   319.75   320.46   336.92   368.45
eigval :      384.04   385.69   390.06   395.05   416.97   419.76
eigval :      420.81   434.98   437.18   463.38   465.87   478.33
eigval :      481.90   489.19   491.19   497.77   509.07   516.02
eigval :      518.44   520.70   531.51   537.05   539.26   542.73
eigval :      551.23   557.95   560.26   583.74   587.33   593.44
eigval :      595.78   596.37   617.30   617.65   625.60   647.24
eigval :      661.34   670.11   671.97   674.25   681.02   694.80
eigval :      709.73   719.95   753.88   763.11   766.84   778.29
eigval :      789.90   799.80   818.40   835.85   838.65   839.72
eigval :      855.90   856.89   860.88   867.14   870.26   873.68
eigval :      876.62   878.62   888.51   894.28   895.91   897.15
eigval :      903.94   905.81   908.45   910.37   916.80   919.18
eigval :      924.21   925.56   959.36   961.29   965.17   971.28
eigval :      971.95   988.43  1007.81  1010.55  1016.60  1017.73
eigval :     1020.28  1026.34  1026.91  1027.11  1027.74  1028.87
eigval :     1029.06  1033.91  1040.34  1041.46  1057.06  1065.49
eigval :     1068.34  1070.77  1076.10  1102.00  1114.56  1128.36
eigval :     1138.13  1146.46  1162.66  1168.76  1172.13  1178.83
eigval :     1179.97  1181.59  1187.32  1194.63  1213.54  1219.64
eigval :     1230.83  1231.77  1232.58  1234.38  1243.55  1247.63
eigval :     1261.52  1276.03  1289.43  1290.80  1293.43  1305.63
eigval :     1307.71  1309.96  1316.67  1333.74  1340.08  1344.42
eigval :     1352.37  1356.77  1372.55  1383.65  1396.01  1397.51
eigval :     1399.49  1400.02  1400.19  1402.89  1403.95  1409.61
eigval :     1410.68  1418.50  1421.87  1424.65  1425.42  1429.55
eigval :     1441.40  1452.27  1458.65  1465.67  1470.61  1470.98
eigval :     1473.07  1475.05  1477.77  1479.46  1480.34  1482.28
eigval :     1482.34  1482.66  1482.95  1484.31  1487.32  1489.15
eigval :     1505.20  1517.01  1518.05  1523.72  1539.67  1553.12
eigval :     1554.88  1566.37  1568.75  1574.92  1582.74  1586.29
eigval :     1596.27  2979.31  2981.52  2986.05  2987.35  3009.93
eigval :     3010.98  3012.76  3013.71  3022.02  3023.40  3024.72
eigval :     3025.31  3027.65  3029.53  3030.10  3033.83  3039.28
eigval :     3039.85  3046.61  3046.75  3049.40  3049.78  3053.65
eigval :     3055.59  3066.82  3069.68  3074.53  3075.76  3076.07
eigval :     3081.10  3082.04  3082.62  3088.90  3089.72  3089.96
eigval :     3092.29  3095.05  3096.35  3097.79  3100.22  3104.52

   temp. (K)  partition function   enthalpy   heat capacity  entropy
                                   cal/mol     cal/K/mol   cal/K/mol   J/K/mol
 298.15  VIB  0.480E+22            27406.518    166.889    172.760
         ROT  0.128E+09              888.752      2.981     40.075
         INT  0.613E+30            28295.270    169.870    212.834
         TR   0.163E+29             1481.254      4.968     45.307
         TOT                       29776.5238   174.8383   258.1417  1080.0649

       T/K    H(0)-H(T)+PV         H(T)/Eh          T*S/Eh         G(T)/Eh
   ------------------------------------------------------------------------
    298.15    0.474519E-01    0.777114E+00    0.122651E+00    0.654463E+00
   ------------------------------------------------------------------------

         :::::::::::::::::::::::::::::::::::::::::::::::::::::
         ::                  THERMODYNAMIC                  ::
         :::::::::::::::::::::::::::::::::::::::::::::::::::::
         :: total free energy        -130.162045849003 Eh   ::
         ::.................................................::
         :: total energy             -130.816508405080 Eh   ::
         :: zero point energy           0.729662094045 Eh   ::
         :: G(RRHO) w/o ZPVE           -0.075199537968 Eh   ::
         :: G(RRHO) contrib.            0.654462556077 Eh   ::
         :::::::::::::::::::::::::::::::::::::::::::::::::::::

           -------------------------------------------------
          | TOTAL ENERGY             -130.816508405080 Eh   |
          | TOTAL ENTHALPY           -130.039394399842 Eh   |
          | TOTAL FREE ENERGY        -130.162045849003 Eh   |
          | GRADIENT NORM               0.000047227257 Eh/α |
          | HOMO-LUMO GAP               0.225852666988 eV   |
           -------------------------------------------------

 * finished run on 2025/07/19 at 04:58:34.672
