   * xtb version 6.7.1 (edcfbbe) compiled by 'albert@albert-system' on 2024-07-22

   ID    Z sym.   atoms
    1    6 C      1-27, 29-53, 55-64
    2    8 O      28
    3    7 N      54
    4    1 H      65-113

          program call               : xtb data2507/gas/SIR-C/SIR-C_gas_S0_finalOpt.xtbopt.xyz --gfn 2 --spinpol --tblite --uhf 2 --ohess vtight --parallel 40 --molden --ceasefiles --namespace data2507/gas/SIR-C/SIR-C_gas_T1_preOpt
 * total energy  :  -164.7317242 Eh     change       -0.5342895E-07 Eh
 * total energy  :  -164.7346680 Eh     change       -0.2943828E-02 Eh
 * total energy  :  -164.7354152 Eh     change       -0.7471156E-03 Eh
 * total energy  :  -164.7354759 Eh     change       -0.6076131E-04 Eh
 * total energy  :  -164.7355123 Eh     change       -0.3640387E-04 Eh
 * total energy  :  -164.7355352 Eh     change       -0.2283460E-04 Eh
 * total energy  :  -164.7355516 Eh     change       -0.1645070E-04 Eh
 * total energy  :  -164.7355622 Eh     change       -0.1060745E-04 Eh
 * total energy  :  -164.7355549 Eh     change        0.7293684E-05 Eh
 * total energy  :  -164.7355651 Eh     change       -0.1015188E-04 Eh
 * total energy  :  -164.7356751 Eh     change       -0.3874381E-06 Eh
 * total energy  :  -164.7356754 Eh     change       -0.3229519E-06 Eh
 * total energy  :  -164.7356762 Eh     change       -0.7276793E-06 Eh
 * total energy  :  -164.7356764 Eh     change       -0.2435605E-06 Eh
 * total energy  :  -164.7356766 Eh     change       -0.2109694E-06 Eh
 * total energy  :  -164.7356768 Eh     change       -0.1943843E-06 Eh
 * total energy  :  -164.7356772 Eh     change       -0.3338933E-06 Eh
 * total energy  :  -164.7356776 Eh     change       -0.4110609E-06 Eh
 * total energy  :  -164.7356776 Eh     change       -0.2689859E-08 Eh
   *** GEOMETRY OPTIMIZATION CONVERGED AFTER 94 ITERATIONS ***

 final structure:
================
113
 xtb: 6.7.1 (edcfbbe)
C            2.32801380974164       -0.27786111148128       -5.09553181450326
C            1.72947378099753        0.27357862152237       -3.84076133907399
C            1.37925625509358        1.61708165270853       -3.73371828902045
C            0.83725225015898        2.11870349903353       -2.57161702041411
C            0.64133546439272        1.29153089076450       -1.45973213494863
C            0.98582137118914       -0.06556732861124       -1.55675416487306
C            1.51184544802722       -0.54765841310736       -2.74446107416592
C            0.70383956886936       -1.02847509496419       -0.43824260025674
C           -0.57640306265967       -1.80189798220768       -0.73627209981446
C           -1.65087031080105       -1.14108342245730       -1.30456029656577
C           -2.89715729359406       -1.73380814147688       -1.37410798664296
C           -3.09534949261585       -3.00811366213816       -0.83487547320024
C           -4.45829129718653       -3.55035258696772       -0.70464835430021
C           -4.77207290973346       -4.81904033687752       -1.17578313715546
C           -6.05960360306113       -5.31342135986183       -1.07288457806295
C           -7.05117513204703       -4.53976038130615       -0.49339347811378
C           -6.74848288809318       -3.27925865348732       -0.01084834878269
C           -5.45693724248826       -2.77293941669972       -0.09931832755064
C           -5.14795533688012       -1.44141191559112        0.45620554879692
C           -4.08159259278125       -1.26400390878955        1.33565221526429
C           -3.76891364552265       -0.00744700665527        1.81715366006463
C           -4.51996870485850        1.09224736163541        1.43435282469218
C           -5.59780603079537        0.92324204489168        0.58205648908242
C           -5.91248078681123       -0.33472999642788        0.09938226861368
C           -2.00987568169098       -3.71329537243714       -0.35881889636705
C           -0.73247074996028       -3.12667190997274       -0.30788045476597
C            0.37062938676448       -3.92581266271807        0.18252995351160
O            0.20579537975322       -5.10534574719576        0.59843807493069
C            1.67856752192476       -3.31568427782978        0.12436572121275
C            2.81020646980068       -4.09859536223114        0.42912525508726
C            4.06980980614440       -3.56104717247778        0.38660726516894
C            4.27033743569089       -2.21880749572449        0.03925830142852
C            5.61380405395778       -1.64057946294440       -0.01381160260433
C            6.66439182000200       -2.39333876803120       -0.54207204125946
C            7.93887326832030       -1.87466892297085       -0.65060948274316
C            8.19421681311660       -0.57735310609787       -0.23628692931063
C            7.16697036804246        0.18279483688349        0.29128005449685
C            5.88097993400264       -0.33034221397481        0.41880109018360
C            4.85234773869887        0.51775033394142        1.04952367000341
C            4.12978839315712        0.07017806361608        2.15295465003146
C            3.18912091036344        0.88534613789952        2.75180919662293
C            2.95099746533717        2.15766062851075        2.25800185453259
C            3.66780017396275        2.61289174965964        1.16532131504269
C            4.61583212807225        1.80237641245954        0.56837538566750
C            3.14548470560569       -1.44868381360109       -0.26641290036462
C            1.87066153181046       -1.96862693668424       -0.21826416969162
C            0.38813676445824       -0.31184342393314        0.85798252013669
C            0.34395476450109       -1.01933867075300        2.04935054782953
C           -0.05022668371677       -0.43171723870302        3.24125824818914
C           -0.11640685934756       -1.23217407737106        4.50316812678081
C           -0.40916131769400        0.91503871729078        3.22756435080292
C           -0.36527512214848        1.64283234535069        2.06121700647952
C            0.02998306043520        1.04306489503424        0.85960048861032
N            0.08919487643459        1.79170813650374       -0.29706544735651
C           -0.52152087618088        3.07597089655956       -0.29975092895695
C           -1.90675329055179        3.16514843365701       -0.35047566595921
C           -2.51479395530477        4.40427702173296       -0.34696600459864
C           -1.77241470394628        5.58296824941206       -0.29334285938357
C           -2.49375771986542        6.92076271640952       -0.29361743111258
C           -3.42076504503338        6.98757203414974        0.92843480590950
C           -3.32008758656487        7.04027523566110       -1.58205240375933
C           -1.53241098221215        8.11058817792260       -0.23029728700482
C           -0.38776494462288        5.47129936913455       -0.23859401145433
C            0.23533270833570        4.23522771833186       -0.23996875097017
H            3.40072208510963       -0.42212053989839       -4.96309536226174
H            1.89144736764711       -1.24509834181336       -5.33545795829423
H            2.17454451580156        0.39876838558474       -5.93249296285673
H            1.52566453492164        2.27715054487115       -4.57613943138827
H            0.55568653218584        3.15893218925731       -2.52059695193627
H            1.75470678411815       -1.59836921631335       -2.80998953590947
H           -1.52466530428096       -0.13707646417249       -1.68417055733774
H           -3.72352535449337       -1.19974384266018       -1.81753058509413
H           -3.99717326367456       -5.41174039530855       -1.63971107514775
H           -6.29037368574594       -6.30017796063974       -1.44654217093301
H           -8.05882533013494       -4.92030546949005       -0.41172678351676
H           -7.51573619648884       -2.68258562170978        0.46232773191859
H           -3.49536773859815       -2.11749508097880        1.64188380420884
H           -2.93055594137579        0.11691817961970        2.48699933749232
H           -4.26738430189220        2.07550210063547        1.80528178080318
H           -6.19402270137540        1.77521739669672        0.28665150592272
H           -6.74314792029625       -0.46042265484185       -0.58096802517782
H           -2.12172654408831       -4.71219164573849        0.03647294697270
H            2.64898780601765       -5.13041974088415        0.70255498966704
H            4.91781128129873       -4.17641252097249        0.65112279463101
H            6.46406998538963       -3.39452877804607       -0.89507932753002
H            8.73322234129986       -2.47822542399481       -1.06530146346429
H            9.18774501297854       -0.16229810618651       -0.32059263915373
H            7.36336788785511        1.18848402625970        0.63650840259594
H            4.31604026298075       -0.92005594061370        2.54191074978050
H            2.63827181351318        0.53005744261184        3.60980201275055
H            2.21372445372828        2.79169974765637        2.72830141456215
H            3.49843678640501        3.60938293547044        0.78109117562743
H            5.16914881076602        2.15705650272766       -0.29020973162634
H            3.27255778059538       -0.41716633489607       -0.56058989900596
H            0.61362698463415       -2.06405924504828        2.04805308496905
H            0.58854467473945       -2.05926673557641        4.47354940630520
H            0.09542310103544       -0.61141230426956        5.37138112426241
H           -1.11699577019043       -1.64940087884281        4.62549329489675
H           -0.71895880203154        1.39624641478091        4.14426248191328
H           -0.63306321237296        2.68834788546751        2.07140598025797
H           -2.49890868668572        2.26175024614115       -0.38420118346440
H           -3.59223410145117        4.44347011164091       -0.38836527731886
H           -4.17114823105955        6.20246412691440        0.90222729340507
H           -3.93331355780833        7.94644879292245        0.95547172718913
H           -2.84443129722859        6.87922596890798        1.84499832366415
H           -4.06795321160376        6.25529584032734       -1.64976983866708
H           -3.83103229109170        8.00001454947136       -1.60939076838504
H           -2.67194262281468        6.97002229643364       -2.45318914095575
H           -0.93939512093813        8.08859301547349        0.68110193749118
H           -0.86725392208428        8.12407995808358       -1.09064063217803
H           -2.10348997177064        9.03647152441642       -0.23498592315695
H            0.23249669551374        6.35086080314436       -0.19006845348378
H            1.31151911672268        4.16421547055257       -0.18938047344707

 projected vibrational frequencies (cm⁻¹)
eigval :       -0.00    -0.00    -0.00     0.00     0.00     0.00
eigval :        5.55    11.81    16.31    17.47    21.68    23.79
eigval :       26.63    28.35    33.77    35.78    40.58    43.75
eigval :       47.47    54.67    59.15    60.52    63.87    71.56
eigval :       85.01    85.45    93.05    93.48    97.58   104.01
eigval :      107.37   124.02   128.88   134.30   138.63   146.98
eigval :      160.51   173.25   174.47   187.75   191.53   206.06
eigval :      211.55   219.68   223.85   238.93   253.14   255.63
eigval :      260.48   265.74   276.53   292.69   297.10   301.64
eigval :      306.77   315.06   316.61   320.09   322.71   332.70
eigval :      335.32   348.15   361.18   362.57   364.97   368.60
eigval :      375.95   376.21   381.58   390.46   394.95   400.69
eigval :      413.23   421.67   427.41   436.39   438.66   445.07
eigval :      452.98   460.98   479.03   483.23   496.68   503.16
eigval :      509.67   511.49   526.61   530.62   535.32   536.27
eigval :      537.86   546.01   568.50   576.74   580.84   584.47
eigval :      587.50   589.09   591.28   595.90   607.47   608.51
eigval :      613.17   622.10   625.17   634.36   657.71   663.28
eigval :      669.38   673.02   673.36   681.14   684.06   689.91
eigval :      703.62   705.84   712.58   724.60   739.04   743.59
eigval :      757.06   758.96   761.02   777.32   782.25   785.18
eigval :      805.25   809.98   810.91   813.84   821.20   824.27
eigval :      862.84   865.38   873.92   876.81   877.24   879.51
eigval :      880.81   882.43   886.49   887.59   890.42   891.96
eigval :      899.45   904.41   909.99   911.38   913.35   915.59
eigval :      917.03   918.12   918.65   921.99   926.00   928.60
eigval :      928.72   930.11   930.41   931.55   932.39   935.83
eigval :      945.74   958.06   960.83   962.89   963.56   963.94
eigval :      967.26   994.25  1015.12  1020.37  1025.18  1026.89
eigval :     1027.62  1028.84  1031.59  1034.95  1035.25  1076.23
eigval :     1077.27  1081.25  1087.19  1088.97  1098.42  1103.24
eigval :     1118.21  1120.88  1121.43  1135.97  1140.01  1143.94
eigval :     1145.74  1147.68  1150.08  1175.03  1177.79  1181.00
eigval :     1181.58  1181.88  1183.10  1183.93  1194.78  1197.39
eigval :     1197.81  1200.29  1202.15  1209.53  1217.04  1227.70
eigval :     1233.55  1234.96  1241.87  1248.45  1250.14  1252.77
eigval :     1259.83  1268.59  1273.30  1278.63  1281.13  1281.70
eigval :     1282.94  1285.60  1289.54  1290.70  1300.13  1309.81
eigval :     1311.69  1316.51  1317.07  1319.28  1327.91  1331.57
eigval :     1340.68  1341.88  1342.78  1346.78  1357.76  1397.36
eigval :     1401.83  1402.72  1403.01  1406.31  1409.12  1420.77
eigval :     1422.00  1424.96  1426.17  1428.70  1434.53  1436.05
eigval :     1436.21  1442.93  1456.42  1462.54  1468.56  1472.56
eigval :     1475.64  1476.91  1478.41  1478.81  1483.29  1488.38
eigval :     1490.58  1490.81  1491.78  1492.48  1500.19  1500.40
eigval :     1504.97  1514.38  1517.72  1524.11  1544.52  1545.90
eigval :     1557.77  1559.67  1566.89  1568.89  1571.39  1580.75
eigval :     1580.82  1586.63  1589.31  1591.80  1597.02  1599.60
eigval :     1600.29  1601.58  2991.89  2998.53  3026.35  3027.19
eigval :     3029.96  3030.43  3031.43  3032.54  3035.05  3037.28
eigval :     3041.54  3043.27  3043.47  3047.97  3051.77  3058.83
eigval :     3063.32  3066.51  3068.85  3070.36  3070.87  3071.36
eigval :     3072.96  3073.70  3075.76  3076.43  3078.49  3079.30
eigval :     3080.03  3081.12  3082.05  3083.07  3083.13  3084.05
eigval :     3084.33  3087.40  3089.24  3089.47  3091.08  3091.83
eigval :     3092.04  3094.85  3095.08  3095.46  3096.24  3096.90
eigval :     3102.04  3104.28  3119.83

   temp. (K)  partition function   enthalpy   heat capacity  entropy
                                   cal/mol     cal/K/mol   cal/K/mol   J/K/mol
 298.15  VIB  0.815E+27            33176.453    203.024    208.932
         ROT  0.131E+09              888.752      2.981     40.117
         INT  0.106E+36            34065.205    206.005    249.049
         TR   0.229E+29             1481.254      4.968     45.984
         TOT                       35546.4589   210.9731   295.0330  1234.4182

       T/K    H(0)-H(T)+PV         H(T)/Eh          T*S/Eh         G(T)/Eh
   ------------------------------------------------------------------------
    298.15    0.566469E-01    0.953908E+00    0.140180E+00    0.813728E+00
   ------------------------------------------------------------------------

         :::::::::::::::::::::::::::::::::::::::::::::::::::::
         ::                  THERMODYNAMIC                  ::
         :::::::::::::::::::::::::::::::::::::::::::::::::::::
         :: total free energy        -163.921949424832 Eh   ::
         ::.................................................::
         :: total energy             -164.735677585230 Eh   ::
         :: zero point energy           0.897260981027 Eh   ::
         :: G(RRHO) w/o ZPVE           -0.083532820630 Eh   ::
         :: G(RRHO) contrib.            0.813728160397 Eh   ::
         :::::::::::::::::::::::::::::::::::::::::::::::::::::

           -------------------------------------------------
          | TOTAL ENERGY             -164.735677585230 Eh   |
          | TOTAL ENTHALPY           -163.781769716206 Eh   |
          | TOTAL FREE ENERGY        -163.921949424832 Eh   |
          | GRADIENT NORM               0.000056507379 Eh/α |
           -------------------------------------------------

 * finished run on 2025/09/11 at 22:24:06.827
