   * xtb version 6.7.1 (edcfbbe) compiled by 'albert@albert-system' on 2024-07-22

   ID    Z sym.   atoms
    1    6 C      1-27, 29-53, 55-64
    2    8 O      28
    3    7 N      54
    4    1 H      65-113

          program call               : xtb data2507/gas/SIR-C/SIR-C.xyz --gfn 2 --ohess vtight --parallel 40 --molden --ceasefiles --namespace data2507/gas/SIR-C/SIR-C_gas_S0_preOpt
          :  Hamiltonian                  GFN2-xTB          :
 * total energy  :  -164.7727441 Eh     change       -0.6346482E-08 Eh
 * total energy  :  -164.7914890 Eh     change       -0.1874492E-01 Eh
 * total energy  :  -164.7980355 Eh     change       -0.6546526E-02 Eh
 * total energy  :  -164.7998788 Eh     change       -0.1843256E-02 Eh
 * total energy  :  -164.8009528 Eh     change       -0.1074028E-02 Eh
 * total energy  :  -164.8016441 Eh     change       -0.6913149E-03 Eh
 * total energy  :  -164.8022474 Eh     change       -0.6033355E-03 Eh
 * total energy  :  -164.8028962 Eh     change       -0.6487994E-03 Eh
 * total energy  :  -164.8036380 Eh     change       -0.7418052E-03 Eh
 * total energy  :  -164.8044307 Eh     change       -0.7926495E-03 Eh
 * total energy  :  -164.8105592 Eh     change       -0.3499895E-06 Eh
 * total energy  :  -164.8105595 Eh     change       -0.3249877E-06 Eh
 * total energy  :  -164.8105599 Eh     change       -0.3811600E-06 Eh
 * total energy  :  -164.8105602 Eh     change       -0.3446018E-06 Eh
 * total energy  :  -164.8105606 Eh     change       -0.3237538E-06 Eh
 * total energy  :  -164.8105610 Eh     change       -0.4268962E-06 Eh
 * total energy  :  -164.8105615 Eh     change       -0.5415213E-06 Eh
 * total energy  :  -164.8105622 Eh     change       -0.6196403E-06 Eh
 * total energy  :  -164.8105622 Eh     change       -0.9037279E-08 Eh
   *** GEOMETRY OPTIMIZATION CONVERGED AFTER 152 ITERATIONS ***

 final structure:
================
113
 xtb: 6.7.1 (edcfbbe)
C           -0.17319684969141        2.20085598971680        4.86588344005304
C            0.23105499910052        1.40782468033922        3.66060993954629
C            1.30360339074961        0.52787116484504        3.70134508050770
C            1.66730082110401       -0.20277979511710        2.59004741386281
C            0.95226782886572       -0.10010834096693        1.39486515507633
C           -0.13330648129814        0.77651112850990        1.34825367548033
C           -0.46951996778883        1.51651988902658        2.46969763749153
C           -0.97703843294593        0.94475149943700        0.09483651923565
C           -2.39544390357973        0.57405431339968        0.45615957265257
C           -2.69899820017501       -0.76440440862579        0.68218879789366
C           -3.98292013459587       -1.15987409477192        0.98848090500326
C           -5.01076109971051       -0.22075660617488        1.09120359647321
C           -6.39624196554926       -0.64488927897840        1.35561827196471
C           -7.11668984046663       -0.05315586472096        2.38715051569307
C           -8.40657354305828       -0.45914140361586        2.67503664848152
C           -8.99377393751247       -1.46721129145260        1.92891557038896
C           -8.29112929662860       -2.05604172461562        0.89381884143006
C           -6.99540723757929       -1.65310363226432        0.58852324186821
C           -6.28946445025492       -2.26708412233757       -0.55082485675011
C           -5.68946187020421       -1.47576722389835       -1.52736973098680
C           -5.01516507014439       -2.05656074246443       -2.58421819201034
C           -4.93332078307287       -3.43539303178043       -2.68508646465788
C           -5.54252439537809       -4.23104645922396       -1.72992641504179
C           -6.21905050241710       -3.65167532352184       -0.67182002424648
C           -4.69969679444931        1.11796038953604        0.92770364957075
C           -3.40472309894279        1.52349661389910        0.60554521819892
C           -3.15216494127760        2.96573395274046        0.41403842109534
O           -3.98096966581529        3.81112864625964        0.70714409766291
C           -1.85024627067315        3.31824467406642       -0.18105027957659
C           -1.64742360035986        4.63670207425780       -0.59529538302397
C           -0.46752461366852        5.01486176798672       -1.19126350123037
C            0.55438213503948        4.08098194265145       -1.37398296225631
C            1.80424520231391        4.47716858037736       -2.04237746976756
C            1.72795425228324        5.16735897101182       -3.24923294955665
C            2.86948849608994        5.52792176368425       -3.93936540351257
C            4.11349096982476        5.20159325526756       -3.42589582179436
C            4.20333952799484        4.52159531952815       -2.22617336222350
C            3.06230218216114        4.15345142144551       -1.51814104018972
C            3.22274503015508        3.48495841320091       -0.21484865082312
C            4.10065623982721        2.41260860638013       -0.08375072560918
C            4.30635810102390        1.81681708518734        1.14677772557657
C            3.64400866320199        2.29077518723711        2.26539493640993
C            2.76145113515043        3.35077852589815        2.14456279071445
C            2.55018644719545        3.94382382309840        0.91482402502539
C            0.35597513992837        2.77281523826690       -0.95077189153882
C           -0.83623178476164        2.37677959519635       -0.36274746341768
C           -0.52048931592125        0.02962917060295       -1.02197682108246
C           -1.24838396305778        0.03342015814393       -2.20256679058636
C           -0.91416541503892       -0.77913593131240       -3.27285983139104
C           -1.70886355431372       -0.76933974040645       -4.54313639838422
C            0.18251767258209       -1.62144646918043       -3.12944328109969
C            0.91784620299400       -1.64192914780322       -1.96420733653007
C            0.58633539132449       -0.80918133728405       -0.89100767634242
N            1.32089948117616       -0.84434112340389        0.28412226708829
C            2.48025658214379       -1.66259455339732        0.34413977064926
C            2.47165864364940       -2.85825370574806        1.05073187660865
C            3.60894103647971       -3.63967586016602        1.10023270611961
C            4.78230948453074       -3.26461478807449        0.44864949511862
C            6.00488083764906       -4.16436846809658        0.53408570262440
C            7.20689934163274       -3.60153959793381       -0.22918202717651
C            5.65752564354853       -5.53523154805762       -0.06358086376115
C            6.40647609121045       -4.32518633414191        2.00715970437462
C            4.77036844107086       -2.06958013368860       -0.26108713039000
C            3.63751399664319       -1.27691185894600       -0.31462693012703
H            0.68560132967213        2.40643892790014        5.50137955021179
H           -0.63097314152829        3.14272921112788        4.57197136417597
H           -0.90229841046790        1.64331046795891        5.45537417548192
H            1.86956093589242        0.41566242607506        4.61520393524004
H            2.52022272204421       -0.86118452951606        2.64554792625526
H           -1.30782344713414        2.19696604638721        2.41118606789356
H           -1.91608391981295       -1.50435034189703        0.59897620865855
H           -4.19879718595483       -2.20535415326475        1.15182344600507
H           -6.64757275433859        0.72144880685599        2.97639070265652
H           -8.95228767176900        0.00801122172501        3.48145550797939
H          -10.00055876791754       -1.79026834211482        2.14943298211940
H           -8.75561108313142       -2.82644045583209        0.29479646971823
H           -5.76156262811840       -0.40022273045651       -1.45933322508282
H           -4.55054932649037       -1.43073069416130       -3.33134589080125
H           -4.39999998059808       -3.88922634991222       -3.50757949033108
H           -5.48749891892080       -5.30748400169419       -1.80719044138863
H           -6.68044366141254       -4.27464221277711        0.08166396213771
H           -5.46300635812836        1.87816815202313        1.01366258576025
H           -2.44771805361172        5.34500849382874       -0.43815714205809
H           -0.31753073500724        6.03799796495224       -1.50432084208430
H            0.75515533974532        5.40248603766825       -3.65668027823415
H            2.78942931052448        6.06059277198152       -4.87538633948044
H            5.01160580823480        5.48157064713000       -3.95648442863284
H            5.17366657789630        4.28813763393647       -1.81157989440091
H            4.61987799180404        2.04439734520867       -0.95816214569262
H            4.98820959740513        0.98297534214692        1.23435237410117
H            3.81845301417692        1.83841302117233        3.22925939696761
H            2.23981546801931        3.72039626456359        3.01449427392896
H            1.87661029720568        4.78385846525035        0.82926574797367
H            1.13908283002387        2.04357504627195       -1.09979456305473
H           -2.10149436732429        0.69412274971710       -2.27670631830042
H           -1.05778568386832       -0.60433765117264       -5.40067535080252
H           -2.20783116133154       -1.72816131486791       -4.68475188195004
H           -2.46156777161386        0.01489334934909       -4.52265030528827
H            0.46303885704056       -2.27555043047100       -3.94248549070620
H            1.75671916765883       -2.31540599035000       -1.87695453474212
H            1.57165859554051       -3.16868665152560        1.56144094581438
H            3.57145086629901       -4.56299043933682        1.65806712036898
H            6.98444228905751       -3.49585501583095       -1.28848856831635
H            8.04911487340959       -4.28326038145960       -0.13052194204609
H            7.50882297783738       -2.63643494879847        0.17119255660780
H            5.35019112396130       -5.42608189649387       -1.10166453848432
H            6.52584510200306       -6.18950362789535       -0.02790955467461
H            4.84907365584979       -6.01342429031614        0.48232716374489
H            6.63166529048464       -3.35440026760839        2.44407080799716
H            5.61169502439003       -4.78431422072494        2.58831906094808
H            7.29151122899932       -4.95263855209604        2.08681314479273
H            5.64957840845476       -1.73366633648517       -0.78594272707148
H            3.64252491667487       -0.35321446522469       -0.87363111879790

          :  Hamiltonian                  GFN2-xTB          :
         :: gradient norm              0.000059440472 Eh/a0 ::
         :: HOMO-LUMO gap              1.634531879761 eV    ::
         :: SCC energy              -167.867767930199 Eh    ::
         :: -> dispersion             -0.174928193855 Eh    ::
         :: repulsion energy           3.057205765862 Eh    ::

    * Orbital Energies and Occupations

         #    Occupation            Energy/Eh            Energy/eV
      -------------------------------------------------------------
         1        2.0000           -0.6879463             -18.7200
       ...           ...                  ...                  ...
       142        2.0000           -0.4030246             -10.9669
       143        2.0000           -0.4018449             -10.9348
       144        2.0000           -0.4005575             -10.8997
       145        2.0000           -0.3994626             -10.8699
       146        2.0000           -0.3953025             -10.7567
       147        2.0000           -0.3931144             -10.6972
       148        2.0000           -0.3922012             -10.6723
       149        2.0000           -0.3914636             -10.6523
       150        2.0000           -0.3894068             -10.5963
       151        2.0000           -0.3813484             -10.3770
       152        2.0000           -0.3781951             -10.2912
       153        2.0000           -0.3737917             -10.1714
       154        2.0000           -0.3412974              -9.2872 (HOMO)
       155                         -0.2812295              -7.6526 (LUMO)
       156                         -0.2468080              -6.7160
       157                         -0.2435522              -6.6274
       158                         -0.2364606              -6.4344
       159                         -0.2321109              -6.3161
       160                         -0.2317841              -6.3072
       161                         -0.2303818              -6.2690
       162                         -0.2277042              -6.1961
       163                         -0.2211300              -6.0173
       164                         -0.2199389              -5.9848
       165                         -0.2184183              -5.9435
       ...                                ...                  ...
       305                          0.7147201              19.4485
      -------------------------------------------------------------
                  HL-Gap            0.0600679 Eh            1.6345 eV

     #   Z          covCN         q      C6AA      α(0)
     1   6 C        3.757    -0.105    22.564     6.773
     2   6 C        2.964     0.005    27.900     8.664
     3   6 C        2.926    -0.041    29.019     8.834
     4   6 C        2.923    -0.058    29.452     8.900
     5   6 C        2.925     0.056    26.747     8.481
     6   6 C        2.991    -0.012    28.295     8.726
     7   6 C        2.932    -0.046    29.138     8.853
     8   6 C        3.929     0.015    20.254     6.396
     9   6 C        2.989     0.013    27.706     8.634
    10   6 C        2.923    -0.033    28.830     8.805
    11   6 C        2.924    -0.027    28.665     8.780
    12   6 C        2.976     0.012    27.744     8.640
    13   6 C        2.981     0.006    27.872     8.660
    14   6 C        2.924    -0.033    28.830     8.805
    15   6 C        2.918    -0.031    28.774     8.796
    16   6 C        2.918    -0.032    28.787     8.798
    17   6 C        2.925    -0.034    28.852     8.809
    18   6 C        2.980     0.006    27.888     8.663
    19   6 C        2.977     0.012    27.733     8.638
    20   6 C        2.925    -0.031    28.779     8.798
    21   6 C        2.919    -0.029    28.737     8.791
    22   6 C        2.920    -0.031    28.776     8.797
    23   6 C        2.919    -0.030    28.760     8.794
    24   6 C        2.925    -0.035    28.866     8.811
    25   6 C        2.931    -0.027    28.672     8.782
    26   6 C        2.976    -0.022    28.546     8.764
    27   6 C        2.832     0.224    23.299     7.910
    28   8 O        0.858    -0.394    21.553     6.224
    29   6 C        2.977    -0.023    28.584     8.770
    30   6 C        2.924    -0.022    28.548     8.762
    31   6 C        2.922    -0.037    28.932     8.821
    32   6 C        2.978     0.019    27.588     8.616
    33   6 C        2.980     0.006    27.875     8.660
    34   6 C        2.926    -0.033    28.832     8.806
    35   6 C        2.918    -0.031    28.784     8.798
    36   6 C        2.918    -0.031    28.776     8.797
    37   6 C        2.926    -0.034    28.855     8.809
    38   6 C        2.979     0.007    27.859     8.658
    39   6 C        2.978     0.011    27.757     8.642
    40   6 C        2.926    -0.034    28.859     8.810
    41   6 C        2.918    -0.029    28.729     8.790
    42   6 C        2.921    -0.029    28.737     8.791
    43   6 C        2.919    -0.028    28.694     8.784
    44   6 C        2.925    -0.031    28.771     8.796
    45   6 C        2.929    -0.036    28.891     8.815
    46   6 C        2.986     0.015    27.671     8.629
    47   6 C        2.989    -0.013    28.334     8.732
    48   6 C        2.932    -0.044    29.091     8.845
    49   6 C        2.964     0.005    27.917     8.667
    50   6 C        3.757    -0.104    22.546     6.770
    51   6 C        2.926    -0.043    29.056     8.840
    52   6 C        2.922    -0.059    29.479     8.904
    53   6 C        2.926     0.056    26.754     8.482
    54   7 N        2.752    -0.072    22.640     7.067
    55   6 C        2.927     0.064    26.575     8.454
    56   6 C        2.920    -0.041    29.022     8.834
    57   6 C        2.928    -0.035    28.873     8.812
    58   6 C        2.973     0.008    27.829     8.653
    59   6 C        3.903     0.026    20.081     6.370
    60   6 C        3.761    -0.108    22.613     6.779
    61   6 C        3.762    -0.106    22.572     6.773
    62   6 C        3.762    -0.106    22.569     6.772
    63   6 C        2.925    -0.039    28.966     8.826
    64   6 C        2.922    -0.041    29.011     8.833
    65   1 H        0.925     0.040     2.450     2.448
    66   1 H        0.925     0.042     2.421     2.433
    67   1 H        0.924     0.045     2.387     2.416
    68   1 H        0.926     0.029     2.602     2.523
    69   1 H        0.926     0.029     2.605     2.524
    70   1 H        0.925     0.028     2.619     2.531
    71   1 H        0.926     0.030     2.580     2.512
    72   1 H        0.926     0.034     2.531     2.488
    73   1 H        0.926     0.036     2.503     2.474
    74   1 H        0.926     0.032     2.562     2.503
    75   1 H        0.926     0.030     2.581     2.512
    76   1 H        0.926     0.031     2.568     2.506
    77   1 H        0.926     0.029     2.608     2.525
    78   1 H        0.926     0.031     2.568     2.506
    79   1 H        0.926     0.027     2.630     2.536
    80   1 H        0.926     0.028     2.609     2.526
    81   1 H        0.926     0.029     2.600     2.521
    82   1 H        0.926     0.059     2.212     2.326
    83   1 H        0.926     0.059     2.208     2.323
    84   1 H        0.926     0.036     2.501     2.473
    85   1 H        0.926     0.033     2.538     2.491
    86   1 H        0.926     0.032     2.564     2.504
    87   1 H        0.926     0.031     2.572     2.508
    88   1 H        0.926     0.032     2.554     2.499
    89   1 H        0.925     0.027     2.633     2.538
    90   1 H        0.926     0.028     2.621     2.532
    91   1 H        0.926     0.030     2.581     2.512
    92   1 H        0.926     0.031     2.566     2.505
    93   1 H        0.926     0.029     2.605     2.524
    94   1 H        0.926     0.030     2.583     2.513
    95   1 H        0.925     0.024     2.674     2.557
    96   1 H        0.925     0.042     2.418     2.432
    97   1 H        0.925     0.044     2.402     2.423
    98   1 H        0.925     0.038     2.478     2.462
    99   1 H        0.926     0.030     2.591     2.517
   100   1 H        0.926     0.027     2.629     2.536
   101   1 H        0.926     0.037     2.490     2.467
   102   1 H        0.926     0.036     2.509     2.477
   103   1 H        0.925     0.037     2.495     2.470
   104   1 H        0.925     0.038     2.475     2.460
   105   1 H        0.925     0.036     2.498     2.472
   106   1 H        0.925     0.034     2.524     2.485
   107   1 H        0.925     0.039     2.459     2.452
   108   1 H        0.925     0.037     2.486     2.466
   109   1 H        0.925     0.034     2.526     2.486
   110   1 H        0.925     0.037     2.486     2.466
   111   1 H        0.925     0.039     2.461     2.453
   112   1 H        0.926     0.042     2.425     2.435
   113   1 H        0.926     0.038     2.470     2.458

molecular dipole:
                 x           y           z       tot (Debye)
 q only:        1.691      -1.403      -0.229
   full:        1.783      -1.540      -0.275       6.028

 projected vibrational frequencies (cm⁻¹)
eigval :       -0.00    -0.00    -0.00    -0.00    -0.00     0.00
eigval :        7.05     8.67    15.23    19.46    23.89    25.92
eigval :       29.55    35.76    36.71    38.27    39.34    44.72
eigval :       51.02    53.54    62.12    62.43    69.79    76.36
eigval :       86.20    86.28    87.95    93.83   100.89   105.44
eigval :      106.92   121.60   125.55   136.35   138.17   139.06
eigval :      157.34   174.39   175.26   183.66   194.89   200.83
eigval :      208.86   219.00   226.92   235.25   247.12   257.20
eigval :      258.56   264.21   275.85   287.77   297.28   301.62
eigval :      307.04   316.30   316.98   325.11   326.26   335.89
eigval :      340.48   349.92   361.79   363.26   364.45   369.52
eigval :      374.91   378.17   384.00   397.04   398.32   404.72
eigval :      406.49   426.08   426.97   437.09   439.43   450.08
eigval :      456.00   468.94   472.91   485.88   493.39   503.27
eigval :      511.48   518.17   525.26   535.98   537.81   539.31
eigval :      546.15   551.07   579.27   581.53   583.96   586.03
eigval :      589.16   590.92   596.49   604.05   612.27   620.10
eigval :      628.14   631.70   636.84   660.63   665.95   667.58
eigval :      671.24   674.16   674.43   685.70   702.58   703.50
eigval :      710.31   713.49   728.00   739.69   740.29   744.48
eigval :      756.89   759.32   763.26   785.35   786.27   788.00
eigval :      811.88   814.58   815.62   820.85   837.03   844.78
eigval :      869.12   873.56   877.29   878.63   880.65   881.65
eigval :      883.67   886.02   887.39   888.86   897.58   902.49
eigval :      904.54   912.87   914.42   917.76   919.56   919.62
eigval :      923.18   925.43   926.57   927.88   928.78   929.74
eigval :      929.76   930.83   931.00   931.19   931.96   934.06
eigval :      955.85   960.87   961.86   963.32   963.75   964.38
eigval :      970.77   997.98  1015.45  1020.16  1028.07  1030.58
eigval :     1031.26  1032.98  1033.80  1035.34  1035.74  1079.01
eigval :     1080.81  1088.49  1090.34  1092.63  1101.16  1104.32
eigval :     1122.02  1122.31  1138.07  1138.82  1141.88  1144.91
eigval :     1145.37  1147.84  1149.22  1180.54  1182.01  1182.37
eigval :     1183.22  1183.70  1188.00  1195.15  1198.57  1200.49
eigval :     1202.96  1207.69  1220.15  1221.06  1228.01  1234.08
eigval :     1239.52  1241.01  1245.80  1249.41  1253.89  1256.35
eigval :     1268.54  1271.52  1275.28  1281.90  1282.47  1283.23
eigval :     1286.53  1287.83  1291.83  1297.84  1303.66  1311.68
eigval :     1313.59  1315.19  1318.62  1320.71  1329.30  1336.40
eigval :     1338.89  1340.66  1340.82  1365.65  1396.82  1398.27
eigval :     1400.65  1403.16  1404.99  1406.65  1409.92  1421.97
eigval :     1422.45  1424.93  1426.73  1430.30  1436.86  1437.63
eigval :     1452.21  1455.65  1478.67  1483.88  1484.65  1485.54
eigval :     1487.33  1488.70  1490.09  1491.81  1493.65  1494.12
eigval :     1497.31  1498.24  1502.30  1505.53  1508.60  1514.87
eigval :     1519.34  1554.57  1564.63  1567.97  1569.66  1571.06
eigval :     1571.50  1583.17  1583.93  1584.31  1587.99  1590.62
eigval :     1593.05  1595.83  1601.66  1602.14  1602.87  1607.82
eigval :     1615.66  1676.79  2991.16  2998.03  3015.97  3024.49
eigval :     3026.09  3028.10  3031.28  3031.29  3033.31  3035.48
eigval :     3036.43  3040.13  3041.05  3047.76  3051.40  3062.71
eigval :     3067.61  3068.10  3071.80  3072.10  3072.81  3074.11
eigval :     3074.85  3075.15  3076.53  3076.61  3076.78  3077.28
eigval :     3078.67  3079.85  3080.50  3081.17  3083.59  3083.66
eigval :     3085.22  3085.60  3086.49  3090.08  3090.76  3091.95
eigval :     3092.10  3092.55  3092.61  3092.84  3095.88  3096.96
eigval :     3099.80  3101.57  3115.38

   temp. (K)  partition function   enthalpy   heat capacity  entropy
                                   cal/mol     cal/K/mol   cal/K/mol   J/K/mol
 298.15  VIB  0.350E+27            33003.780    202.303    208.015
         ROT  0.143E+09              888.752      2.981     40.299
         INT  0.500E+35            33892.532    205.284    248.314
         TR   0.229E+29             1481.254      4.968     45.984
         TOT                       35373.7864   210.2522   294.2977  1231.3415

       T/K    H(0)-H(T)+PV         H(T)/Eh          T*S/Eh         G(T)/Eh
   ------------------------------------------------------------------------
    298.15    0.563717E-01    0.956915E+00    0.139830E+00    0.817084E+00
   ------------------------------------------------------------------------

         :::::::::::::::::::::::::::::::::::::::::::::::::::::
         ::                  THERMODYNAMIC                  ::
         :::::::::::::::::::::::::::::::::::::::::::::::::::::
         :: total free energy        -163.993477838250 Eh   ::
         ::.................................................::
         :: total energy             -164.810562164334 Eh   ::
         :: zero point energy           0.900542938217 Eh   ::
         :: G(RRHO) w/o ZPVE           -0.083458612133 Eh   ::
         :: G(RRHO) contrib.            0.817084326084 Eh   ::
         :::::::::::::::::::::::::::::::::::::::::::::::::::::

           -------------------------------------------------
          | TOTAL ENERGY             -164.810562164334 Eh   |
          | TOTAL ENTHALPY           -163.853647509292 Eh   |
          | TOTAL FREE ENERGY        -163.993477838250 Eh   |
          | GRADIENT NORM               0.000059438677 Eh/α |
          | HOMO-LUMO GAP               1.634531400633 eV   |
           -------------------------------------------------

 * finished run on 2025/09/11 at 22:08:36.286
