   * xtb version 6.7.1 (edcfbbe) compiled by 'albert@albert-system' on 2024-07-22

   ID    Z sym.   atoms
    1    6 C      1-27, 29-53, 55-64
    2    8 O      28
    3    7 N      54
    4    1 H      65-113

          program call               : xtb data2507/gas/SIR-C/SIR-C_gas_S0_crest.xyz --gfn 2 --ohess vtight --parallel 40 --molden --ceasefiles --namespace data2507/gas/SIR-C/SIR-C_gas_S0_finalOpt
          :  Hamiltonian                  GFN2-xTB          :
 * total energy  :  -164.8107645 Eh     change       -0.5779810E-08 Eh
 * total energy  :  -164.8107659 Eh     change       -0.1409671E-05 Eh
 * total energy  :  -164.8107679 Eh     change       -0.2077038E-05 Eh
 * total energy  :  -164.8107692 Eh     change       -0.1236675E-05 Eh
 * total energy  :  -164.8107706 Eh     change       -0.1395565E-05 Eh
 * total energy  :  -164.8107728 Eh     change       -0.2242044E-05 Eh
 * total energy  :  -164.8107758 Eh     change       -0.2995657E-05 Eh
 * total energy  :  -164.8107783 Eh     change       -0.2499187E-05 Eh
 * total energy  :  -164.8107799 Eh     change       -0.1595628E-05 Eh
 * total energy  :  -164.8107810 Eh     change       -0.1107657E-05 Eh
 * total energy  :  -164.8107946 Eh     change       -0.3413122E-06 Eh
 * total energy  :  -164.8107950 Eh     change       -0.3200383E-06 Eh
 * total energy  :  -164.8107952 Eh     change       -0.2667908E-06 Eh
 * total energy  :  -164.8107954 Eh     change       -0.1975546E-06 Eh
 * total energy  :  -164.8107956 Eh     change       -0.1619076E-06 Eh
 * total energy  :  -164.8107957 Eh     change       -0.1427967E-06 Eh
 * total energy  :  -164.8107959 Eh     change       -0.1597104E-06 Eh
 * total energy  :  -164.8107961 Eh     change       -0.2127472E-06 Eh
 * total energy  :  -164.8107961 Eh     change       -0.3505278E-08 Eh
   *** GEOMETRY OPTIMIZATION CONVERGED AFTER 44 ITERATIONS ***

 final structure:
================
113
 xtb: 6.7.1 (edcfbbe)
C            2.21604569157202       -0.35690827981711       -5.18527967317730
C            1.65127641079094        0.22297147306511       -3.92437465993598
C            1.30930555602748        1.56387222634924       -3.82587573158149
C            0.79053111410290        2.08253587745398       -2.65655659687683
C            0.60452441423871        1.27424934600097       -1.53383697887534
C            0.93471231860734       -0.08133531442406       -1.62642027638818
C            1.44440512348365       -0.58194378626548       -2.81289424867095
C            0.67158029152838       -1.04476032519026       -0.49168642430084
C           -0.59405858373239       -1.82750174870886       -0.75788671297850
C           -1.69665626694504       -1.18308068781770       -1.30772788440607
C           -2.93038945319383       -1.79453308024604       -1.33723875322271
C           -3.10535944254258       -3.07024697970270       -0.79854992810896
C           -4.45907859065220       -3.62788960385371       -0.64288634181373
C           -4.76689864188502       -4.89997570097521       -1.10833124518599
C           -6.04564044954328       -5.41035401139617       -0.97673969465769
C           -7.03256966874139       -4.64957480431726       -0.37298904967942
C           -6.73469694371797       -3.38603012461642        0.10466553232448
C           -5.45254240773902       -2.86254372879840       -0.01427720723629
C           -5.14652703688695       -1.52623123094302        0.53275117818293
C           -4.06397737936131       -1.33381515574035        1.38881241190791
C           -3.75142850479613       -0.07116812139237        1.85485342180929
C           -4.52051595454780        1.01866982069436        1.48052904377451
C           -5.61574814102479        0.83447160579350        0.65384354299730
C           -5.92911641413367       -0.42919735343475        0.18557410607445
C           -1.98923277042099       -3.75583030424316       -0.35181394106223
C           -0.73421485203925       -3.14760319401562       -0.32778833863454
C            0.41447917929999       -3.93061935969230        0.17171877633813
O            0.28419148173012       -5.05962849088628        0.61449565137072
C            1.73424513021290       -3.27550704259225        0.07995610548481
C            2.87670704049293       -4.02954668090202        0.35691441396488
C            4.12878407359372       -3.46138452546174        0.30424683693152
C            4.27272178160126       -2.11301500072842       -0.02885543164766
C            5.60448701555252       -1.49283694959048       -0.09785554063367
C            6.63901309339479       -2.16625722315945       -0.74217250944249
C            7.89215606063886       -1.59734983719752       -0.86797496046673
C            8.12995450380790       -0.33570520908472       -0.34911062398809
C            7.11281928776964        0.34348520776313        0.29527178434890
C            5.84860282285278       -0.21960458437903        0.43545375161441
C            4.81524388472727        0.52856972764593        1.17569575866471
C            4.15295962895976       -0.04654157310475        2.25671631322640
C            3.20739204441662        0.67333331964791        2.96142797787887
C            2.90390239572463        1.97322898046411        2.59302897908745
C            3.55480892614506        2.55168477510190        1.51755413924615
C            4.50974894462557        1.83806115821081        0.81698187893364
C            3.13484526627142       -1.36747280787928       -0.31341335639592
C            1.86906575540482       -1.92817280927211       -0.26098603484520
C            0.35790984065120       -0.31039347038173        0.81029507441530
C            0.30838950006503       -1.01629294889480        2.00035988473338
C           -0.06464781223993       -0.42253963928682        3.19670216215002
C           -0.14242399906761       -1.22635030207074        4.45914061103723
C           -0.39454866177511        0.92602815312376        3.17873267393098
C           -0.34319243612192        1.64990789835118        2.00661474294238
C            0.02410340785330        1.04481481920571        0.80253197824730
N            0.07904959814589        1.79377494110641       -0.36062367140474
C           -0.50608354368403        3.08774204091600       -0.35742989446297
C           -1.89007326568560        3.20944535847171       -0.34668734761717
C           -2.47274948190203        4.46047224402472       -0.33286959518486
C           -1.70477036042023        5.62365957558645       -0.33321521356905
C           -2.39861761470812        6.97639983263643       -0.32009459686365
C           -3.26925153680771        7.07930730395028        0.94032645486632
C           -3.27862845225622        7.09728355215964       -1.57228383747189
C           -1.41201564005213        8.14712256384671       -0.31511607738679
C           -0.32209046253850        5.48293460022006       -0.34374038250410
C            0.27400913999792        4.23349105027612       -0.35224548339039
H            3.23030841462738       -0.71762927620263       -5.01487652610542
H            1.61515074468907       -1.20176684045563       -5.51922193121314
H            2.24205383378091        0.38719419935696       -5.97741714164379
H            1.44280150978855        2.21657760598883       -4.67662699284653
H            0.51579639460445        3.12518596333167       -2.61603027642039
H            1.67975782894569       -1.63578465567097       -2.87136387428156
H           -1.59214672711937       -0.18076665411669       -1.69538082261762
H           -3.77778417726119       -1.27342798328846       -1.75776314870951
H           -3.99608187436483       -5.48256343835793       -1.59180539830166
H           -6.27281632349220       -6.39924896982738       -1.34660731592823
H           -8.03326205385388       -5.04257285452315       -0.26912588411773
H           -7.49809242360163       -2.79948219001387        0.59599118506643
H           -3.46436581330699       -2.18003294427925        1.69013643676160
H           -2.89858670252891        0.06553271418972        2.50308322936278
H           -4.26740695304642        2.00649162943493        1.83766110873277
H           -6.22594300353202        1.67892214056821        0.36605680558389
H           -6.77290155336836       -0.56717433038709       -0.47608191147223
H           -2.07397357320198       -4.76083449878788        0.03635531981778
H            2.74533797859746       -5.06850729553134        0.62196100743404
H            5.00246665634704       -4.05014684785372        0.54309426693010
H            6.44565644278694       -3.13965052542745       -1.16950489563879
H            8.68062077280129       -2.13489122532098       -1.37371378937957
H            9.10609921622222        0.11654657862304       -0.44416661186948
H            7.29824487530559        1.32117368040191        0.71700195090072
H            4.39316147692342       -1.05847301603394        2.54944746051647
H            2.70458153614734        0.22070781849848        3.80239519333165
H            2.16374885296626        2.53286846711337        3.14416532309057
H            3.32402351654026        3.56730435292671        1.22914727837348
H            5.01378197571563        2.28769224267736       -0.02736497639973
H            3.23523581726062       -0.32990297633748       -0.59444949809556
H            0.55483045249371       -2.06819276932724        2.00021322331783
H            0.57927889494633       -2.04000162092905        4.44418370658207
H            0.04415863947001       -0.60164347640621        5.33034013680386
H           -1.13652307161110       -1.66326678307407        4.56566586535974
H           -0.69199438761422        1.41871505248004        4.09388879297449
H           -0.59300887015867        2.69996767462174        2.01741115857653
H           -2.50194576225544        2.31830436101969       -0.33863268479465
H           -3.55027694521610        4.52276583374719       -0.32470060184156
H           -4.03594319480958        6.30983483059459        0.95778161951763
H           -3.76035549755420        8.04923497373446        0.97725055182665
H           -2.65514055498283        6.96966087047606        1.83188986400685
H           -4.04198325179175        6.32471783484567       -1.59756615427595
H           -3.77362559993123        8.06580359887890       -1.58931714665845
H           -2.67048796284859        7.00478454395373       -2.46980764089509
H           -0.77854999015953        8.12253166918916        0.56861010314603
H           -0.78627050150534        8.13649452638666       -1.20456780586369
H           -1.96386482271844        9.08476660637554       -0.30544613258814
H            0.31791316436568        6.34993737780477       -0.34090133196795
H            1.35027794038023        4.14185077862486       -0.35398106151070

          :  Hamiltonian                  GFN2-xTB          :
         :: gradient norm              0.000038443468 Eh/a0 ::
         :: HOMO-LUMO gap              1.633501677078 eV    ::
         :: SCC energy              -167.866382213774 Eh    ::
         :: -> dispersion             -0.179032802289 Eh    ::
         :: repulsion energy           3.055586118411 Eh    ::

    * Orbital Energies and Occupations

         #    Occupation            Energy/Eh            Energy/eV
      -------------------------------------------------------------
         1        2.0000           -0.6878434             -18.7172
       ...           ...                  ...                  ...
       142        2.0000           -0.4037011             -10.9853
       143        2.0000           -0.4014125             -10.9230
       144        2.0000           -0.4008417             -10.9075
       145        2.0000           -0.3997066             -10.8766
       146        2.0000           -0.3955282             -10.7629
       147        2.0000           -0.3932836             -10.7018
       148        2.0000           -0.3925434             -10.6817
       149        2.0000           -0.3912245             -10.6458
       150        2.0000           -0.3904166             -10.6238
       151        2.0000           -0.3814534             -10.3799
       152        2.0000           -0.3781014             -10.2887
       153        2.0000           -0.3741422             -10.1809
       154        2.0000           -0.3418689              -9.3027 (HOMO)
       155                         -0.2818388              -7.6692 (LUMO)
       156                         -0.2477389              -6.7413
       157                         -0.2426501              -6.6028
       158                         -0.2362175              -6.4278
       159                         -0.2325034              -6.3267
       160                         -0.2320115              -6.3134
       161                         -0.2302888              -6.2665
       162                         -0.2264222              -6.1613
       163                         -0.2212180              -6.0196
       164                         -0.2210074              -6.0139
       165                         -0.2191499              -5.9634
       ...                                ...                  ...
       305                          0.7153637              19.4660
      -------------------------------------------------------------
                  HL-Gap            0.0600301 Eh            1.6335 eV

     #   Z          covCN         q      C6AA      α(0)
     1   6 C        3.757    -0.107    22.594     6.777
     2   6 C        2.964     0.005    27.916     8.666
     3   6 C        2.925    -0.042    29.050     8.839
     4   6 C        2.922    -0.061    29.507     8.908
     5   6 C        2.925     0.056    26.754     8.482
     6   6 C        2.983    -0.014    28.345     8.733
     7   6 C        2.932    -0.045    29.114     8.849
     8   6 C        3.928     0.016    20.243     6.394
     9   6 C        2.999     0.013    27.721     8.637
    10   6 C        2.922    -0.036    28.904     8.816
    11   6 C        2.926    -0.027    28.671     8.781
    12   6 C        2.976     0.011    27.771     8.644
    13   6 C        2.982     0.007    27.861     8.658
    14   6 C        2.923    -0.033    28.824     8.804
    15   6 C        2.918    -0.031    28.771     8.796
    16   6 C        2.918    -0.032    28.788     8.798
    17   6 C        2.924    -0.034    28.846     8.808
    18   6 C        2.981     0.006    27.892     8.663
    19   6 C        2.976     0.013    27.729     8.638
    20   6 C        2.925    -0.031    28.768     8.796
    21   6 C        2.918    -0.030    28.758     8.794
    22   6 C        2.920    -0.032    28.789     8.799
    23   6 C        2.918    -0.031    28.774     8.796
    24   6 C        2.925    -0.035    28.874     8.812
    25   6 C        2.930    -0.026    28.656     8.779
    26   6 C        2.976    -0.022    28.552     8.765
    27   6 C        2.831     0.224    23.294     7.909
    28   8 O        0.858    -0.394    21.562     6.226
    29   6 C        2.976    -0.023    28.583     8.770
    30   6 C        2.923    -0.022    28.563     8.764
    31   6 C        2.922    -0.037    28.932     8.821
    32   6 C        2.977     0.018    27.608     8.619
    33   6 C        2.980     0.006    27.881     8.661
    34   6 C        2.925    -0.034    28.837     8.806
    35   6 C        2.918    -0.032    28.790     8.799
    36   6 C        2.918    -0.031    28.768     8.795
    37   6 C        2.926    -0.034    28.842     8.807
    38   6 C        2.980     0.007    27.849     8.656
    39   6 C        2.978     0.013    27.729     8.638
    40   6 C        2.924    -0.031    28.762     8.795
    41   6 C        2.919    -0.028    28.699     8.785
    42   6 C        2.920    -0.030    28.752     8.793
    43   6 C        2.919    -0.029    28.723     8.789
    44   6 C        2.925    -0.035    28.868     8.811
    45   6 C        2.930    -0.037    28.913     8.818
    46   6 C        2.983     0.014    27.692     8.632
    47   6 C        2.999    -0.010    28.259     8.720
    48   6 C        2.931    -0.046    29.143     8.853
    49   6 C        2.965     0.005    27.898     8.664
    50   6 C        3.757    -0.104    22.540     6.769
    51   6 C        2.925    -0.041    29.026     8.835
    52   6 C        2.923    -0.057    29.406     8.893
    53   6 C        2.930     0.057    26.721     8.477
    54   7 N        2.753    -0.072    22.642     7.067
    55   6 C        2.928     0.064    26.575     8.454
    56   6 C        2.921    -0.041    29.010     8.833
    57   6 C        2.927    -0.034    28.846     8.808
    58   6 C        2.973     0.009    27.825     8.652
    59   6 C        3.903     0.026    20.081     6.370
    60   6 C        3.762    -0.106    22.567     6.772
    61   6 C        3.762    -0.106    22.573     6.773
    62   6 C        3.761    -0.108    22.617     6.779
    63   6 C        2.925    -0.040    28.985     8.829
    64   6 C        2.920    -0.042    29.032     8.836
    65   1 H        0.925     0.043     2.404     2.424
    66   1 H        0.925     0.043     2.407     2.426
    67   1 H        0.925     0.039     2.456     2.451
    68   1 H        0.926     0.028     2.608     2.525
    69   1 H        0.926     0.028     2.613     2.528
    70   1 H        0.925     0.027     2.633     2.538
    71   1 H        0.926     0.032     2.562     2.503
    72   1 H        0.926     0.033     2.542     2.493
    73   1 H        0.926     0.035     2.510     2.478
    74   1 H        0.926     0.032     2.560     2.502
    75   1 H        0.926     0.031     2.578     2.511
    76   1 H        0.926     0.031     2.569     2.506
    77   1 H        0.926     0.028     2.611     2.527
    78   1 H        0.926     0.031     2.576     2.510
    79   1 H        0.926     0.028     2.617     2.530
    80   1 H        0.926     0.027     2.627     2.535
    81   1 H        0.926     0.029     2.601     2.522
    82   1 H        0.926     0.060     2.197     2.318
    83   1 H        0.926     0.058     2.218     2.329
    84   1 H        0.926     0.036     2.499     2.472
    85   1 H        0.926     0.034     2.533     2.489
    86   1 H        0.926     0.031     2.566     2.505
    87   1 H        0.926     0.031     2.568     2.506
    88   1 H        0.926     0.032     2.557     2.501
    89   1 H        0.926     0.028     2.619     2.531
    90   1 H        0.926     0.032     2.561     2.503
    91   1 H        0.926     0.030     2.592     2.517
    92   1 H        0.926     0.026     2.643     2.542
    93   1 H        0.925     0.028     2.615     2.529
    94   1 H        0.926     0.034     2.534     2.489
    95   1 H        0.926     0.029     2.599     2.521
    96   1 H        0.925     0.042     2.426     2.436
    97   1 H        0.925     0.039     2.456     2.451
    98   1 H        0.924     0.045     2.384     2.415
    99   1 H        0.926     0.029     2.607     2.525
   100   1 H        0.926     0.027     2.625     2.534
   101   1 H        0.926     0.037     2.491     2.468
   102   1 H        0.926     0.036     2.508     2.476
   103   1 H        0.925     0.037     2.487     2.466
   104   1 H        0.925     0.039     2.460     2.453
   105   1 H        0.925     0.034     2.526     2.486
   106   1 H        0.925     0.037     2.485     2.465
   107   1 H        0.925     0.039     2.459     2.452
   108   1 H        0.925     0.034     2.523     2.484
   109   1 H        0.925     0.037     2.495     2.470
   110   1 H        0.925     0.037     2.495     2.470
   111   1 H        0.925     0.038     2.474     2.460
   112   1 H        0.926     0.042     2.422     2.433
   113   1 H        0.926     0.039     2.468     2.457

molecular dipole:
                 x           y           z       tot (Debye)
 q only:       -0.117       2.054      -0.375
   full:       -0.119       2.177      -0.429       5.647

 projected vibrational frequencies (cm⁻¹)
eigval :       -0.00    -0.00    -0.00    -0.00     0.00     0.00
eigval :        5.02    13.76    18.22    19.16    22.26    23.46
eigval :       28.08    33.03    34.50    37.31    39.47    42.44
eigval :       46.60    52.03    58.53    60.21    63.48    70.34
eigval :       83.54    86.28    90.58    92.47    98.52   104.12
eigval :      108.33   122.50   126.69   134.67   138.51   143.61
eigval :      158.87   171.73   175.00   188.10   191.03   206.62
eigval :      209.39   220.40   223.72   238.11   252.84   255.22
eigval :      259.75   263.99   276.85   292.92   295.91   302.00
eigval :      307.29   316.23   319.11   324.34   327.32   335.47
eigval :      340.51   349.08   362.55   363.67   364.65   371.92
eigval :      375.25   376.64   383.54   395.30   397.54   400.49
eigval :      414.15   425.51   431.13   439.15   440.84   449.42
eigval :      455.42   465.45   475.62   486.03   493.32   505.66
eigval :      512.14   515.86   527.88   537.01   538.28   539.29
eigval :      546.52   553.68   576.94   578.94   583.74   586.82
eigval :      589.48   590.51   598.89   602.27   612.44   619.93
eigval :      629.52   631.88   636.90   658.86   665.62   669.16
eigval :      672.57   673.05   676.69   686.64   698.92   703.70
eigval :      711.54   715.51   727.20   739.06   740.97   743.20
eigval :      758.54   759.89   763.19   785.15   785.69   788.31
eigval :      810.98   813.05   815.84   821.98   835.80   845.42
eigval :      866.86   875.00   878.07   878.79   880.41   882.21
eigval :      885.80   886.47   887.28   894.91   897.62   901.79
eigval :      905.86   910.59   913.08   918.97   919.12   920.03
eigval :      923.10   924.59   925.73   927.73   929.10   929.45
eigval :      930.66   931.00   931.53   932.70   934.25   937.15
eigval :      955.95   960.75   960.85   963.19   963.77   964.37
eigval :      971.51   995.91  1015.31  1021.35  1027.72  1030.32
eigval :     1031.61  1034.01  1034.53  1035.25  1035.73  1078.76
eigval :     1080.65  1087.78  1088.80  1091.30  1099.61  1103.50
eigval :     1120.83  1121.10  1129.87  1139.33  1140.41  1144.48
eigval :     1146.06  1147.56  1151.51  1180.94  1181.61  1181.68
eigval :     1182.59  1185.17  1186.11  1191.78  1197.97  1198.45
eigval :     1200.60  1211.30  1218.47  1220.87  1228.02  1233.93
eigval :     1237.96  1241.89  1244.58  1249.57  1253.75  1256.96
eigval :     1267.22  1271.66  1275.49  1281.42  1281.84  1283.29
eigval :     1285.87  1287.80  1292.51  1301.27  1304.20  1310.07
eigval :     1312.50  1314.18  1316.46  1318.54  1329.27  1335.37
eigval :     1339.07  1340.08  1341.06  1365.15  1396.32  1398.11
eigval :     1401.82  1405.44  1406.60  1406.71  1409.89  1422.38
eigval :     1423.36  1426.16  1428.09  1430.13  1436.69  1437.84
eigval :     1450.97  1453.94  1478.36  1482.35  1482.65  1484.66
eigval :     1486.46  1487.53  1488.11  1491.71  1493.39  1494.02
eigval :     1495.76  1497.01  1502.11  1505.60  1508.77  1514.84
eigval :     1519.41  1554.03  1564.03  1567.13  1568.89  1570.55
eigval :     1570.85  1581.57  1582.00  1583.68  1587.72  1590.47
eigval :     1593.97  1595.29  1600.58  1601.97  1602.37  1605.61
eigval :     1613.93  1675.47  2988.54  3001.18  3017.10  3024.64
eigval :     3026.17  3028.25  3029.48  3031.46  3033.37  3035.33
eigval :     3036.69  3040.34  3043.26  3047.93  3051.54  3065.68
eigval :     3065.70  3070.25  3071.63  3072.25  3072.66  3074.08
eigval :     3074.99  3075.07  3075.26  3076.40  3076.91  3078.52
eigval :     3079.43  3081.37  3081.69  3083.39  3083.73  3084.81
eigval :     3085.19  3085.35  3086.57  3089.89  3090.97  3092.15
eigval :     3092.57  3092.79  3094.04  3094.66  3094.84  3096.31
eigval :     3099.81  3101.02  3115.47

   temp. (K)  partition function   enthalpy   heat capacity  entropy
                                   cal/mol     cal/K/mol   cal/K/mol   J/K/mol
 298.15  VIB  0.536E+27            33020.599    201.747    208.037
         ROT  0.131E+09              888.752      2.981     40.127
         INT  0.703E+35            33909.351    204.728    248.164
         TR   0.229E+29             1481.254      4.968     45.984
         TOT                       35390.6049   209.6965   294.1480  1230.7154

       T/K    H(0)-H(T)+PV         H(T)/Eh          T*S/Eh         G(T)/Eh
   ------------------------------------------------------------------------
    298.15    0.563985E-01    0.956886E+00    0.139759E+00    0.817127E+00
   ------------------------------------------------------------------------

         :::::::::::::::::::::::::::::::::::::::::::::::::::::
         ::                  THERMODYNAMIC                  ::
         :::::::::::::::::::::::::::::::::::::::::::::::::::::
         :: total free energy        -163.993669330668 Eh   ::
         ::.................................................::
         :: total energy             -164.810796095366 Eh   ::
         :: zero point energy           0.900487468601 Eh   ::
         :: G(RRHO) w/o ZPVE           -0.083360703903 Eh   ::
         :: G(RRHO) contrib.            0.817126764698 Eh   ::
         :::::::::::::::::::::::::::::::::::::::::::::::::::::

           -------------------------------------------------
          | TOTAL ENERGY             -164.810796095366 Eh   |
          | TOTAL ENTHALPY           -163.853910107880 Eh   |
          | TOTAL FREE ENERGY        -163.993669330668 Eh   |
          | GRADIENT NORM               0.000038443465 Eh/α |
          | HOMO-LUMO GAP               1.633501714015 eV   |
           -------------------------------------------------

 * finished run on 2025/09/11 at 22:23:37.975
