   * xtb version 6.7.1 (edcfbbe) compiled by 'albert@albert-system' on 2024-07-22

   ID    Z sym.   atoms
    1    6 C      1-27, 29-53, 55-64
    2    8 O      28
    3    7 N      54
    4    1 H      65-113

          program call               : xtb data2507/gas/SIR-C/SIR-C_gas_T1_crest.xyz --gfn 2 --spinpol --tblite --uhf 2 --ohess vtight --parallel 40 --molden --ceasefiles --namespace data2507/gas/SIR-C/SIR-C_gas_T1_finalOpt
 * total energy  :  -164.7355991 Eh     change       -0.2336918E-08 Eh
 * total energy  :  -164.7356436 Eh     change       -0.4447291E-04 Eh
 * total energy  :  -164.7356604 Eh     change       -0.1682134E-04 Eh
 * total energy  :  -164.7356628 Eh     change       -0.2411840E-05 Eh
 * total energy  :  -164.7356650 Eh     change       -0.2181677E-05 Eh
 * total energy  :  -164.7356674 Eh     change       -0.2381636E-05 Eh
 * total energy  :  -164.7356690 Eh     change       -0.1635177E-05 Eh
 * total energy  :  -164.7356702 Eh     change       -0.1165493E-05 Eh
 * total energy  :  -164.7356715 Eh     change       -0.1351431E-05 Eh
 * total energy  :  -164.7356732 Eh     change       -0.1709537E-05 Eh
 * total energy  :  -164.7356834 Eh     change       -0.3701250E-06 Eh
 * total energy  :  -164.7356834 Eh     change       -0.6650117E-07 Eh
 * total energy  :  -164.7356836 Eh     change       -0.1287517E-06 Eh
 * total energy  :  -164.7356837 Eh     change       -0.1224203E-06 Eh
 * total energy  :  -164.7356844 Eh     change       -0.6887447E-06 Eh
 * total energy  :  -164.7356843 Eh     change        0.1039592E-06 Eh
 * total energy  :  -164.7356845 Eh     change       -0.2434951E-06 Eh
 * total energy  :  -164.7356847 Eh     change       -0.1818721E-06 Eh
 * total energy  :  -164.7356848 Eh     change       -0.9623585E-07 Eh
   *** GEOMETRY OPTIMIZATION CONVERGED AFTER 33 ITERATIONS ***

 final structure:
================
113
 xtb: 6.7.1 (edcfbbe)
C            2.36627662703141       -0.10506700263779       -5.07316321289137
C            1.72475271332209        0.39378799284612       -3.81763628378855
C            1.28462481037481        1.71101681324556       -3.70792778923754
C            0.70519189607322        2.17088269856530       -2.54712191897915
C            0.56155381425186        1.32817665313741       -1.43873521123198
C            0.99980737558375       -0.00125837925041       -1.53674970908881
C            1.56043326422847       -0.44337952180040       -2.72476884361345
C            0.78069303882657       -0.98243647742663       -0.42005661034385
C           -0.45177170245695       -1.83170743523471       -0.71432028929748
C           -1.56178128782672       -1.24178322323993       -1.29213453005798
C           -2.77036508711519       -1.90838921619884       -1.35893596563735
C           -2.89409131503831       -3.18704902784993       -0.80806613863206
C           -4.22251042203571       -3.80956147953106       -0.68040620312215
C           -4.45592094130314       -5.09840010574611       -1.14346777540764
C           -5.71211398003532       -5.66856492938783       -1.04559147861282
C           -6.75268347407671       -4.95148986021589       -0.47937540195596
C           -6.52981553740851       -3.67156884280162       -0.00458271199705
C           -5.27037760041269       -3.08911794648266       -0.08802889112145
C           -5.04625840777216       -1.73768133216254        0.45997112077977
C           -3.99736963311814       -1.48986672098793        1.34344306050510
C           -3.76608584179604       -0.21395366202326        1.82004762173908
C           -4.58250713732588        0.83484413417117        1.42827136217481
C           -5.64278848521808        0.59512438509267        0.57089418991910
C           -5.87585406867131       -0.68230263158384        0.09307555212432
C           -1.77027446741823       -3.82123819993596       -0.32116402823775
C           -0.53039803064336       -3.15898730702753       -0.27249064763180
C            0.61673726561966       -3.88642507706140        0.22872457038705
O            0.52019978014630       -5.06720073082347        0.66163861215103
C            1.88745072601628       -3.20300305067006        0.15973262958483
C            3.06270226341197       -3.91421682875342        0.47479897639535
C            4.28917306662216       -3.30578572778317        0.42101387754709
C            4.41267843482562       -1.96109724571667        0.04717883527089
C            5.72111672094565       -1.30905946166089       -0.02047594031967
C            6.81514258007358       -2.01840025938338       -0.52066080964055
C            8.05981132261264       -1.43427794426700       -0.64060624297776
C            8.24146033604621       -0.11257439870038       -0.26652745388049
C            7.17043243696921        0.60622805193899        0.23101497026510
C            5.91369580940311        0.02766752292171        0.36947370485589
C            4.83546470823071        0.84259935425907        0.96033647820155
C            4.13072814065404        0.40442545967503        2.07896420911645
C            3.13735276692776        1.18878414478882        2.63218098669727
C            2.82827129488961        2.42010590913807        2.07726081274783
C            3.52818185066023        2.86693647163836        0.97022102855519
C            4.52885781550910        2.08790074463170        0.41908079777657
C            3.24446854436236       -1.26270834509862       -0.26857165646045
C            2.00124671637440       -1.85231780643060       -0.20337953412862
C            0.42554603675232       -0.28796063361340        0.87873534203831
C            0.44103942804410       -0.99219131860161        2.07285391801572
C            0.01280226060242       -0.43060689672896        3.26565789514645
C            0.01532662596853       -1.22877539729386        4.53070925432382
C           -0.44519130931882        0.88577135192220        3.25052118656461
C           -0.46279857625121        1.61037419698611        2.08153861182742
C           -0.03050576925191        1.03725821226896        0.87969345220194
N           -0.03044784161366        1.78568242630781       -0.27834852243440
C           -0.74907873554577        3.01297150868874       -0.28615126361474
C           -2.13395234481136        2.98230116515468       -0.35221238463676
C           -2.85446206403095        4.16347921952689       -0.35110490284796
C           -2.21877270415358        5.39813910575845       -0.28465664637128
C           -2.97390634584862        6.71718820632539       -0.28157941904863
C           -4.49059078671738        6.52820235096179       -0.36889421197884
C           -2.52458386143083        7.55158890180107       -1.48947749482074
C           -2.65829844681202        7.47010168751082        1.01876734931902
C           -0.82663093285966        5.40595448023021       -0.21460909087550
C           -0.09489702636805        4.23480853932598       -0.21340290893461
H            2.04063120894632        0.47360222238978       -5.93434422439285
H            3.45061920565508       -0.01642017326136       -4.99532280805522
H            2.12883363547529       -1.15347008019835       -5.23710703943802
H            1.39009706048300        2.38152476177691       -4.54821135560645
H            0.35323759685163        3.18935228667661       -2.49334817301416
H            1.87380423043634       -1.47512806128773       -2.79194013305844
H           -1.49446940422418       -0.23632877332210       -1.68264862804352
H           -3.62554057510168       -1.42895553126082       -1.81015748668272
H           -3.64335802594547       -5.64681257790588       -1.59731825482058
H           -5.88038855549889       -6.67020002959055       -1.41297177399443
H           -7.73630696993595       -5.39118593485971       -0.40199618029613
H           -7.33506158862982       -3.11869119723982        0.45854410665693
H           -3.36081015654619       -2.30365120813523        1.65713791821662
H           -2.94043636890583       -0.03450453466405        2.49328647765459
H           -4.39407733415173        1.83360952411134        1.79572696796154
H           -6.28905844466501        1.40700122768262        0.26799806521496
H           -6.69331116927380       -0.86271806972461       -0.59094655295217
H           -1.82369675536067       -4.82116688965489        0.08362411732619
H            2.96160354410921       -4.94879598565452        0.76611258513917
H            5.17065918483577       -3.86684027419030        0.69640312506289
H            6.67263196106350       -3.03943105055758       -0.84345128855751
H            8.88819170644418       -2.00606732395301       -1.03316025310933
H            9.21117590937899        0.35368870392066       -0.35976430239243
H            7.30868851301158        1.63219666642886        0.54324354544032
H            4.37055070725545       -0.55454476826691        2.51415506478000
H            2.59904715521350        0.84095997521347        3.50118337466203
H            2.04872283677306        3.02872336986801        2.51200453500825
H            3.30416351155226        3.83190877371720        0.53651556704910
H            5.06841688566763        2.43494239070630       -0.45123714088917
H            3.31101881576231       -0.23177965117264       -0.58294586819778
H            0.78634232615469       -2.01428807867070        2.07423445439107
H            0.77430776061233       -2.00629431729999        4.49559971381465
H            0.19455280055120       -0.59165366779559        5.39440609962397
H           -0.95334227661337       -1.71205776431015        4.66589286740412
H           -0.78372039829169        1.34595806254515        4.16783693925769
H           -0.80759179525061        2.63312865994018        2.08967392234812
H           -2.64492801984666        2.03096165327487       -0.39509511828065
H           -3.92836245646138        4.09902182641733       -0.40421878249238
H           -4.76993310800267        6.01739529105405       -1.28745750285244
H           -4.97632465366486        7.50160891480525       -0.36613264320721
H           -4.86582314929998        5.96517438442402        0.48252840365770
H           -1.46287137593324        7.77756847408246       -1.44518510991653
H           -2.72100486505129        7.01196176535429       -2.41366312156134
H           -3.07062717845346        8.49178145748917       -1.51679640751095
H           -2.95277626300010        6.87405715352115        1.88011917905429
H           -1.59816505116074        7.69187289023523        1.10372425809204
H           -3.20501700985282        8.40985884323780        1.04733561607080
H           -0.29334920479122        6.34228077039163       -0.15547253893238
H            0.98257982820438        4.25785237000632       -0.14964472911716

 projected vibrational frequencies (cm⁻¹)
eigval :       -0.00    -0.00    -0.00     0.00     0.00     0.00
eigval :        7.76    12.61    15.39    16.50    18.26    22.57
eigval :       23.32    27.16    33.78    35.78    39.95    43.75
eigval :       47.77    55.31    59.33    61.70    63.86    71.56
eigval :       84.11    85.08    93.08    93.27    96.15   102.98
eigval :      107.83   124.29   128.59   133.91   138.27   146.82
eigval :      160.60   172.86   174.40   186.75   192.28   205.73
eigval :      212.46   219.10   227.78   239.67   253.73   254.18
eigval :      260.92   268.82   276.16   292.44   296.45   300.37
eigval :      306.94   314.88   316.28   319.08   322.51   332.90
eigval :      335.99   347.71   360.97   361.62   365.28   368.77
eigval :      375.45   376.14   381.86   390.32   395.13   400.84
eigval :      413.23   421.49   427.43   436.09   438.32   445.08
eigval :      454.06   460.03   478.58   482.92   497.12   503.45
eigval :      509.72   511.66   526.55   530.45   534.98   536.24
eigval :      537.86   546.17   568.30   576.75   580.82   584.45
eigval :      587.29   589.05   591.18   596.03   607.38   608.64
eigval :      613.17   621.87   625.09   634.65   657.70   663.11
eigval :      669.42   672.97   673.19   681.03   684.08   689.76
eigval :      703.65   705.82   712.45   724.26   739.41   743.39
eigval :      756.98   758.90   760.96   777.22   781.83   785.01
eigval :      805.10   809.98   811.10   813.69   821.04   824.10
eigval :      862.86   865.50   873.49   876.17   876.67   879.36
eigval :      880.51   882.01   886.26   887.31   890.98   892.03
eigval :      899.54   904.24   909.80   911.81   913.28   915.38
eigval :      916.90   918.06   918.64   922.08   925.68   928.39
eigval :      928.44   929.89   930.28   931.37   931.69   935.53
eigval :      945.65   958.22   960.78   962.93   963.52   963.77
eigval :      967.25   994.50  1015.07  1019.97  1025.19  1026.35
eigval :     1027.25  1028.79  1031.29  1034.86  1035.12  1076.15
eigval :     1077.29  1081.23  1087.22  1088.74  1098.40  1103.33
eigval :     1117.79  1120.93  1121.37  1135.66  1139.43  1143.77
eigval :     1145.59  1147.54  1149.62  1174.97  1177.66  1180.58
eigval :     1181.27  1181.78  1182.73  1183.70  1194.75  1197.11
eigval :     1197.70  1199.94  1202.10  1209.45  1216.96  1227.69
eigval :     1233.80  1234.66  1241.72  1248.82  1250.12  1252.97
eigval :     1259.65  1268.12  1272.85  1278.59  1280.75  1281.43
eigval :     1282.72  1285.38  1289.21  1290.57  1299.79  1309.86
eigval :     1312.40  1316.31  1317.04  1319.15  1327.51  1330.04
eigval :     1341.26  1342.04  1343.16  1346.73  1357.84  1397.38
eigval :     1401.45  1402.29  1402.86  1405.84  1408.95  1420.51
eigval :     1421.91  1424.97  1425.98  1428.15  1434.65  1436.23
eigval :     1436.28  1443.25  1456.29  1463.26  1468.52  1472.49
eigval :     1475.80  1476.56  1477.39  1477.97  1483.51  1488.43
eigval :     1490.12  1490.62  1491.75  1492.22  1499.77  1500.23
eigval :     1504.32  1513.23  1516.98  1524.31  1544.37  1545.61
eigval :     1557.61  1559.52  1567.07  1568.73  1571.35  1580.73
eigval :     1581.06  1586.66  1589.49  1591.90  1596.89  1599.77
eigval :     1600.32  1601.66  2991.61  2994.17  3026.18  3027.35
eigval :     3029.67  3029.95  3031.30  3034.66  3037.18  3038.42
eigval :     3039.66  3040.80  3043.65  3046.46  3050.30  3057.86
eigval :     3063.42  3066.07  3068.69  3070.60  3070.81  3071.22
eigval :     3072.75  3073.56  3075.55  3076.31  3077.80  3078.97
eigval :     3081.03  3081.33  3082.10  3082.78  3082.90  3083.86
eigval :     3085.65  3087.74  3088.41  3089.21  3089.42  3090.70
eigval :     3091.65  3094.17  3094.73  3095.44  3095.76  3098.96
eigval :     3101.41  3105.17  3121.55

   temp. (K)  partition function   enthalpy   heat capacity  entropy
                                   cal/mol     cal/K/mol   cal/K/mol   J/K/mol
 298.15  VIB  0.902E+27            33190.252    202.987    208.959
         ROT  0.130E+09              888.752      2.981     40.112
         INT  0.117E+36            34079.005    205.968    249.071
         TR   0.229E+29             1481.254      4.968     45.984
         TOT                       35560.2585   210.9364   295.0550  1234.5100

       T/K    H(0)-H(T)+PV         H(T)/Eh          T*S/Eh         G(T)/Eh
   ------------------------------------------------------------------------
    298.15    0.566689E-01    0.953830E+00    0.140190E+00    0.813640E+00
   ------------------------------------------------------------------------

         :::::::::::::::::::::::::::::::::::::::::::::::::::::
         ::                  THERMODYNAMIC                  ::
         :::::::::::::::::::::::::::::::::::::::::::::::::::::
         :: total free energy        -163.922045170683 Eh   ::
         ::.................................................::
         :: total energy             -164.735684828994 Eh   ::
         :: zero point energy           0.897160914567 Eh   ::
         :: G(RRHO) w/o ZPVE           -0.083521256255 Eh   ::
         :: G(RRHO) contrib.            0.813639658312 Eh   ::
         :::::::::::::::::::::::::::::::::::::::::::::::::::::

           -------------------------------------------------
          | TOTAL ENERGY             -164.735684828994 Eh   |
          | TOTAL ENTHALPY           -163.781855035458 Eh   |
          | TOTAL FREE ENERGY        -163.922045170683 Eh   |
          | GRADIENT NORM               0.000150382720 Eh/α |
           -------------------------------------------------

 * finished run on 2025/09/11 at 22:40:17.058
