   * xtb version 6.7.1 (edcfbbe) compiled by 'albert@albert-system' on 2024-07-22

   ID    Z sym.   atoms
    1    8 O      1
    2    6 C      2-21, 23-34
    3    7 N      22
    4    1 H      35-55

          program call               : xtb data2507/toluene/ACRSA/ACRSA.xyz --gfn 2 --gbsa toluene --ohess vtight --parallel 40 --molden --ceasefiles --namespace data2507/toluene/ACRSA/ACRSA_toluene_S0_preOpt
      * Solvation model:               GBSA
        Solvent                        toluene
        Solvent mass                       9.2140E+01 g/mol
          :  Hamiltonian                  GFN2-xTB          :
 * total energy  :   -86.2599115 Eh     change       -0.1043404E-08 Eh
 * total energy  :   -86.2733599 Eh     change       -0.1344846E-01 Eh
 * total energy  :   -86.2774643 Eh     change       -0.4104410E-02 Eh
 * total energy  :   -86.2778663 Eh     change       -0.4019249E-03 Eh
 * total energy  :   -86.2780123 Eh     change       -0.1460167E-03 Eh
 * total energy  :   -86.2780358 Eh     change       -0.2354394E-04 Eh
 * total energy  :   -86.2780419 Eh     change       -0.6030652E-05 Eh
 * total energy  :   -86.2780426 Eh     change       -0.7533565E-06 Eh
 * total energy  :   -86.2780427 Eh     change       -0.7403543E-07 Eh
   *** GEOMETRY OPTIMIZATION CONVERGED AFTER 9 ITERATIONS ***

 final structure:
================
55
 xtb: 6.7.1 (edcfbbe)
O           -5.35261184431997       -0.00061150260378       -0.00164124574393
C           -4.12545566248142       -0.00043178248054       -0.00081456235151
C           -3.35247736489766       -1.25421255506555       -0.00025919412776
C           -4.05305269230473       -2.46481376891433       -0.00030235446185
C           -3.38405122320997       -3.66848393231349        0.00028067097395
C           -1.99509528204911       -3.67713579976542        0.00088787410075
C           -1.29444001805811       -2.48711471517340        0.00088702324762
C           -1.95684090859270       -1.26356462744356        0.00034236313940
C           -1.12979568463091        0.00000874958522        0.00027910944852
C           -1.95721101713405        1.26333774134699        0.00024221680597
C           -1.29516772177045        2.48708168710994        0.00069218475389
C           -1.99617187139428        3.67689768285528        0.00058760900034
C           -3.38512554291021        3.66783795290560       -0.00002725847704
C           -4.05377513439613        2.46397200823601       -0.00050999353596
C           -3.35284507352657        1.25357630293608       -0.00036338244059
C           -0.27822501093714        0.00007268047234       -1.25847311424639
C           -0.92195675279507        0.00004711403585       -2.48675050613606
C           -0.20989397929913        0.00007819577496       -3.67183121440399
C            1.17444719868841        0.00013479612987       -3.62646028011017
C            1.83150387066258        0.00015877650921       -2.41341863252736
C            1.11842077927947        0.00012535334938       -1.21025383507288
N            1.79161399274550        0.00015249480288       -0.00003976170304
C            3.21906417609944        0.00013311556928       -0.00021694298662
C            3.91275938216724        1.20377525930830       -0.00027973263609
C            5.29694769826831        1.20001079225402       -0.00051707144954
C            5.98923297634692        0.00007806007912       -0.00068893272566
C            5.29690069117546       -1.19982706944312       -0.00061257122801
C            3.91271220018197       -1.20353560004942       -0.00037357264424
C            1.11868351214271        0.00021568351885        1.21032076278864
C            1.83201922887597        0.00032269466365        2.41333445487320
C            1.17520830936567        0.00039375489245        3.62651080481294
C           -0.20912474638756        0.00035380802112        3.67217000411466
C           -0.92143482132659        0.00023575798140        2.48723814865440
C           -0.27795300737831        0.00016996883517        1.25882755187846
H           -5.13297916850861       -2.42189560071515       -0.00077787790844
H           -3.93513931828681       -4.59688424567409        0.00026791121253
H           -1.46070161915906       -4.61562238749778        0.00134156722295
H           -0.21441602786460       -2.49875180530363        0.00133565285003
H           -0.21514606676560        2.49902909607595        0.00114481807265
H           -1.46205394104845        4.61554163630396        0.00096419748014
H           -3.93648612884767        4.59607662300990       -0.00012289533952
H           -5.13368903282840        2.42073773318976       -0.00098600831757
H           -2.00296729064795        0.00000019818281       -2.50672594336494
H           -0.72982171189508        0.00005813905334       -4.61751323458536
H            1.74847796772985        0.00016086625850       -4.54125682295966
H            2.91027036631742        0.00020350121877       -2.39071356214139
H            3.36501853061070        2.13462499951732       -0.00015855956232
H            5.83501497881800        2.13626936502317       -0.00057495271064
H            7.06902860463053        0.00005665258869       -0.00088527101416
H            5.83493001657098       -2.13610745431986       -0.00074416962091
H            3.36493721343870       -2.13436476695596       -0.00032672156114
H            2.91078158422371        0.00034751597469        2.39040244071605
H            1.74942701611821        0.00047933851769        4.54118972259930
H           -0.72885105417908        0.00040824930588        4.61796276843447
H           -2.00244357462622        0.00019226832564        2.50740932091389

          :  Hamiltonian                  GFN2-xTB          :
         :: gradient norm              0.000052563607 Eh/a0 ::
         :: HOMO-LUMO gap              1.587261541426 eV    ::
         :: SCC energy               -87.860574536074 Eh    ::
         :: -> dispersion             -0.083097898952 Eh    ::
         :: -> Gsolv                  -0.037393087793 Eh    ::
         :: repulsion energy           1.582531854414 Eh    ::

    * Orbital Energies and Occupations

         #    Occupation            Energy/Eh            Energy/eV
      -------------------------------------------------------------
         1        2.0000           -0.7036089             -19.1462
       ...           ...                  ...                  ...
        68        2.0000           -0.4305758             -11.7166
        69        2.0000           -0.4231015             -11.5132
        70        2.0000           -0.4179911             -11.3741
        71        2.0000           -0.4171910             -11.3523
        72        2.0000           -0.4150945             -11.2953
        73        2.0000           -0.4130268             -11.2390
        74        2.0000           -0.4125099             -11.2250
        75        2.0000           -0.4098379             -11.1523
        76        2.0000           -0.4012682             -10.9191
        77        2.0000           -0.4011431             -10.9157
        78        2.0000           -0.3998692             -10.8810
        79        2.0000           -0.3890256             -10.5859
        80        2.0000           -0.3528116              -9.6005 (HOMO)
        81                         -0.2944808              -8.0132 (LUMO)
        82                         -0.2433136              -6.6209
        83                         -0.2371318              -6.4527
        84                         -0.2355029              -6.4084
        85                         -0.2347300              -6.3873
        86                         -0.2335679              -6.3557
        87                         -0.2268233              -6.1722
        88                         -0.2267853              -6.1711
        89                         -0.2207651              -6.0073
        90                         -0.1957407              -5.3264
        91                         -0.1799136              -4.8957
       ...                                ...                  ...
       157                          0.6904966              18.7894
      -------------------------------------------------------------
                  HL-Gap            0.0583308 Eh            1.5873 eV

     #   Z          covCN         q      C6AA      α(0)
     1   8 O        0.858    -0.444    22.581     6.371
     2   6 C        2.832     0.223    23.304     7.911
     3   6 C        2.976    -0.023    28.577     8.769
     4   6 C        2.926    -0.019    28.484     8.752
     5   6 C        2.917    -0.030    28.742     8.791
     6   6 C        2.919    -0.021    28.542     8.761
     7   6 C        2.924    -0.032    28.801     8.801
     8   6 C        2.987     0.017    27.617     8.620
     9   6 C        3.927     0.014    20.273     6.399
    10   6 C        2.987     0.017    27.617     8.620
    11   6 C        2.924    -0.032    28.801     8.801
    12   6 C        2.919    -0.021    28.542     8.761
    13   6 C        2.917    -0.030    28.742     8.791
    14   6 C        2.926    -0.019    28.484     8.752
    15   6 C        2.976    -0.023    28.577     8.769
    16   6 C        2.989    -0.011    28.286     8.724
    17   6 C        2.925    -0.035    28.873     8.812
    18   6 C        2.917    -0.043    29.074     8.842
    19   6 C        2.919    -0.032    28.792     8.799
    20   6 C        2.924    -0.057    29.424     8.896
    21   6 C        2.925     0.061    26.634     8.463
    22   7 N        2.753    -0.069    22.582     7.058
    23   6 C        2.926     0.066    26.522     8.446
    24   6 C        2.921    -0.037    28.922     8.819
    25   6 C        2.920    -0.027    28.673     8.781
    26   6 C        2.919    -0.029    28.724     8.789
    27   6 C        2.920    -0.027    28.673     8.781
    28   6 C        2.921    -0.037    28.922     8.819
    29   6 C        2.925     0.061    26.634     8.463
    30   6 C        2.924    -0.057    29.424     8.896
    31   6 C        2.919    -0.032    28.792     8.799
    32   6 C        2.917    -0.043    29.074     8.842
    33   6 C        2.925    -0.035    28.872     8.812
    34   6 C        2.989    -0.011    28.286     8.724
    35   1 H        0.926     0.049     2.330     2.387
    36   1 H        0.926     0.045     2.386     2.415
    37   1 H        0.926     0.048     2.349     2.397
    38   1 H        0.926     0.040     2.450     2.448
    39   1 H        0.926     0.040     2.450     2.448
    40   1 H        0.926     0.048     2.349     2.397
    41   1 H        0.926     0.045     2.386     2.415
    42   1 H        0.926     0.049     2.330     2.387
    43   1 H        0.926     0.020     2.730     2.584
    44   1 H        0.926     0.030     2.586     2.515
    45   1 H        0.926     0.035     2.517     2.481
    46   1 H        0.926     0.034     2.525     2.485
    47   1 H        0.926     0.042     2.419     2.432
    48   1 H        0.926     0.044     2.397     2.421
    49   1 H        0.926     0.043     2.405     2.425
    50   1 H        0.926     0.044     2.397     2.421
    51   1 H        0.926     0.042     2.419     2.432
    52   1 H        0.926     0.034     2.525     2.485
    53   1 H        0.926     0.035     2.517     2.481
    54   1 H        0.926     0.030     2.586     2.515
    55   1 H        0.926     0.020     2.730     2.584

molecular dipole:
                 x           y           z       tot (Debye)
 q only:        3.059       0.000       0.001
   full:        3.008       0.000       0.001       7.647

 projected vibrational frequencies (cm⁻¹)
eigval :       -0.00    -0.00     0.00     0.00     0.00     0.00
eigval :       19.42    20.12    20.42    46.84    49.80    55.96
eigval :       68.54    72.89   102.22   120.79   123.58   142.37
eigval :      172.76   198.29   225.25   230.17   249.08   252.08
eigval :      265.32   280.67   320.98   356.32   369.35   370.88
eigval :      379.29   387.33   399.44   409.12   413.02   418.42
eigval :      440.39   454.56   454.62   481.91   497.09   506.64
eigval :      524.20   549.69   591.66   591.80   597.64   599.87
eigval :      599.92   626.20   629.34   646.85   659.72   669.93
eigval :      673.33   690.44   703.10   712.89   735.40   752.34
eigval :      766.81   774.63   774.94   783.25   799.71   867.39
eigval :      867.56   877.37   884.78   887.38   895.65   896.83
eigval :      900.09   906.17   910.85   913.39   915.03   921.61
eigval :      921.83   924.42   924.83   931.37   931.83   931.96
eigval :      935.36   944.62   953.72   994.93  1078.92  1089.27
eigval :     1094.44  1094.90  1105.44  1106.49  1115.36  1117.15
eigval :     1122.39  1137.22  1175.76  1177.04  1178.04  1180.43
eigval :     1181.93  1183.58  1184.68  1191.30  1211.63  1224.01
eigval :     1226.89  1227.49  1254.41  1263.94  1264.30  1266.67
eigval :     1273.72  1275.17  1307.19  1316.31  1324.13  1333.35
eigval :     1333.41  1336.89  1337.71  1422.13  1423.93  1430.47
eigval :     1434.61  1435.57  1461.37  1466.39  1469.07  1476.95
eigval :     1492.69  1566.92  1570.30  1577.89  1582.23  1585.92
eigval :     1588.47  1589.52  1590.20  1592.32  1601.92  1634.81
eigval :     3072.04  3072.29  3077.44  3077.53  3077.74  3078.13
eigval :     3078.20  3079.79  3080.70  3080.83  3086.79  3087.47
eigval :     3087.73  3090.89  3092.98  3093.14  3094.87  3095.70
eigval :     3097.83  3101.31  3102.14

   temp. (K)  partition function   enthalpy   heat capacity  entropy
                                   cal/mol     cal/K/mol   cal/K/mol   J/K/mol
 298.15  VIB  0.426E+11            14580.594     96.150     88.878
         ROT  0.932E+07              888.752      2.981     34.871
         INT  0.397E+18            15469.346     99.130    123.748
         TR   0.879E+28             1481.254      4.968     44.084
         TOT                       16950.6002   104.0986   167.8321   702.2097

       T/K    H(0)-H(T)+PV         H(T)/Eh          T*S/Eh         G(T)/Eh
   ------------------------------------------------------------------------
    298.15    0.270125E-01    0.448381E+00    0.797425E-01    0.368639E+00
   ------------------------------------------------------------------------

         :::::::::::::::::::::::::::::::::::::::::::::::::::::
         ::                  THERMODYNAMIC                  ::
         :::::::::::::::::::::::::::::::::::::::::::::::::::::
         :: total free energy         -85.909404078347 Eh   ::
         ::.................................................::
         :: total energy              -86.278042681643 Eh   ::
         :: zero point energy           0.421368569046 Eh   ::
         :: G(RRHO) w/o ZPVE           -0.052729965750 Eh   ::
         :: G(RRHO) contrib.            0.368638603296 Eh   ::
         :::::::::::::::::::::::::::::::::::::::::::::::::::::

           -------------------------------------------------
          | TOTAL ENERGY              -86.278042681643 Eh   |
          | TOTAL ENTHALPY            -85.829661611717 Eh   |
          | TOTAL FREE ENERGY         -85.909404078347 Eh   |
          | GRADIENT NORM               0.000052513921 Eh/α |
          | HOMO-LUMO GAP               1.587262319404 eV   |
           -------------------------------------------------

 * finished run on 2025/09/12 at 23:56:10.431
