   * xtb version 6.7.1 (edcfbbe) compiled by 'albert@albert-system' on 2024-07-22

   ID    Z sym.   atoms
    1    8 O      1
    2    6 C      2-21, 23-34
    3    7 N      22
    4    1 H      35-55

          program call               : xtb data2507/toluene/ACRSA/ACRSA_toluene_T1_crest.xyz --gfn 2 --uhf 2 --gbsa toluene --ohess vtight --parallel 40 --molden --ceasefiles --namespace data2507/toluene/ACRSA/ACRSA_toluene_T1_finalOpt
      * Solvation model:               GBSA
        Solvent                        toluene
        Solvent mass                       9.2140E+01 g/mol
          :  Hamiltonian                  GFN2-xTB          :
 * total energy  :   -86.1980483 Eh     change       -0.4926659E-07 Eh
 * total energy  :   -86.1981723 Eh     change       -0.1240840E-03 Eh
 * total energy  :   -86.1982081 Eh     change       -0.3571462E-04 Eh
 * total energy  :   -86.1982113 Eh     change       -0.3216713E-05 Eh
 * total energy  :   -86.1982098 Eh     change        0.1447867E-05 Eh
 * total energy  :   -86.1982121 Eh     change       -0.2303935E-05 Eh
 * total energy  :   -86.1982135 Eh     change       -0.1384292E-05 Eh
 * total energy  :   -86.1982144 Eh     change       -0.8744729E-06 Eh
 * total energy  :   -86.1982154 Eh     change       -0.1016175E-05 Eh
 * total energy  :   -86.1982164 Eh     change       -0.1001167E-05 Eh
 * total energy  :   -86.1982206 Eh     change       -0.1117520E-05 Eh
 * total energy  :   -86.1982218 Eh     change       -0.1153007E-05 Eh
 * total energy  :   -86.1982229 Eh     change       -0.1175378E-05 Eh
 * total energy  :   -86.1982241 Eh     change       -0.1208916E-05 Eh
 * total energy  :   -86.1982254 Eh     change       -0.1233905E-05 Eh
 * total energy  :   -86.1982266 Eh     change       -0.1229782E-05 Eh
 * total energy  :   -86.1982278 Eh     change       -0.1206010E-05 Eh
 * total energy  :   -86.1982290 Eh     change       -0.1167176E-05 Eh
 * total energy  :   -86.1982290 Eh     change       -0.5087600E-08 Eh
   *** GEOMETRY OPTIMIZATION CONVERGED AFTER 22 ITERATIONS ***

 final structure:
================
55
 xtb: 6.7.1 (edcfbbe)
O           -5.15790538451875        0.11339743772741        0.01277519356839
C           -3.88689388148613        0.07725536355796        0.00838542487441
C           -3.16306745227247       -1.17193942273649        0.01095707186142
C           -3.90157143381722       -2.37489464755649        0.01889025837934
C           -3.26731342971607       -3.59187726639146        0.02117852092763
C           -1.87819285746419       -3.65649994016608        0.01520169049060
C           -1.14210229034418       -2.48157270859293        0.00753812037863
C           -1.76369065902621       -1.24529405493609        0.00577601817764
C           -0.87176957758633       -0.00968144504773       -0.00004642862910
C           -1.69138865851021        1.27612791657395       -0.00408029977736
C           -1.00041575474733        2.47483612624110       -0.01177766012834
C           -1.66821889898305        3.68985982643038       -0.01580967338680
C           -3.05880817747264        3.70454782486124       -0.01151611586915
C           -3.76122406790402        2.52577978612311       -0.00352824783854
C           -3.09259449757732        1.28236803137931        0.00025084201942
C           -0.03452988772145       -0.03495640815104       -1.25121924803742
C           -0.67500432314752       -0.04271848162843       -2.48360009719333
C            0.04255234434835       -0.06218057528561       -3.66300753224081
C            1.43275588041841       -0.07358694275928       -3.62028269403955
C            2.09007961192469       -0.06454528293587       -2.41175363585000
C            1.36941123657530       -0.04441890220472       -1.20752117327164
N            2.03589221656027       -0.03650113064606       -0.00145043622613
C            3.46545038099746       -0.02613043974927       -0.00230524733582
C            4.14475708657802        1.18507013742260       -0.03491883170577
C            5.52903856878135        1.19222014997778       -0.03556092370700
C            6.23160135548422       -0.00140363638241       -0.00354976801152
C            5.55032091054962       -1.20738004704076        0.02898645878334
C            4.16609749062423       -1.22519916057390        0.02963215180056
C            1.37075514867470       -0.03351600653042        1.20538166154430
C            2.09266802016011       -0.03769998846849        2.40902855610338
C            1.43658714018999       -0.03683829007182        3.61826730738997
C            0.04639886731133       -0.03028233945925        3.66231392744428
C           -0.67235630661009       -0.02351571754882        2.48350368619818
C           -0.03314328277891       -0.02533400259410        1.25045077432374
H           -4.97938751412327       -2.29492644227610        0.02319227270560
H           -3.85371675973818       -4.49981393921357        0.02761229945704
H           -1.37347062853253       -4.61051985032321        0.01677322503853
H           -0.06177154930200       -2.52741481308622        0.00314429968949
H            0.08058625351016        2.46014718092295       -0.01483634692742
H           -1.10978729506964        4.61342155267014       -0.02213553741215
H           -3.59251652033543        4.64442169638829       -0.01446556593574
H           -4.84186421659205        2.50710393241955       -0.00000564184231
H           -1.75492713727267       -0.03346559274937       -2.50226644769350
H           -0.47421758398865       -0.06865063343539       -4.61001938195326
H            2.00180513460665       -0.08960544418585       -4.53713637987507
H            3.16810453346588       -0.07356598530440       -2.38676435521190
H            3.58865591898161        2.11009287141733       -0.05954787288890
H            6.05752632892240        2.13301353873062       -0.06081250216400
H            7.31093542572859        0.00822881242100       -0.00393421345810
H            6.09578354159186       -2.13843989455237        0.05380060066271
H            3.62608128698165       -2.15977769449181        0.05480333983711
H            3.17069444745224       -0.04180655246283        2.38309836103860
H            2.00659557836798       -0.04088573489530        4.53465333912026
H           -0.46943767835385       -0.02946159988360        4.60985736507203
H           -1.75226732189402       -0.01627149474585        2.50326530302433

          :  Hamiltonian                  GFN2-xTB          :
         :: gradient norm              0.000060750043 Eh/a0 ::
         :: HOMO-LUMO gap              0.795609426185 eV    ::
         :: SCC energy               -87.771193078946 Eh    ::
         :: -> dispersion             -0.082942352916 Eh    ::
         :: -> Gsolv                  -0.047865437377 Eh    ::
         :: repulsion energy           1.572964091220 Eh    ::

    * Orbital Energies and Occupations

         #    Occupation            Energy/Eh            Energy/eV
      -------------------------------------------------------------
         1        2.0000           -0.6967302             -18.9590
       ...           ...                  ...                  ...
        69        2.0000           -0.4271913             -11.6245
        70        2.0000           -0.4270247             -11.6199
        71        2.0000           -0.4249073             -11.5623
        72        2.0000           -0.4227017             -11.5023
        73        2.0000           -0.4118778             -11.2078
        74        2.0000           -0.4092892             -11.1373
        75        2.0000           -0.4008045             -10.9064
        76        2.0000           -0.3997152             -10.8768
        77        2.0000           -0.3977019             -10.8220
        78        2.0000           -0.3958994             -10.7730
        79        1.9808           -0.3750637             -10.2060
        80        1.0192           -0.3675885             -10.0026
        81        1.0000           -0.2813692              -7.6564 (HOMO)
        82        0.0000           -0.2521307              -6.8608 (LUMO)
        83                         -0.2475900              -6.7373
        84                         -0.2448727              -6.6633
        85                         -0.2408099              -6.5528
        86                         -0.2396009              -6.5199
        87                         -0.2217220              -6.0334
        88                         -0.2212923              -6.0217
        89                         -0.2175361              -5.9195
        90                         -0.2138833              -5.8201
        91                         -0.1613701              -4.3911
        92                         -0.1161271              -3.1600
       ...                                ...                  ...
       157                          0.6821251              18.5616
      -------------------------------------------------------------
                  HL-Gap            0.0292385 Eh            0.7956 eV

     #   Z          covCN         q      C6AA      α(0)
     1   8 O        0.857    -0.504    23.881     6.552
     2   6 C        2.838     0.165    24.442     8.102
     3   6 C        2.977    -0.018    28.456     8.750
     4   6 C        2.925    -0.033    28.819     8.804
     5   6 C        2.916    -0.034    28.856     8.809
     6   6 C        2.918    -0.046    29.148     8.853
     7   6 C        2.923    -0.037    28.931     8.821
     8   6 C        2.984    -0.003    28.100     8.695
     9   6 C        3.928     0.021    20.165     6.382
    10   6 C        2.985    -0.003    28.097     8.695
    11   6 C        2.923    -0.038    28.935     8.821
    12   6 C        2.918    -0.046    29.153     8.854
    13   6 C        2.916    -0.034    28.857     8.809
    14   6 C        2.925    -0.033    28.818     8.803
    15   6 C        2.977    -0.018    28.458     8.750
    16   6 C        2.987     0.005    27.899     8.664
    17   6 C        2.923    -0.027    28.686     8.783
    18   6 C        2.917    -0.027    28.666     8.780
    19   6 C        2.918    -0.024    28.607     8.771
    20   6 C        2.921    -0.047    29.177     8.858
    21   6 C        2.927     0.062    26.600     8.458
    22   7 N        2.754    -0.011    21.474     6.882
    23   6 C        2.930     0.058    26.692     8.473
    24   6 C        2.920    -0.034    28.840     8.807
    25   6 C        2.920    -0.023    28.580     8.767
    26   6 C        2.919    -0.025    28.624     8.773
    27   6 C        2.920    -0.023    28.582     8.767
    28   6 C        2.920    -0.034    28.844     8.807
    29   6 C        2.927     0.062    26.600     8.458
    30   6 C        2.921    -0.047    29.177     8.858
    31   6 C        2.918    -0.024    28.607     8.771
    32   6 C        2.917    -0.027    28.666     8.780
    33   6 C        2.923    -0.027    28.686     8.783
    34   6 C        2.987     0.005    27.899     8.664
    35   1 H        0.926     0.029     2.606     2.524
    36   1 H        0.926     0.031     2.571     2.508
    37   1 H        0.926     0.032     2.555     2.500
    38   1 H        0.925     0.025     2.661     2.551
    39   1 H        0.926     0.025     2.664     2.552
    40   1 H        0.926     0.032     2.556     2.500
    41   1 H        0.926     0.031     2.570     2.507
    42   1 H        0.926     0.029     2.605     2.524
    43   1 H        0.926     0.037     2.491     2.468
    44   1 H        0.926     0.048     2.346     2.395
    45   1 H        0.926     0.053     2.280     2.361
    46   1 H        0.926     0.053     2.279     2.361
    47   1 H        0.926     0.049     2.330     2.387
    48   1 H        0.926     0.053     2.287     2.365
    49   1 H        0.926     0.051     2.306     2.375
    50   1 H        0.926     0.053     2.286     2.364
    51   1 H        0.926     0.050     2.323     2.383
    52   1 H        0.926     0.053     2.278     2.360
    53   1 H        0.926     0.053     2.280     2.361
    54   1 H        0.926     0.048     2.346     2.395
    55   1 H        0.926     0.037     2.492     2.469

molecular dipole:
                 x           y           z       tot (Debye)
 q only:        6.355      -0.123      -0.012
   full:        6.176      -0.119      -0.011      15.702

 projected vibrational frequencies (cm⁻¹)
eigval :       -0.00    -0.00     0.00     0.00     0.00     0.00
eigval :        5.51    17.76    21.07    47.10    52.37    61.45
eigval :       74.74    75.71    98.58   117.30   134.16   141.82
eigval :      177.14   198.74   227.65   229.94   248.77   249.07
eigval :      262.85   276.61   308.47   346.67   357.28   367.90
eigval :      382.49   389.87   400.19   403.30   408.83   422.28
eigval :      441.42   451.79   460.55   473.06   493.13   503.79
eigval :      523.49   535.41   545.81   587.99   590.50   592.99
eigval :      596.12   599.29   608.95   624.27   654.02   655.99
eigval :      666.57   685.20   695.95   698.33   709.76   752.75
eigval :      757.33   761.01   765.17   771.23   776.06   851.76
eigval :      853.35   869.23   870.83   873.57   880.68   885.72
eigval :      885.76   890.23   895.34   903.67   908.42   909.18
eigval :      910.54   917.20   918.08   925.68   925.86   928.98
eigval :      934.69   936.99   940.22   993.12  1077.02  1078.73
eigval :     1087.18  1088.07  1097.04  1097.69  1105.96  1116.18
eigval :     1123.75  1133.45  1161.18  1166.97  1172.04  1177.93
eigval :     1178.33  1179.17  1184.30  1185.93  1190.48  1203.28
eigval :     1203.68  1216.99  1226.10  1250.21  1250.93  1255.32
eigval :     1266.40  1272.39  1306.09  1308.51  1310.22  1335.05
eigval :     1339.63  1341.71  1344.20  1381.34  1407.43  1413.71
eigval :     1428.13  1428.32  1432.90  1437.94  1443.91  1459.04
eigval :     1466.69  1472.26  1514.53  1519.98  1542.56  1550.69
eigval :     1557.09  1574.56  1579.69  1580.51  1585.00  1589.59
eigval :     3064.26  3064.50  3064.68  3065.16  3078.01  3078.53
eigval :     3085.58  3087.60  3088.49  3088.64  3089.18  3090.47
eigval :     3091.48  3091.62  3093.14  3097.83  3102.70  3102.92
eigval :     3103.76  3110.57  3111.06

   temp. (K)  partition function   enthalpy   heat capacity  entropy
                                   cal/mol     cal/K/mol   cal/K/mol   J/K/mol
 298.15  VIB  0.142E+12            14745.998     97.666     90.732
         ROT  0.187E+08              888.752      2.981     36.251
         INT  0.265E+19            15634.751    100.647    126.983
         TR   0.879E+28             1481.254      4.968     44.084
         TOT                       17116.0046   105.6147   171.0668   715.7434

       T/K    H(0)-H(T)+PV         H(T)/Eh          T*S/Eh         G(T)/Eh
   ------------------------------------------------------------------------
    298.15    0.272761E-01    0.445413E+00    0.812793E-01    0.364134E+00
   ------------------------------------------------------------------------

         :::::::::::::::::::::::::::::::::::::::::::::::::::::
         ::                  THERMODYNAMIC                  ::
         :::::::::::::::::::::::::::::::::::::::::::::::::::::
         :: total free energy         -85.834095421719 Eh   ::
         ::.................................................::
         :: total energy              -86.198228986053 Eh   ::
         :: zero point energy           0.418136815986 Eh   ::
         :: G(RRHO) w/o ZPVE           -0.054003251651 Eh   ::
         :: G(RRHO) contrib.            0.364133564335 Eh   ::
         :::::::::::::::::::::::::::::::::::::::::::::::::::::

           -------------------------------------------------
          | TOTAL ENERGY              -86.198228986053 Eh   |
          | TOTAL ENTHALPY            -85.752816080461 Eh   |
          | TOTAL FREE ENERGY         -85.834095421719 Eh   |
          | GRADIENT NORM               0.000062055333 Eh/α |
          | HOMO-LUMO GAP               0.795619484704 eV   |
           -------------------------------------------------

 * finished run on 2025/09/13 at 00:01:20.096
