   * xtb version 6.7.1 (edcfbbe) compiled by 'albert@albert-system' on 2024-07-22

   ID    Z sym.   atoms
    1    8 O      1
    2    6 C      2-21, 23-34
    3    7 N      22
    4    1 H      35-55

          program call               : xtb data2507/toluene/ACRSA/ACRSA_toluene_S0_finalOpt.xtbopt.xyz --gfn 2 --uhf 2 --gbsa toluene --ohess vtight --parallel 40 --molden --ceasefiles --namespace data2507/toluene/ACRSA/ACRSA_toluene_T1_preOpt
      * Solvation model:               GBSA
        Solvent                        toluene
        Solvent mass                       9.2140E+01 g/mol
          :  Hamiltonian                  GFN2-xTB          :
 * total energy  :   -86.1941343 Eh     change       -0.7314469E-09 Eh
 * total energy  :   -86.1973786 Eh     change       -0.3244349E-02 Eh
 * total energy  :   -86.1981335 Eh     change       -0.7548973E-03 Eh
 * total energy  :   -86.1981691 Eh     change       -0.3559112E-04 Eh
 * total energy  :   -86.1981780 Eh     change       -0.8853402E-05 Eh
 * total energy  :   -86.1981801 Eh     change       -0.2114010E-05 Eh
 * total energy  :   -86.1981809 Eh     change       -0.8233851E-06 Eh
 * total energy  :   -86.1981812 Eh     change       -0.3162520E-06 Eh
 * total energy  :   -86.1981817 Eh     change       -0.4571841E-06 Eh
 * total energy  :   -86.1981824 Eh     change       -0.6879993E-06 Eh
 * total energy  :   -86.1981848 Eh     change       -0.3849520E-06 Eh
 * total energy  :   -86.1981853 Eh     change       -0.5012478E-06 Eh
 * total energy  :   -86.1981860 Eh     change       -0.6744211E-06 Eh
 * total energy  :   -86.1981867 Eh     change       -0.6700683E-06 Eh
 * total energy  :   -86.1981870 Eh     change       -0.3444846E-06 Eh
 * total energy  :   -86.1981873 Eh     change       -0.2618684E-06 Eh
 * total energy  :   -86.1981875 Eh     change       -0.2680902E-06 Eh
 * total energy  :   -86.1981878 Eh     change       -0.2836912E-06 Eh
 * total energy  :   -86.1981878 Eh     change       -0.3254158E-08 Eh
   *** GEOMETRY OPTIMIZATION CONVERGED AFTER 22 ITERATIONS ***

 final structure:
================
55
 xtb: 6.7.1 (edcfbbe)
O           -5.15697590669279        0.07342793982382       -0.06318317915392
C           -3.88617985189584        0.05431501733917       -0.02405035399726
C           -3.14403531882047       -1.18345116184399       -0.05421844879093
C           -3.86420105580062       -2.39608534990264       -0.11533019093384
C           -3.21198444492697       -3.60326130459039       -0.13879775736570
C           -1.82256728863343       -3.64842011096792       -0.10181784054048
C           -1.10428424866195       -2.46381027753594       -0.04449461976291
C           -1.74426958075651       -1.23740380589697       -0.02109755723138
C           -0.87142530682860        0.01114667687309        0.03030568085130
C           -1.71023972824712        1.28166034610951        0.09828148650337
C           -1.03706622462436        2.48711928076214        0.18761857098947
C           -1.72295681042926        3.69088562634090        0.24220040673292
C           -3.11302957613021        3.68709136550885        0.20304275141056
C           -3.79788181351556        2.50109346415834        0.11489701817996
C           -3.11089183954858        1.26905945233799        0.06171674672020
C           -0.05043245814551        0.06036234707329       -1.23113805750271
C           -0.70663164994907        0.13159983617798       -2.45311639329138
C           -0.00402962966479        0.18007430906172       -3.64067895865919
C            1.38645253668500        0.15612651901031       -3.61684326433650
C            2.05903252190604        0.08548348730442       -2.41878479787531
C            1.35371155052168        0.03661541227019       -1.20630032458522
N            2.03528077508147       -0.03403710830535       -0.01070405902380
C            3.46455167583187       -0.04987099580271       -0.03179264681312
C            4.16772328751378        1.14723490021727        0.01258733882792
C            5.55165455350070        1.12784325939917       -0.01237718291097
C            6.23025197857612       -0.07812276153600       -0.08099036884241
C            5.52513388970564       -1.26991332906529       -0.12442566610268
C            4.14102743251435       -1.26109208849549       -0.09962257561971
C            1.38581499630521       -0.08321109200314        1.20355128218522
C            2.12245277660745       -0.15600437326294        2.39606051122266
C            1.48086020432167       -0.20251457024394        3.61224348856257
C            0.09151602048374       -0.17692425708754        3.67468910297553
C           -0.64164438500233       -0.10685255456485        2.50678082185879
C           -0.01713618373820       -0.06050181144935        1.26723417362972
H           -4.94272756582511       -2.33124119160299       -0.14166448941403
H           -3.78446622703254       -4.51888954014247       -0.18507223393632
H           -1.30377882243264       -4.59471486998256       -0.11867477329690
H           -0.02388301878497       -2.49506885746268       -0.01771902397811
H            0.04381882900859        2.48632814760679        0.21498939784492
H           -1.17876917719082        4.62026971765308        0.31265891607469
H           -3.66044250052496        4.61821827362154        0.24274761408068
H           -4.87774024766476        2.46831352237862        0.08386454483595
H           -1.78660527578240        0.14858735899550       -2.45751547449448
H           -0.53271189132055        0.23568265159470       -4.57946010423365
H            1.94383966702295        0.19313594661120       -4.54022833790331
H            3.13720651189464        0.06684503484129       -2.40871100271420
H            3.62989148647003        2.08191643732409        0.06483584537144
H            6.09881893203991        2.05761895880472        0.02148980163789
H            7.30938307146891       -0.08907981946339       -0.10096737491908
H            6.05160876861565       -2.21064888498194       -0.17791686751233
H            3.58306831344791       -2.18473808809323       -0.13376287796771
H            3.19997437366179       -0.17527719400592        2.35587013365793
H            2.06174653595573       -0.25833005405012        4.52007324492399
H           -0.41232691931166       -0.21234099658770        4.62800848502510
H           -1.72118039596219       -0.08693083588607        2.53972202394425

          :  Hamiltonian                  GFN2-xTB          :
         :: gradient norm              0.000058411373 Eh/a0 ::
         :: HOMO-LUMO gap              0.795355090845 eV    ::
         :: SCC energy               -87.771321550215 Eh    ::
         :: -> dispersion             -0.082957751114 Eh    ::
         :: -> Gsolv                  -0.047823638234 Eh    ::
         :: repulsion energy           1.573133725822 Eh    ::

    * Orbital Energies and Occupations

         #    Occupation            Energy/Eh            Energy/eV
      -------------------------------------------------------------
         1        2.0000           -0.6967497             -18.9595
       ...           ...                  ...                  ...
        69        2.0000           -0.4274377             -11.6312
        70        2.0000           -0.4267747             -11.6131
        71        2.0000           -0.4249157             -11.5625
        72        2.0000           -0.4227091             -11.5025
        73        2.0000           -0.4118858             -11.2080
        74        2.0000           -0.4092972             -11.1375
        75        2.0000           -0.4008028             -10.9064
        76        2.0000           -0.3997148             -10.8768
        77        2.0000           -0.3976946             -10.8218
        78        2.0000           -0.3959037             -10.7731
        79        1.9809           -0.3750720             -10.2062
        80        1.0191           -0.3675848             -10.0025
        81        1.0000           -0.2813627              -7.6563 (HOMO)
        82        0.0000           -0.2521338              -6.8609 (LUMO)
        83                         -0.2475712              -6.7368
        84                         -0.2448715              -6.6633
        85                         -0.2408179              -6.5530
        86                         -0.2396111              -6.5202
        87                         -0.2216995              -6.0327
        88                         -0.2213179              -6.0224
        89                         -0.2175351              -5.9194
        90                         -0.2138693              -5.8197
        91                         -0.1613881              -4.3916
        92                         -0.1161109              -3.1595
       ...                                ...                  ...
       157                          0.6820879              18.5606
      -------------------------------------------------------------
                  HL-Gap            0.0292289 Eh            0.7954 eV

     #   Z          covCN         q      C6AA      α(0)
     1   8 O        0.857    -0.504    23.882     6.552
     2   6 C        2.838     0.165    24.442     8.102
     3   6 C        2.977    -0.018    28.457     8.750
     4   6 C        2.925    -0.033    28.818     8.804
     5   6 C        2.916    -0.034    28.857     8.809
     6   6 C        2.918    -0.046    29.151     8.854
     7   6 C        2.923    -0.038    28.934     8.821
     8   6 C        2.985    -0.003    28.098     8.695
     9   6 C        3.928     0.021    20.164     6.382
    10   6 C        2.985    -0.003    28.098     8.695
    11   6 C        2.923    -0.038    28.933     8.821
    12   6 C        2.918    -0.046    29.150     8.854
    13   6 C        2.916    -0.034    28.857     8.809
    14   6 C        2.925    -0.033    28.819     8.804
    15   6 C        2.977    -0.018    28.457     8.750
    16   6 C        2.988     0.005    27.899     8.664
    17   6 C        2.923    -0.028    28.689     8.784
    18   6 C        2.917    -0.027    28.667     8.780
    19   6 C        2.918    -0.024    28.608     8.771
    20   6 C        2.921    -0.047    29.177     8.858
    21   6 C        2.927     0.063    26.599     8.458
    22   7 N        2.754    -0.011    21.473     6.882
    23   6 C        2.930     0.058    26.692     8.473
    24   6 C        2.920    -0.034    28.842     8.807
    25   6 C        2.920    -0.023    28.581     8.767
    26   6 C        2.919    -0.025    28.624     8.773
    27   6 C        2.920    -0.023    28.582     8.767
    28   6 C        2.920    -0.034    28.843     8.807
    29   6 C        2.927     0.062    26.601     8.458
    30   6 C        2.921    -0.047    29.176     8.858
    31   6 C        2.918    -0.024    28.607     8.771
    32   6 C        2.917    -0.027    28.666     8.780
    33   6 C        2.923    -0.027    28.683     8.783
    34   6 C        2.987     0.005    27.898     8.664
    35   1 H        0.926     0.029     2.605     2.524
    36   1 H        0.926     0.031     2.571     2.507
    37   1 H        0.926     0.032     2.556     2.500
    38   1 H        0.926     0.025     2.662     2.551
    39   1 H        0.925     0.025     2.662     2.552
    40   1 H        0.926     0.032     2.556     2.500
    41   1 H        0.926     0.031     2.571     2.507
    42   1 H        0.926     0.029     2.606     2.524
    43   1 H        0.926     0.037     2.494     2.469
    44   1 H        0.926     0.048     2.348     2.396
    45   1 H        0.926     0.053     2.279     2.361
    46   1 H        0.926     0.053     2.278     2.360
    47   1 H        0.926     0.049     2.327     2.386
    48   1 H        0.926     0.053     2.287     2.365
    49   1 H        0.926     0.051     2.306     2.375
    50   1 H        0.926     0.053     2.286     2.365
    51   1 H        0.926     0.050     2.325     2.385
    52   1 H        0.926     0.053     2.280     2.361
    53   1 H        0.926     0.053     2.280     2.361
    54   1 H        0.926     0.048     2.345     2.394
    55   1 H        0.926     0.037     2.489     2.467

molecular dipole:
                 x           y           z       tot (Debye)
 q only:        6.354      -0.091       0.033
   full:        6.176      -0.088       0.034      15.699

 projected vibrational frequencies (cm⁻¹)
eigval :       -0.00    -0.00    -0.00     0.00     0.00     0.00
eigval :       -8.11    16.98    18.70    46.08    51.57    61.31
eigval :       73.55    74.09    94.76   112.88   130.06   140.89
eigval :      173.48   196.94   227.09   228.45   247.27   249.68
eigval :      261.99   276.83   308.04   346.04   357.65   368.60
eigval :      381.22   390.54   399.70   403.00   408.53   423.41
eigval :      441.71   452.23   460.17   474.17   494.07   504.49
eigval :      524.15   534.91   545.62   587.96   590.27   593.02
eigval :      595.50   599.14   608.78   623.93   654.46   656.05
eigval :      667.02   685.52   696.17   698.79   709.52   752.59
eigval :      756.52   760.20   764.41   769.51   774.68   851.67
eigval :      853.20   866.41   868.83   872.73   880.05   884.68
eigval :      885.38   890.31   894.85   903.37   908.29   910.29
eigval :      910.86   916.85   917.81   924.56   924.76   928.35
eigval :      934.58   937.09   940.24   993.20  1077.01  1078.62
eigval :     1086.97  1088.02  1095.91  1096.22  1105.99  1115.92
eigval :     1123.68  1133.26  1161.36  1166.84  1171.68  1177.83
eigval :     1177.99  1178.92  1184.18  1186.12  1190.57  1203.36
eigval :     1203.70  1216.70  1225.73  1249.56  1250.49  1254.22
eigval :     1264.99  1272.07  1306.16  1307.79  1310.27  1335.14
eigval :     1339.72  1341.77  1344.21  1381.54  1407.50  1413.94
eigval :     1428.23  1428.30  1432.48  1437.82  1443.55  1458.89
eigval :     1466.45  1471.87  1514.56  1520.01  1542.72  1550.68
eigval :     1557.26  1574.38  1579.75  1580.68  1584.93  1589.52
eigval :     3063.92  3064.51  3064.76  3065.83  3078.03  3078.43
eigval :     3084.48  3085.64  3087.64  3088.28  3089.07  3089.82
eigval :     3090.46  3091.09  3093.23  3097.86  3102.16  3102.78
eigval :     3103.84  3109.31  3109.92

   temp. (K)  partition function   enthalpy   heat capacity  entropy
                                   cal/mol     cal/K/mol   cal/K/mol   J/K/mol
 298.15  VIB  0.136E+12            14779.098     97.627     90.845
         ROT  0.186E+08              888.752      2.981     36.250
         INT  0.254E+19            15667.850    100.608    127.095
         TR   0.879E+28             1481.254      4.968     44.084
         TOT                       17149.1041   105.5763   171.1791   716.2134

       T/K    H(0)-H(T)+PV         H(T)/Eh          T*S/Eh         G(T)/Eh
   ------------------------------------------------------------------------
    298.15    0.273288E-01    0.445328E+00    0.813327E-01    0.363995E+00
   ------------------------------------------------------------------------

         :::::::::::::::::::::::::::::::::::::::::::::::::::::
         ::                  THERMODYNAMIC                  ::
         :::::::::::::::::::::::::::::::::::::::::::::::::::::
         :: total free energy         -85.834192453820 Eh   ::
         ::.................................................::
         :: total energy              -86.198187825553 Eh   ::
         :: zero point energy           0.417999257919 Eh   ::
         :: G(RRHO) w/o ZPVE           -0.054003886186 Eh   ::
         :: G(RRHO) contrib.            0.363995371733 Eh   ::
         :::::::::::::::::::::::::::::::::::::::::::::::::::::

           -------------------------------------------------
          | TOTAL ENERGY              -86.198187825553 Eh   |
          | TOTAL ENTHALPY            -85.752859730690 Eh   |
          | TOTAL FREE ENERGY         -85.834192453820 Eh   |
          | GRADIENT NORM               0.000058762007 Eh/α |
          | HOMO-LUMO GAP               0.795358255794 eV   |
           -------------------------------------------------

 * finished run on 2025/09/12 at 23:58:34.051
