   * xtb version 6.7.1 (edcfbbe) compiled by 'albert@albert-system' on 2024-07-22

   ID    Z sym.   atoms
    1    8 O      1
    2    6 C      2-21, 23-34
    3    7 N      22
    4    1 H      35-55

          program call               : xtb data2507/toluene/ACRSA/ACRSA_toluene_S0_crest.xyz --gfn 2 --gbsa toluene --ohess vtight --parallel 40 --molden --ceasefiles --namespace data2507/toluene/ACRSA/ACRSA_toluene_S0_finalOpt
      * Solvation model:               GBSA
        Solvent                        toluene
        Solvent mass                       9.2140E+01 g/mol
          :  Hamiltonian                  GFN2-xTB          :
 * total energy  :   -86.2778782 Eh     change       -0.1151705E-08 Eh
 * total energy  :   -86.2779392 Eh     change       -0.6098732E-04 Eh
 * total energy  :   -86.2779557 Eh     change       -0.1654469E-04 Eh
 * total energy  :   -86.2779581 Eh     change       -0.2391459E-05 Eh
 * total energy  :   -86.2779575 Eh     change        0.5575796E-06 Eh
 * total energy  :   -86.2779595 Eh     change       -0.1937920E-05 Eh
 * total energy  :   -86.2779603 Eh     change       -0.8645777E-06 Eh
 * total energy  :   -86.2779614 Eh     change       -0.1008102E-05 Eh
 * total energy  :   -86.2779627 Eh     change       -0.1321409E-05 Eh
 * total energy  :   -86.2779644 Eh     change       -0.1773376E-05 Eh
 * total energy  :   -86.2779816 Eh     change       -0.3076240E-06 Eh
 * total energy  :   -86.2779820 Eh     change       -0.3269001E-06 Eh
 * total energy  :   -86.2779823 Eh     change       -0.3188180E-06 Eh
 * total energy  :   -86.2779826 Eh     change       -0.2814355E-06 Eh
 * total energy  :   -86.2779828 Eh     change       -0.2416341E-06 Eh
 * total energy  :   -86.2779830 Eh     change       -0.2135305E-06 Eh
 * total energy  :   -86.2779832 Eh     change       -0.1888465E-06 Eh
 * total energy  :   -86.2779834 Eh     change       -0.1665552E-06 Eh
 * total energy  :   -86.2779834 Eh     change       -0.5211405E-09 Eh
   *** GEOMETRY OPTIMIZATION CONVERGED AFTER 44 ITERATIONS ***

 final structure:
================
55
 xtb: 6.7.1 (edcfbbe)
O           -5.10322673114082        0.09332005072318       -0.18961663493534
C           -3.88044790280769        0.06557152611072       -0.08973843417155
C           -3.13425370391066       -1.20428495086762       -0.08451758604907
C           -3.85781343920404       -2.39939850213210       -0.15079739727300
C           -3.21349275141017       -3.61650605155479       -0.14494258174702
C           -1.82692062909071       -3.65440989209990       -0.07257094840058
C           -1.10352889279850       -2.47964402101502       -0.00904601250132
C           -1.74102627142108       -1.24311229730306       -0.01285005469172
C           -0.89060341716930        0.00331220925640        0.04191817070343
C           -1.69381938732749        1.28003451068765        0.10882524202209
C           -1.01028229612106        2.48589610442202        0.22786953076336
C           -1.68920361472739        3.68742236932860        0.27936392167799
C           -3.07621496795143        3.70834535210655        0.20869081852664
C           -3.76574119099935        2.52227358252923        0.08866016847737
C           -3.08739360522698        1.30022553789850        0.03750139404865
C           -0.06149984403947        0.05012189516340       -1.23190522890985
C           -0.72574009114461        0.11638997563052       -2.44733045703588
C           -0.03348536600900        0.16236070275297       -3.64321467923413
C            1.35122505557674        0.14015192307356       -3.62180104828440
C            2.02825675035053        0.07435075523297       -2.42163513489819
C            1.33552404721871        0.02903906628378       -1.20742532437702
N            2.02916235048952       -0.03680599524171       -0.01069594821933
C            3.45629269246230       -0.04082932027277       -0.03606298151406
C            4.15305826948814        1.16046822785223       -0.00070298577971
C            5.53694899146786        1.15422041521410       -0.02753502312924
C            6.22594456223027       -0.04603500837427       -0.08909651835557
C            5.53049163195174       -1.24362722801821       -0.12403491527896
C            4.14652246492244       -1.24479378807654       -0.09732443485823
C            1.37730104562741       -0.08966013853495        1.21006235349423
C            2.11014586365483       -0.16121911145645        2.39911388016962
C            1.47236002026636       -0.21320375742681        3.62144917814138
C            0.08906301042287       -0.19434957920809        3.69049924813761
C           -0.64236732015576       -0.12410102702945        2.51927137728754
C           -0.01810333742337       -0.07247991496617        1.28210809389684
H           -4.93518172257918       -2.33389537447626       -0.20618549574267
H           -3.78203114038012       -4.53291467695087       -0.19597876031494
H           -1.31204803250897       -4.60375487821473       -0.06713144296012
H           -0.02533968627736       -2.51391114080488        0.04521494296548
H            0.06839225381399        2.47455042190287        0.28191350050679
H           -1.13930135504076        4.61209812021460        0.37372744900940
H           -3.61004721060099        4.64595760980486        0.24767124560754
H           -4.84480061865491        2.50245477136269        0.03092793216537
H           -1.80694577579635        0.13187018616628       -2.44925538189262
H           -0.56912998084593        0.21409325574902       -4.57865246206421
H            1.90992474647782        0.17434914514743       -4.54540519112860
H            3.10712083977130        0.05679874112563       -2.41773742407155
H            3.60787201620607        2.09164025308414        0.04607998561572
H            6.07731183041466        2.08876464719694       -0.00037707602944
H            7.30552830764655       -0.04806185903310       -0.11013031503909
H            6.06594958106551       -2.18014999857598       -0.17207892424306
H            3.59641519674519       -2.17388160488218       -0.12468649930679
H            3.18836146896573       -0.17546929457439        2.35813902693339
H            2.06099082319429       -0.26813602918616        4.52528044927510
H           -0.41492108788097       -0.23402377701422        4.64396045576351
H           -1.72292685338529       -0.10803590432836        2.55627292464756

          :  Hamiltonian                  GFN2-xTB          :
         :: gradient norm              0.000039941137 Eh/a0 ::
         :: HOMO-LUMO gap              1.588088416195 eV    ::
         :: SCC energy               -87.860672094984 Eh    ::
         :: -> dispersion             -0.083124320006 Eh    ::
         :: -> Gsolv                  -0.037345938129 Eh    ::
         :: repulsion energy           1.582688731520 Eh    ::

    * Orbital Energies and Occupations

         #    Occupation            Energy/Eh            Energy/eV
      -------------------------------------------------------------
         1        2.0000           -0.7036412             -19.1471
       ...           ...                  ...                  ...
        68        2.0000           -0.4305376             -11.7155
        69        2.0000           -0.4230313             -11.5113
        70        2.0000           -0.4179784             -11.3738
        71        2.0000           -0.4171818             -11.3521
        72        2.0000           -0.4150922             -11.2952
        73        2.0000           -0.4131406             -11.2421
        74        2.0000           -0.4124236             -11.2226
        75        2.0000           -0.4098469             -11.1525
        76        2.0000           -0.4012841             -10.9195
        77        2.0000           -0.4011529             -10.9159
        78        2.0000           -0.3998683             -10.8810
        79        2.0000           -0.3890409             -10.5863
        80        2.0000           -0.3528165              -9.6006 (HOMO)
        81                         -0.2944553              -8.0125 (LUMO)
        82                         -0.2433088              -6.6208
        83                         -0.2371123              -6.4522
        84                         -0.2354941              -6.4081
        85                         -0.2346998              -6.3865
        86                         -0.2335753              -6.3559
        87                         -0.2271047              -6.1798
        88                         -0.2265494              -6.1647
        89                         -0.2207387              -6.0066
        90                         -0.1957497              -5.3266
        91                         -0.1799802              -4.8975
       ...                                ...                  ...
       157                          0.6906934              18.7947
      -------------------------------------------------------------
                  HL-Gap            0.0583612 Eh            1.5881 eV

     #   Z          covCN         q      C6AA      α(0)
     1   8 O        0.858    -0.444    22.582     6.371
     2   6 C        2.832     0.223    23.304     7.911
     3   6 C        2.976    -0.023    28.576     8.769
     4   6 C        2.925    -0.019    28.484     8.752
     5   6 C        2.917    -0.030    28.742     8.791
     6   6 C        2.919    -0.021    28.542     8.761
     7   6 C        2.924    -0.032    28.802     8.801
     8   6 C        2.987     0.017    27.617     8.620
     9   6 C        3.928     0.014    20.272     6.399
    10   6 C        2.987     0.017    27.617     8.620
    11   6 C        2.924    -0.032    28.802     8.801
    12   6 C        2.919    -0.021    28.542     8.761
    13   6 C        2.917    -0.030    28.742     8.791
    14   6 C        2.925    -0.019    28.484     8.752
    15   6 C        2.976    -0.023    28.576     8.769
    16   6 C        2.991    -0.011    28.278     8.723
    17   6 C        2.925    -0.035    28.877     8.812
    18   6 C        2.917    -0.043    29.075     8.842
    19   6 C        2.919    -0.032    28.793     8.799
    20   6 C        2.924    -0.057    29.424     8.896
    21   6 C        2.925     0.061    26.630     8.463
    22   7 N        2.753    -0.069    22.581     7.058
    23   6 C        2.927     0.066    26.522     8.446
    24   6 C        2.921    -0.037    28.922     8.819
    25   6 C        2.920    -0.027    28.672     8.781
    26   6 C        2.919    -0.029    28.724     8.789
    27   6 C        2.920    -0.027    28.673     8.781
    28   6 C        2.921    -0.037    28.923     8.819
    29   6 C        2.925     0.061    26.638     8.464
    30   6 C        2.924    -0.057    29.424     8.896
    31   6 C        2.920    -0.032    28.791     8.799
    32   6 C        2.917    -0.043    29.073     8.842
    33   6 C        2.926    -0.035    28.868     8.811
    34   6 C        2.989    -0.011    28.293     8.725
    35   1 H        0.926     0.049     2.331     2.388
    36   1 H        0.926     0.045     2.386     2.415
    37   1 H        0.926     0.048     2.349     2.397
    38   1 H        0.926     0.040     2.449     2.447
    39   1 H        0.926     0.040     2.449     2.447
    40   1 H        0.926     0.048     2.349     2.397
    41   1 H        0.926     0.045     2.386     2.415
    42   1 H        0.926     0.049     2.331     2.387
    43   1 H        0.925     0.020     2.738     2.588
    44   1 H        0.926     0.030     2.588     2.516
    45   1 H        0.926     0.035     2.514     2.480
    46   1 H        0.926     0.035     2.521     2.483
    47   1 H        0.926     0.042     2.421     2.433
    48   1 H        0.926     0.044     2.397     2.421
    49   1 H        0.926     0.043     2.405     2.425
    50   1 H        0.926     0.044     2.397     2.421
    51   1 H        0.926     0.042     2.417     2.431
    52   1 H        0.926     0.034     2.529     2.487
    53   1 H        0.926     0.035     2.519     2.482
    54   1 H        0.926     0.030     2.584     2.514
    55   1 H        0.925     0.021     2.722     2.580

molecular dipole:
                 x           y           z       tot (Debye)
 q only:        3.054      -0.053       0.130
   full:        3.002      -0.051       0.131       7.639

 projected vibrational frequencies (cm⁻¹)
eigval :       -0.00    -0.00    -0.00    -0.00     0.00     0.00
eigval :        9.29    16.33    17.78    43.69    47.95    56.05
eigval :       67.90    69.67   101.78   117.35   119.81   141.62
eigval :      166.57   196.44   223.76   228.03   248.05   250.77
eigval :      263.41   279.64   320.11   355.01   370.55   370.73
eigval :      378.35   387.98   399.03   408.73   412.12   420.37
eigval :      440.75   453.87   455.81   483.83   497.19   507.26
eigval :      525.05   549.35   591.17   591.65   597.55   598.45
eigval :      601.12   625.67   628.92   646.66   659.82   670.56
eigval :      672.61   690.97   704.16   712.50   735.67   751.94
eigval :      765.06   772.50   773.93   782.01   799.15   861.16
eigval :      865.42   875.09   884.60   887.59   895.61   895.88
eigval :      900.17   904.99   910.68   912.96   914.58   921.46
eigval :      921.72   922.94   925.36   929.06   930.84   932.09
eigval :      933.54   944.60   953.79   995.04  1078.74  1089.26
eigval :     1093.69  1094.90  1104.35  1105.63  1114.95  1116.85
eigval :     1122.02  1137.18  1175.60  1176.33  1177.61  1180.20
eigval :     1181.68  1182.51  1184.51  1191.22  1211.58  1223.02
eigval :     1226.47  1228.60  1253.75  1263.01  1264.17  1265.85
eigval :     1273.53  1275.08  1306.99  1315.89  1324.19  1333.18
eigval :     1333.42  1336.71  1337.65  1422.18  1423.86  1430.25
eigval :     1434.81  1435.81  1461.24  1466.35  1468.85  1476.80
eigval :     1492.48  1567.27  1570.43  1578.18  1582.17  1586.09
eigval :     1588.25  1589.03  1589.81  1592.04  1601.79  1634.30
eigval :     3064.96  3071.48  3077.24  3077.45  3077.86  3078.04
eigval :     3078.20  3080.02  3080.52  3080.72  3086.94  3087.59
eigval :     3088.07  3091.09  3091.76  3092.92  3094.88  3095.73
eigval :     3097.98  3099.92  3100.85

   temp. (K)  partition function   enthalpy   heat capacity  entropy
                                   cal/mol     cal/K/mol   cal/K/mol   J/K/mol
 298.15  VIB  0.154E+12            14644.818     96.036     90.229
         ROT  0.186E+08              888.752      2.981     36.247
         INT  0.287E+19            15533.571     99.017    126.476
         TR   0.879E+28             1481.254      4.968     44.084
         TOT                       17014.8248   103.9854   170.5596   713.6216

       T/K    H(0)-H(T)+PV         H(T)/Eh          T*S/Eh         G(T)/Eh
   ------------------------------------------------------------------------
    298.15    0.271148E-01    0.448256E+00    0.810384E-01    0.367218E+00
   ------------------------------------------------------------------------

         :::::::::::::::::::::::::::::::::::::::::::::::::::::
         ::                  THERMODYNAMIC                  ::
         :::::::::::::::::::::::::::::::::::::::::::::::::::::
         :: total free energy         -85.910765402414 Eh   ::
         ::.................................................::
         :: total energy              -86.277983366328 Eh   ::
         :: zero point energy           0.421141508119 Eh   ::
         :: G(RRHO) w/o ZPVE           -0.053923544205 Eh   ::
         :: G(RRHO) contrib.            0.367217963914 Eh   ::
         :::::::::::::::::::::::::::::::::::::::::::::::::::::

           -------------------------------------------------
          | TOTAL ENERGY              -86.277983366328 Eh   |
          | TOTAL ENTHALPY            -85.829727009021 Eh   |
          | TOTAL FREE ENERGY         -85.910765402414 Eh   |
          | GRADIENT NORM               0.000039940282 Eh/α |
          | HOMO-LUMO GAP               1.588088350801 eV   |
           -------------------------------------------------

 * finished run on 2025/09/12 at 23:58:30.993
