   * xtb version 6.7.1 (edcfbbe) compiled by 'albert@albert-system' on 2024-07-22

   ID    Z sym.   atoms
    1    6 C      1-5, 7-13, 15-18, 20-32, 34-46, 48-60, 62, 63
    2    7 N      6, 14, 19, 33, 47, 61
    3    1 H      64-99

          program call               : xtb data2507/toluene/TCzTrz/TCzTrz_toluene_T1_crest.xyz --gfn 2 --uhf 2 --gbsa toluene --ohess vtight --parallel 40 --molden --ceasefiles --namespace data2507/toluene/TCzTrz/TCzTrz_toluene_T1_finalOpt
      * Solvation model:               GBSA
        Solvent                        toluene
        Solvent mass                       9.2140E+01 g/mol
          :  Hamiltonian                  GFN2-xTB          :
 * total energy  :  -158.0817859 Eh     change       -0.1095361E-07 Eh
 * total energy  :  -158.0819211 Eh     change       -0.1351815E-03 Eh
 * total energy  :  -158.0819893 Eh     change       -0.6826235E-04 Eh
 * total energy  :  -158.0820161 Eh     change       -0.2676720E-04 Eh
 * total energy  :  -158.0820426 Eh     change       -0.2650469E-04 Eh
 * total energy  :  -158.0820850 Eh     change       -0.4242941E-04 Eh
 * total energy  :  -158.0821466 Eh     change       -0.6159377E-04 Eh
 * total energy  :  -158.0821853 Eh     change       -0.3864932E-04 Eh
 * total energy  :  -158.0822140 Eh     change       -0.2873669E-04 Eh
 * total energy  :  -158.0822355 Eh     change       -0.2154436E-04 Eh
 * total energy  :  -158.0823412 Eh     change       -0.8219439E-06 Eh
 * total energy  :  -158.0823417 Eh     change       -0.5186810E-06 Eh
 * total energy  :  -158.0823420 Eh     change       -0.2305638E-06 Eh
 * total energy  :  -158.0823421 Eh     change       -0.1800469E-06 Eh
 * total energy  :  -158.0823423 Eh     change       -0.1641643E-06 Eh
 * total energy  :  -158.0823424 Eh     change       -0.1187712E-06 Eh
 * total energy  :  -158.0823425 Eh     change       -0.1158603E-06 Eh
 * total energy  :  -158.0823426 Eh     change       -0.1098950E-06 Eh
 * total energy  :  -158.0823427 Eh     change       -0.8066223E-07 Eh
   *** GEOMETRY OPTIMIZATION CONVERGED AFTER 42 ITERATIONS ***

 final structure:
================
99
 xtb: 6.7.1 (edcfbbe)
C            7.19401783985355       -4.79827287795439        0.36842010864105
C            5.80921164656814       -4.80725067353366        0.28300626096584
C            5.11166129199069       -3.61905396046446        0.19559072803699
C            5.79481815693351       -2.40209647349499        0.19147884500089
C            5.06104380769690       -1.14250466780720        0.09345925232840
N            5.77413256392242       -0.00394676884852       -0.01127329254257
C            5.06231291826834        1.13567212414092       -0.11405659688107
C            5.79757923155676        2.39422218981887       -0.21349929565087
C            7.18996771094995        2.39116263878536       -0.29985601159226
C            7.88375675112217        3.58233985824450       -0.38910071103296
C            7.19981291679451        4.78853796299121       -0.39185362187329
C            5.81506948980202        4.79934473208899       -0.30555048456265
C            5.11602030855434        3.61209012865458       -0.21739735363469
N            3.75423053226222        1.17164998158765       -0.12877190142359
C            3.08271341127923       -0.00203907834207       -0.00732602727035
C            1.66616752969885       -0.00109765254310       -0.00430010784787
C            0.93875696024177        1.19161890922432       -0.20985258918304
C           -0.43682590193870        1.19498054450106       -0.21108136984965
N           -1.12398159756175        2.40184594099093       -0.43248838608189
C           -2.11859224458509        2.61943259854439       -1.36283840976004
C           -2.54713383950230        1.80463255570839       -2.40140745311069
C           -3.57272480730105        2.26779936441788       -3.20409690982122
C           -4.14666352645475        3.51915228905672       -2.99591637143574
C           -3.68718319715231        4.35728266420540       -1.99531456194850
C           -2.65970029220799        3.91277607027604       -1.17703871121057
C           -1.92799051551402        4.50724500893850       -0.09016815463195
C           -1.99567278235125        5.73589345373411        0.54973725567018
C           -1.12433439306825        5.98753733832122        1.59451832501867
C           -0.20127856967461        5.02914265049993        2.00718935877933
C           -0.11739374723990        3.79627575503152        1.38736802432616
C           -0.98088211627029        3.54365657793242        0.32905263567607
C           -1.16415280316310        0.00050608459708        0.00275235520386
N           -2.56616900154123        0.00113370628366        0.00626506789140
C           -3.37113036861231        0.76669533117684        0.82444914795762
C           -3.01530134566882        1.64100827788671        1.84265704865422
C           -4.02968555068094        2.28375036302188        2.52605144260055
C           -5.36860267578748        2.05125007168990        2.22096887930275
C           -5.72957571982576        1.14968600309434        1.23557618934415
C           -4.72814566716057        0.49636063172320        0.53339294092733
C           -4.73107848150773       -0.49313326099596       -0.50966305526396
C           -5.73642272478746       -1.14602502927379       -1.20664927321547
C           -5.38096167116710       -2.04773619535598       -2.19391347891771
C           -4.04374157118998       -2.28082687827532       -2.50591107812344
C           -3.02556259111078       -1.63849876002085       -1.82779885663256
C           -3.37571873879243       -0.76405473629374       -0.80774610030088
C           -0.43710545218187       -1.19477593888479        0.21292692953109
N           -1.12445885092170       -2.40086009150019        0.43798313103963
C           -0.98673527522900       -3.54282688381976       -0.32426378132284
C           -0.12972457010115       -3.79611910840588       -1.38767464618447
C           -0.21846044325442       -5.02879471677776       -2.00718654849823
C           -1.13998144386358       -5.98635895776121       -1.58918950790388
C           -2.00476917334939       -5.73411149557572       -0.53912046160484
C           -1.93216434911639       -4.50561655938705        0.10054043845172
C           -2.65693165092027       -3.91051345397908        1.19172068261024
C           -3.67976648391950       -4.35417047490227        2.01626132513799
C           -4.13277256185857       -3.51549046537492        3.01935644633289
C           -3.55688843471464       -2.26441169440695        3.22375989380438
C           -2.53578876238426       -1.80211284035533        2.41487266742547
C           -2.11382294882059       -2.61751577447151        1.37409526724865
C            0.93842875624452       -1.19300077452817        0.20475121506451
N            3.75297131244608       -1.17678312466026        0.11182911271672
C            7.18725756945387       -2.40087381784370        0.27677123519203
C            7.87954644181760       -3.59297992560272        0.36535125435876
H            7.73729342720897       -5.72913220318100        0.43660697889687
H            5.27370141153280       -5.74546793157555        0.28443472946154
H            4.03437186594508       -3.61031563750447        0.12674515875343
H            7.70704100461904        1.44373196702693       -0.29750608501079
H            8.96189535725813        3.57213293260644       -0.45671484012991
H            7.74426492270650        5.71867410713100       -0.46051261620084
H            5.28079310599221        5.73826563340568       -0.30679355671114
H            4.03877163004046        3.60477180158631       -0.14776921081185
H            1.48421134984188        2.10153222300008       -0.40171324671652
H           -2.08695160963932        0.84718747709111       -2.58874596877421
H           -3.93087038987691        1.64584048148589       -4.01078179935966
H           -4.95007769571350        3.84489880075672       -3.63938646325263
H           -4.11359722612821        5.33879751456451       -1.85565082307198
H           -2.71576883983248        6.47685072650176        0.23822436785514
H           -1.15906937396137        6.93909433890359        2.10351924889108
H            0.46268726861373        5.25190944870269        2.82927251326757
H            0.59561765339609        3.05483560262645        1.71681201303846
H           -1.98168194822414        1.80946637007649        2.10460095288532
H           -3.77528016739004        2.97701237512628        3.31394245235816
H           -6.13400663730000        2.57462575363123        2.77412165723287
H           -6.76831000202299        0.95328717644673        1.01817941221754
H           -6.77393282037589       -0.94919481290758       -0.98385362869927
H           -6.14944057041482       -2.57078194739104       -2.74310073132874
H           -3.79366102362677       -2.97425244241306       -3.29504077437401
H           -1.99340441197874       -1.80740601566889       -2.09511724586219
H            0.58203835949351       -3.05529913203744       -1.72118811536230
H            0.44045556439275       -5.25208380953457       -2.83317454193808
H           -1.17868408243119       -6.93778178453944       -2.09815449562654
H           -2.72363560851390       -6.47448685484181       -0.22340608213085
H           -4.10766271098561       -5.33543401973368        1.87938665710614
H           -4.93255447529252       -3.84058718064467        3.66766615026630
H           -3.90988662913817       -1.64198308775601        4.03235101154620
H           -2.07391346311201       -0.84489781379510        2.59919373850648
H            1.48380072410193       -2.10353253500761        0.39388072571881
H            7.70557941429502       -1.45412631630577        0.27423983685306
H            8.95774190932446       -3.58418929516062        0.43225258397324

          :  Hamiltonian                  GFN2-xTB          :
         :: gradient norm              0.000065660169 Eh/a0 ::
         :: HOMO-LUMO gap              0.274527498164 eV    ::
         :: SCC energy              -161.001848908887 Eh    ::
         :: -> dispersion             -0.162207965562 Eh    ::
         :: -> Gsolv                  -0.067192125938 Eh    ::
         :: repulsion energy           2.919506236579 Eh    ::

    * Orbital Energies and Occupations

         #    Occupation            Energy/Eh            Energy/eV
      -------------------------------------------------------------
         1        2.0000           -0.6892731             -18.7561
       ...           ...                  ...                  ...
       136        2.0000           -0.4114115             -11.1951
       137        2.0000           -0.4098143             -11.1516
       138        2.0000           -0.4060734             -11.0498
       139        2.0000           -0.4044848             -11.0066
       140        2.0000           -0.3904489             -10.6247
       141        2.0000           -0.3886663             -10.5761
       142        2.0000           -0.3863698             -10.5137
       143        1.9714           -0.3754053             -10.2153
       144        1.9091           -0.3742440             -10.1837
       145        1.8274           -0.3735449             -10.1647
       146        1.6666           -0.3727142             -10.1421
       147        1.6256           -0.3725437             -10.1374
       148        0.9951           -0.2909949              -7.9184 (HOMO)
       149        0.0049           -0.2809055              -7.6438 (LUMO)
       150                         -0.2554294              -6.9506
       151                         -0.2552909              -6.9468
       152                         -0.2539246              -6.9096
       153                         -0.2476149              -6.7379
       154                         -0.2410855              -6.5603
       155                         -0.2358895              -6.4189
       156                         -0.2322521              -6.3199
       157                         -0.2285147              -6.2182
       158                         -0.2285023              -6.2179
       159                         -0.2283086              -6.2126
       ...                                ...                  ...
       288                          0.7372656              20.0620
      -------------------------------------------------------------
                  HL-Gap            0.0100895 Eh            0.2745 eV

     #   Z          covCN         q      C6AA      α(0)
     1   6 C        2.920    -0.028    28.695     8.784
     2   6 C        2.918    -0.030    28.738     8.791
     3   6 C        2.923    -0.030    28.741     8.792
     4   6 C        2.983    -0.009    28.233     8.716
     5   6 C        2.936     0.210    23.569     7.962
     6   7 N        1.843    -0.337    29.607     8.064
     7   6 C        2.936     0.210    23.570     7.962
     8   6 C        2.983    -0.009    28.233     8.716
     9   6 C        2.924    -0.029    28.727     8.789
    10   6 C        2.918    -0.029    28.733     8.790
    11   6 C        2.920    -0.028    28.695     8.784
    12   6 C        2.918    -0.030    28.738     8.791
    13   6 C        2.923    -0.030    28.742     8.792
    14   7 N        1.845    -0.302    28.665     7.935
    15   6 C        2.941     0.169    24.365     8.096
    16   6 C        2.975    -0.020    28.497     8.756
    17   6 C        2.923    -0.057    29.424     8.895
    18   6 C        2.906     0.049    26.910     8.506
    19   7 N        2.803    -0.032    21.861     6.944
    20   6 C        3.075     0.049    26.822     8.491
    21   6 C        2.910    -0.046    29.134     8.851
    22   6 C        2.923    -0.032    28.798     8.800
    23   6 C        2.920    -0.036    28.893     8.815
    24   6 C        2.912    -0.031    28.767     8.795
    25   6 C        3.067    -0.015    28.319     8.726
    26   6 C        3.067    -0.013    28.280     8.720
    27   6 C        2.912    -0.030    28.756     8.793
    28   6 C        2.920    -0.036    28.884     8.813
    29   6 C        2.923    -0.032    28.793     8.800
    30   6 C        2.909    -0.046    29.135     8.851
    31   6 C        3.076     0.050    26.801     8.488
    32   6 C        2.910     0.016    27.660     8.624
    33   7 N        2.799    -0.029    21.799     6.934
    34   6 C        3.077     0.049    26.819     8.490
    35   6 C        2.910    -0.045    29.117     8.848
    36   6 C        2.923    -0.032    28.805     8.801
    37   6 C        2.920    -0.036    28.888     8.814
    38   6 C        2.912    -0.030    28.760     8.794
    39   6 C        3.067    -0.015    28.318     8.726
    40   6 C        3.067    -0.015    28.318     8.726
    41   6 C        2.912    -0.030    28.760     8.794
    42   6 C        2.920    -0.036    28.888     8.814
    43   6 C        2.923    -0.032    28.805     8.801
    44   6 C        2.910    -0.045    29.117     8.848
    45   6 C        3.078     0.049    26.819     8.490
    46   6 C        2.906     0.049    26.911     8.506
    47   7 N        2.803    -0.032    21.861     6.944
    48   6 C        3.076     0.050    26.800     8.488
    49   6 C        2.909    -0.046    29.135     8.851
    50   6 C        2.923    -0.032    28.793     8.800
    51   6 C        2.920    -0.036    28.884     8.813
    52   6 C        2.912    -0.030    28.756     8.793
    53   6 C        3.067    -0.013    28.280     8.720
    54   6 C        3.067    -0.015    28.319     8.726
    55   6 C        2.912    -0.031    28.767     8.795
    56   6 C        2.920    -0.036    28.893     8.815
    57   6 C        2.923    -0.032    28.798     8.800
    58   6 C        2.910    -0.046    29.134     8.851
    59   6 C        3.075     0.049    26.822     8.491
    60   6 C        2.924    -0.057    29.424     8.895
    61   7 N        1.845    -0.302    28.667     7.935
    62   6 C        2.924    -0.029    28.727     8.789
    63   6 C        2.918    -0.029    28.733     8.790
    64   1 H        0.926     0.044     2.399     2.422
    65   1 H        0.926     0.042     2.420     2.433
    66   1 H        0.926     0.042     2.421     2.433
    67   1 H        0.926     0.043     2.404     2.424
    68   1 H        0.926     0.042     2.427     2.436
    69   1 H        0.926     0.044     2.400     2.422
    70   1 H        0.926     0.042     2.420     2.433
    71   1 H        0.926     0.042     2.422     2.433
    72   1 H        0.926     0.050     2.316     2.380
    73   1 H        0.926     0.030     2.587     2.515
    74   1 H        0.926     0.038     2.475     2.460
    75   1 H        0.926     0.040     2.445     2.445
    76   1 H        0.926     0.043     2.412     2.429
    77   1 H        0.926     0.043     2.410     2.428
    78   1 H        0.926     0.041     2.442     2.444
    79   1 H        0.926     0.039     2.467     2.456
    80   1 H        0.926     0.031     2.568     2.506
    81   1 H        0.926     0.027     2.633     2.538
    82   1 H        0.926     0.038     2.481     2.463
    83   1 H        0.926     0.040     2.448     2.446
    84   1 H        0.926     0.042     2.421     2.433
    85   1 H        0.926     0.042     2.421     2.433
    86   1 H        0.926     0.040     2.448     2.446
    87   1 H        0.926     0.038     2.481     2.463
    88   1 H        0.926     0.027     2.633     2.538
    89   1 H        0.926     0.031     2.568     2.506
    90   1 H        0.926     0.039     2.467     2.456
    91   1 H        0.926     0.041     2.442     2.444
    92   1 H        0.926     0.043     2.410     2.428
    93   1 H        0.926     0.043     2.412     2.429
    94   1 H        0.926     0.040     2.445     2.445
    95   1 H        0.926     0.038     2.475     2.460
    96   1 H        0.926     0.030     2.588     2.516
    97   1 H        0.926     0.050     2.316     2.380
    98   1 H        0.926     0.043     2.404     2.424
    99   1 H        0.926     0.042     2.427     2.436

molecular dipole:
                 x           y           z       tot (Debye)
 q only:       -2.637       0.001       0.007
   full:       -2.339       0.001       0.006       5.946

 projected vibrational frequencies (cm⁻¹)
eigval :       -0.00    -0.00    -0.00     0.00     0.00     0.00
eigval :       13.81    13.85    17.92    21.23    22.01    22.93
eigval :       25.48    39.71    43.18    43.84    46.75    53.76
eigval :       55.25    59.68    68.65    93.94   100.55   104.74
eigval :      106.54   108.17   120.07   120.98   122.89   140.04
eigval :      147.12   147.96   163.34   171.77   179.19   181.96
eigval :      191.94   212.68   213.74   229.89   232.25   247.68
eigval :      254.01   266.06   270.21   271.29   276.78   290.63
eigval :      320.58   349.23   354.38   366.43   369.02   369.76
eigval :      373.44   388.34   394.93   398.23   405.20   412.86
eigval :      414.15   420.39   420.58   421.46   432.62   434.45
eigval :      434.60   463.29   485.57   494.90   497.36   514.94
eigval :      515.99   516.21   537.10   537.47   537.59   540.75
eigval :      544.18   545.95   552.36   560.31   567.56   570.82
eigval :      585.53   586.53   587.52   588.43   589.16   609.67
eigval :      611.21   619.48   627.51   639.12   643.84   660.27
eigval :      664.18   668.36   671.28   672.54   674.43   681.27
eigval :      697.03   703.76   706.98   707.21   709.97   747.24
eigval :      753.84   755.17   765.90   766.38   766.50   768.86
eigval :      770.00   770.78   779.65   779.85   780.31   808.84
eigval :      821.98   839.79   856.87   871.09   871.45   871.85
eigval :      872.90   873.99   874.70   875.50   875.99   879.38
eigval :      892.12   894.07   897.72   902.36   902.81   903.09
eigval :      903.89   904.07   904.39   904.80   905.69   918.98
eigval :      922.56   922.66   923.07   923.95   925.80   926.26
eigval :      927.36   928.80   930.26   930.50   939.63   976.70
eigval :      985.54   989.52  1008.53  1010.29  1011.46  1038.53
eigval :     1062.49  1066.37  1066.85  1068.29  1069.44  1069.69
eigval :     1071.91  1073.87  1075.23  1094.00  1108.01  1109.82
eigval :     1118.11  1137.54  1140.93  1142.93  1143.01  1146.57
eigval :     1159.12  1170.31  1174.69  1175.19  1176.46  1176.59
eigval :     1176.92  1177.01  1177.49  1181.30  1181.61  1183.96
eigval :     1186.35  1198.56  1225.38  1228.30  1229.47  1231.93
eigval :     1235.41  1236.85  1264.30  1266.59  1272.91  1275.00
eigval :     1283.18  1287.06  1287.41  1288.10  1291.59  1293.14
eigval :     1302.08  1323.85  1328.46  1329.01  1339.86  1341.56
eigval :     1342.42  1344.85  1346.15  1357.97  1360.27  1361.78
eigval :     1384.67  1397.87  1409.20  1411.55  1412.61  1414.46
eigval :     1416.10  1424.48  1426.42  1432.15  1437.20  1441.69
eigval :     1455.63  1461.91  1462.20  1464.88  1467.66  1474.14
eigval :     1481.68  1481.73  1482.78  1491.47  1537.78  1563.68
eigval :     1564.77  1564.99  1573.30  1574.29  1578.32  1579.74
eigval :     1580.41  1581.21  1581.95  1583.15  1585.17  1592.14
eigval :     1597.46  1598.79  1606.04  3073.26  3073.34  3076.55
eigval :     3076.71  3077.19  3077.23  3079.03  3079.21  3080.78
eigval :     3080.81  3082.32  3082.41  3084.29  3084.80  3086.85
eigval :     3086.88  3087.37  3087.63  3089.64  3089.87  3091.07
eigval :     3091.82  3094.45  3094.65  3095.00  3095.08  3097.13
eigval :     3097.18  3097.57  3097.91  3098.32  3098.73  3100.92
eigval :     3101.50  3109.71  3111.11

   temp. (K)  partition function   enthalpy   heat capacity  entropy
                                   cal/mol     cal/K/mol   cal/K/mol   J/K/mol
 298.15  VIB  0.317E+23            28967.776    183.254    179.579
         ROT  0.679E+08              888.752      2.981     38.817
         INT  0.215E+31            29856.528    186.235    218.396
         TR   0.221E+29             1481.254      4.968     45.914
         TOT                       31337.7824   191.2030   264.3104  1105.8746

       T/K    H(0)-H(T)+PV         H(T)/Eh          T*S/Eh         G(T)/Eh
   ------------------------------------------------------------------------
    298.15    0.499399E-01    0.796396E+00    0.125582E+00    0.670814E+00
   ------------------------------------------------------------------------

         :::::::::::::::::::::::::::::::::::::::::::::::::::::
         ::                  THERMODYNAMIC                  ::
         :::::::::::::::::::::::::::::::::::::::::::::::::::::
         :: total free energy        -157.411528844247 Eh   ::
         ::.................................................::
         :: total energy             -158.082342729074 Eh   ::
         :: zero point energy           0.746456336094 Eh   ::
         :: G(RRHO) w/o ZPVE           -0.075642451267 Eh   ::
         :: G(RRHO) contrib.            0.670813884826 Eh   ::
         :::::::::::::::::::::::::::::::::::::::::::::::::::::

           -------------------------------------------------
          | TOTAL ENERGY             -158.082342729074 Eh   |
          | TOTAL ENTHALPY           -157.285946457984 Eh   |
          | TOTAL FREE ENERGY        -157.411528844247 Eh   |
          | GRADIENT NORM               0.000046309928 Eh/α |
          | HOMO-LUMO GAP               0.274548442155 eV   |
           -------------------------------------------------

 * finished run on 2025/07/16 at 17:11:49.930
