   * xtb version 6.7.1 (edcfbbe) compiled by 'albert@albert-system' on 2024-07-22

   ID    Z sym.   atoms
    1    6 C      1-5, 7-13, 15-18, 20-32, 34-46, 48-60, 62, 63
    2    7 N      6, 14, 19, 33, 47, 61
    3    1 H      64-99

          program call               : xtb data2507/toluene/TCzTrz/TCzTrz.xyz --gfn 2 --gbsa toluene --ohess vtight --parallel 40 --molden --ceasefiles --namespace data2507/toluene/TCzTrz/TCzTrz_toluene_S0_preOpt
      * Solvation model:               GBSA
        Solvent                        toluene
        Solvent mass                       9.2140E+01 g/mol
          :  Hamiltonian                  GFN2-xTB          :
 * total energy  :  -158.1286980 Eh     change       -0.2233264E-08 Eh
 * total energy  :  -158.1478391 Eh     change       -0.1914104E-01 Eh
 * total energy  :  -158.1534450 Eh     change       -0.5605942E-02 Eh
 * total energy  :  -158.1554566 Eh     change       -0.2011601E-02 Eh
 * total energy  :  -158.1566702 Eh     change       -0.1213543E-02 Eh
 * total energy  :  -158.1570721 Eh     change       -0.4019766E-03 Eh
 * total energy  :  -158.1572613 Eh     change       -0.1891336E-03 Eh
 * total energy  :  -158.1574192 Eh     change       -0.1578926E-03 Eh
 * total energy  :  -158.1575593 Eh     change       -0.1401769E-03 Eh
 * total energy  :  -158.1577058 Eh     change       -0.1464680E-03 Eh
 * total energy  :  -158.1593155 Eh     change       -0.2312598E-05 Eh
 * total energy  :  -158.1593167 Eh     change       -0.1215334E-05 Eh
 * total energy  :  -158.1593173 Eh     change       -0.6745057E-06 Eh
 * total energy  :  -158.1593180 Eh     change       -0.6849812E-06 Eh
 * total energy  :  -158.1593191 Eh     change       -0.1044678E-05 Eh
 * total energy  :  -158.1593202 Eh     change       -0.1140662E-05 Eh
 * total energy  :  -158.1593210 Eh     change       -0.7778575E-06 Eh
 * total energy  :  -158.1593214 Eh     change       -0.4131093E-06 Eh
 * total energy  :  -158.1593215 Eh     change       -0.7908392E-07 Eh
   *** GEOMETRY OPTIMIZATION CONVERGED AFTER 37 ITERATIONS ***

 final structure:
================
99
 xtb: 6.7.1 (edcfbbe)
C            7.20259246047981       -4.80227175399888        0.07908801673689
C            5.81873560813713       -4.79904978970606       -0.01181521479536
C            5.12844633431721       -3.60251753839108       -0.02928139524750
C            5.82165394139797       -2.39417395922664        0.04258774065469
C            5.09337335111326       -1.12673054544764        0.02349823323651
N            5.79577567065280        0.00313827815258        0.00444003727408
C            5.09234144384170        1.13235904298306       -0.01525917903111
C            5.81949414424551        2.40045205884084       -0.03430069802715
C            7.21123853757835        2.41152101526985       -0.12289689547073
C            7.89434040556812        3.61224578344652       -0.14178126321133
C            7.19832296168239        4.80975245875444       -0.07112508554934
C            5.81437267852204        4.80536437949440        0.01816316931933
C            5.12512854080001        3.60823108807521        0.03581519920098
N            3.76073524294944        1.17761341599949       -0.01760105738532
C            3.14210099557945        0.00191116819018        0.00310343974657
C            1.67913729509974        0.00117701098285        0.00219133679043
C            0.97946772858683        1.17810732692605       -0.23820695124253
C           -0.40747806841908        1.18830189990532       -0.24253344000483
N           -1.07830938148918        2.39138559525745       -0.49268956346637
C           -2.09239000844363        2.59747097407341       -1.41054334843060
C           -2.55264971819634        1.76220510250970       -2.41653812652753
C           -3.58159976501330        2.22170304172360       -3.21676957534273
C           -4.12708573796287        3.49055491952477       -3.03921153759042
C           -3.63462832132091        4.34698799771317       -2.07394699769715
C           -2.60251563686579        3.90549997572611       -1.25692018781544
C           -1.84182730150838        4.52146479849338       -0.20441392114425
C           -1.87852516260342        5.77438777971641        0.39358667847901
C           -0.98899469603554        6.04764311868323        1.41421416022734
C           -0.07837981841131        5.08680052136098        1.84737877760084
C           -0.02523210510743        3.83177397251633        1.26947627447235
C           -0.90484848283147        3.55907221762407        0.23217600223624
C           -1.12334050756635       -0.00041439036009       -0.00053520107568
N           -2.51971806540512       -0.00139338231281       -0.00229690603332
C           -3.33289765475427        0.80557635479509        0.77544905668177
C           -2.98603590181893        1.71907319130819        1.75858094386019
C           -4.00671687933412        2.38655107714335        2.40915368993423
C           -5.34276521777736        2.13690737895742        2.10821278466876
C           -5.69360300181839        1.19326120082361        1.16231672408539
C           -4.68456477780872        0.51515500625713        0.49247212822951
C           -4.68237883497844       -0.52152152042346       -0.50287926090858
C           -5.68847782004237       -1.20128708802647       -1.17546296167255
C           -5.33351620464683       -2.14431567049690       -2.12043599567989
C           -3.99624934717662       -2.39169558406157       -2.41782647700241
C           -2.97844081000170       -1.72252275665892       -1.76449889122888
C           -3.32948285766741       -0.80968985977849       -0.78223335930138
C           -0.40658321348696       -1.18826862471166        0.24311081598093
N           -1.07660160401708       -2.39198136734512        0.49237396866628
C           -0.90023104664071       -3.55996173186881       -0.23130448274991
C           -0.01810071264434       -3.83236592852005       -1.26654629474685
C           -0.06836675605657       -5.08795244105111       -1.84348791133854
C           -0.97860830316004       -6.04963905479296       -1.41141376742093
C           -1.87070209689740       -5.77667003487517       -0.39294961407220
C           -1.83691183833500       -4.52319737494460        0.20406801972488
C           -2.60047572422103       -3.90743826901880        1.25460936986201
C           -3.63366507368008       -4.34963087965484        2.06989119371638
C           -4.12898438426055       -3.49319234679962        3.03368706533422
C           -3.58531978870409       -2.22360383756768        3.21154106842233
C           -2.55535784915830       -1.76339132422463        2.41302565725392
C           -2.09222572269809       -2.59870060509764        1.40838557272122
C            0.98035235398127       -1.17651034556489        0.24148376930229
N            3.76181095536592       -1.17321210938602        0.02454004550477
C            7.21330952973897       -2.40406853015363        0.13272975583711
C            7.89745709045998       -3.60420046478883        0.15150171429300
H            7.73980055418021       -5.73893337743291        0.09293527505474
H            5.27752392472119       -5.73179003086197       -0.06878005631954
H            4.05208356010948       -3.58243022103923       -0.10090533498088
H            7.73555827472317        1.47036173803109       -0.17909501415551
H            8.97190388187891        3.61649494868341       -0.21203093199985
H            7.73470237807319        5.74688275087754       -0.08537994567857
H            5.27227130699729        5.73767174399167        0.07387063559187
H            4.04870865603363        3.58724343385835        0.10651763267068
H            1.52625702067357        2.08242160469854       -0.45173791000424
H           -2.11847879371307        0.78860024173595       -2.58350849486268
H           -3.96523010471764        1.58192154343400       -3.99773455672859
H           -4.93400230513180        3.81232308489092       -3.68057364284446
H           -4.03622039121367        5.34216094798475       -1.95794103911229
H           -2.59181835841394        6.51515278964371        0.06583634708502
H           -0.99935185679462        7.01672101185296        1.89052648948779
H            0.59967319300633        5.32418483769464        2.65403478725181
H            0.67604905187503        3.08932987310186        1.62214977946207
H           -1.95552287710314        1.90339071253919        2.02267568015063
H           -3.75782647062201        3.11356300488648        3.16810358941365
H           -6.11280583467024        2.68002945636528        2.63555264694309
H           -6.72993854038918        0.97968904479625        0.94914180347762
H           -6.72574044099701       -0.98950381788479       -0.96502747975815
H           -6.10122840865458       -2.68868474277841       -2.64988673254241
H           -3.74412318667190       -3.11812400189735       -3.17627329663704
H           -1.94690475738525       -1.90500383163062       -2.02587247821056
H            0.68289976641362       -3.08927196371799       -1.61840654902706
H            0.61166709229393       -5.32511858289874       -2.64853993244653
H           -0.98661877273945       -7.01916568072347       -1.88685922397847
H           -2.58364941928185       -6.51813263770847       -0.06602897551574
H           -4.03391371081907       -5.34532177943820        1.95367963156567
H           -4.93681033653397       -3.81548761635745        3.67364357157106
H           -3.97118682306013       -1.58381458117925        3.99139555645572
H           -2.12256801071475       -0.78922713899650        2.58031328470478
H            1.52776524553179       -2.08018339625370        0.45613263839886
H            7.73672871041521       -1.46248554629615        0.19020155025979
H            8.97494971154253       -3.60754686394033        0.22272184641114

          :  Hamiltonian                  GFN2-xTB          :
         :: gradient norm              0.000148709687 Eh/a0 ::
         :: HOMO-LUMO gap              1.877727431500 eV    ::
         :: SCC energy              -161.089114629563 Eh    ::
         :: -> dispersion             -0.162934546236 Eh    ::
         :: -> Gsolv                  -0.065029198370 Eh    ::
         :: repulsion energy           2.929793143905 Eh    ::

    * Orbital Energies and Occupations

         #    Occupation            Energy/Eh            Energy/eV
      -------------------------------------------------------------
         1        2.0000           -0.6982750             -19.0010
       ...           ...                  ...                  ...
       135        2.0000           -0.4163933             -11.3306
       136        2.0000           -0.4158595             -11.3161
       137        2.0000           -0.4105033             -11.1704
       138        2.0000           -0.4095377             -11.1441
       139        2.0000           -0.4092830             -11.1372
       140        2.0000           -0.3872110             -10.5365
       141        2.0000           -0.3861617             -10.5080
       142        2.0000           -0.3860153             -10.5040
       143        2.0000           -0.3840008             -10.4492
       144        2.0000           -0.3820095             -10.3950
       145        2.0000           -0.3732991             -10.1580
       146        2.0000           -0.3715161             -10.1095
       147        2.0000           -0.3707577             -10.0888 (HOMO)
       148                         -0.3017524              -8.2111 (LUMO)
       149                         -0.2980011              -8.1090
       150                         -0.2602308              -7.0812
       151                         -0.2587960              -7.0422
       152                         -0.2501591              -6.8072
       153                         -0.2493983              -6.7865
       154                         -0.2478794              -6.7451
       155                         -0.2360970              -6.4245
       156                         -0.2360958              -6.4245
       157                         -0.2310406              -6.2869
       158                         -0.2271712              -6.1816
       ...                                ...                  ...
       288                          0.7413677              20.1736
      -------------------------------------------------------------
                  HL-Gap            0.0690053 Eh            1.8777 eV

     #   Z          covCN         q      C6AA      α(0)
     1   6 C        2.920    -0.021    28.533     8.760
     2   6 C        2.918    -0.027    28.669     8.780
     3   6 C        2.923    -0.025    28.638     8.776
     4   6 C        2.983    -0.010    28.256     8.719
     5   6 C        2.980     0.216    23.438     7.941
     6   7 N        1.843    -0.318    29.087     7.993
     7   6 C        2.980     0.216    23.438     7.941
     8   6 C        2.983    -0.010    28.256     8.719
     9   6 C        2.923    -0.025    28.636     8.776
    10   6 C        2.918    -0.027    28.665     8.780
    11   6 C        2.920    -0.021    28.533     8.760
    12   6 C        2.918    -0.027    28.669     8.780
    13   6 C        2.923    -0.025    28.638     8.776
    14   7 N        1.844    -0.322    29.196     8.008
    15   6 C        2.985     0.218    23.402     7.935
    16   6 C        2.981    -0.010    28.262     8.720
    17   6 C        2.927    -0.047    29.175     8.858
    18   6 C        2.910     0.055    26.762     8.483
    19   7 N        2.802    -0.049    22.181     6.995
    20   6 C        3.071     0.049    26.836     8.494
    21   6 C        2.910    -0.050    29.253     8.869
    22   6 C        2.924    -0.033    28.833     8.806
    23   6 C        2.920    -0.040    29.002     8.831
    24   6 C        2.913    -0.034    28.839     8.806
    25   6 C        3.067    -0.017    28.370     8.734
    26   6 C        3.067    -0.016    28.335     8.729
    27   6 C        2.913    -0.033    28.818     8.803
    28   6 C        2.920    -0.041    29.007     8.832
    29   6 C        2.924    -0.034    28.840     8.807
    30   6 C        2.910    -0.052    29.287     8.874
    31   6 C        3.073     0.048    26.848     8.496
    32   6 C        2.912     0.048    26.921     8.508
    33   7 N        2.801    -0.044    22.094     6.981
    34   6 C        3.072     0.051    26.776     8.484
    35   6 C        2.910    -0.049    29.223     8.864
    36   6 C        2.924    -0.033    28.828     8.805
    37   6 C        2.920    -0.040    28.985     8.829
    38   6 C        2.913    -0.033    28.820     8.803
    39   6 C        3.068    -0.016    28.348     8.730
    40   6 C        3.068    -0.016    28.348     8.730
    41   6 C        2.913    -0.033    28.820     8.803
    42   6 C        2.920    -0.040    28.985     8.829
    43   6 C        2.924    -0.033    28.828     8.805
    44   6 C        2.910    -0.049    29.223     8.864
    45   6 C        3.072     0.051    26.776     8.484
    46   6 C        2.910     0.055    26.762     8.483
    47   7 N        2.802    -0.049    22.181     6.995
    48   6 C        3.073     0.048    26.848     8.496
    49   6 C        2.910    -0.052    29.287     8.874
    50   6 C        2.924    -0.034    28.840     8.807
    51   6 C        2.920    -0.041    29.007     8.832
    52   6 C        2.913    -0.033    28.818     8.803
    53   6 C        3.067    -0.016    28.335     8.729
    54   6 C        3.067    -0.017    28.370     8.734
    55   6 C        2.913    -0.034    28.839     8.806
    56   6 C        2.920    -0.040    29.002     8.831
    57   6 C        2.924    -0.033    28.833     8.806
    58   6 C        2.910    -0.050    29.253     8.869
    59   6 C        3.071     0.049    26.836     8.494
    60   6 C        2.927    -0.047    29.175     8.858
    61   7 N        1.844    -0.322    29.196     8.008
    62   6 C        2.923    -0.025    28.636     8.776
    63   6 C        2.918    -0.027    28.665     8.780
    64   1 H        0.926     0.052     2.298     2.371
    65   1 H        0.926     0.049     2.334     2.389
    66   1 H        0.926     0.050     2.324     2.384
    67   1 H        0.926     0.052     2.296     2.370
    68   1 H        0.926     0.049     2.326     2.385
    69   1 H        0.926     0.052     2.298     2.371
    70   1 H        0.926     0.049     2.334     2.389
    71   1 H        0.926     0.050     2.324     2.384
    72   1 H        0.926     0.067     2.120     2.277
    73   1 H        0.926     0.022     2.705     2.572
    74   1 H        0.926     0.033     2.543     2.494
    75   1 H        0.926     0.035     2.517     2.481
    76   1 H        0.926     0.038     2.477     2.461
    77   1 H        0.926     0.038     2.479     2.462
    78   1 H        0.926     0.035     2.512     2.478
    79   1 H        0.926     0.035     2.521     2.483
    80   1 H        0.926     0.024     2.674     2.557
    81   1 H        0.926     0.021     2.722     2.580
    82   1 H        0.926     0.034     2.527     2.486
    83   1 H        0.926     0.036     2.502     2.474
    84   1 H        0.926     0.038     2.472     2.459
    85   1 H        0.926     0.038     2.472     2.459
    86   1 H        0.926     0.036     2.502     2.474
    87   1 H        0.926     0.034     2.527     2.486
    88   1 H        0.926     0.021     2.722     2.580
    89   1 H        0.926     0.024     2.674     2.557
    90   1 H        0.926     0.035     2.521     2.483
    91   1 H        0.926     0.035     2.512     2.478
    92   1 H        0.926     0.038     2.479     2.462
    93   1 H        0.926     0.038     2.477     2.461
    94   1 H        0.926     0.035     2.517     2.481
    95   1 H        0.926     0.033     2.543     2.494
    96   1 H        0.926     0.022     2.705     2.572
    97   1 H        0.926     0.067     2.120     2.277
    98   1 H        0.926     0.052     2.297     2.370
    99   1 H        0.926     0.049     2.326     2.385

molecular dipole:
                 x           y           z       tot (Debye)
 q only:        0.561       0.000      -0.000
   full:        0.757       0.000      -0.000       1.923

 projected vibrational frequencies (cm⁻¹)
eigval :       -0.00    -0.00    -0.00     0.00     0.00     0.00
eigval :        7.88    15.21    20.33    22.96    23.47    23.70
eigval :       28.22    41.47    43.18    44.43    49.41    53.60
eigval :       56.72    61.22    70.72    90.24    92.63   104.77
eigval :      107.22   108.56   122.58   124.57   127.23   142.48
eigval :      151.23   152.58   164.81   175.85   181.83   185.75
eigval :      186.60   197.37   221.72   231.77   239.61   243.82
eigval :      261.54   268.97   274.16   274.89   279.46   296.73
eigval :      331.28   346.48   360.13   364.86   365.66   376.41
eigval :      386.69   399.11   399.47   407.23   407.89   414.62
eigval :      422.01   424.49   425.93   436.84   436.94   440.91
eigval :      442.72   481.23   497.81   507.79   509.68   518.32
eigval :      519.24   520.15   537.12   542.02   542.11   543.54
eigval :      543.93   546.02   557.45   575.68   586.94   586.99
eigval :      587.67   589.07   592.63   611.78   621.66   622.45
eigval :      629.56   636.82   647.46   648.08   655.39   671.93
eigval :      672.99   674.59   674.94   683.88   686.11   699.37
eigval :      706.34   707.00   708.41   729.91   749.60   752.93
eigval :      755.43   756.79   768.68   770.95   771.37   772.49
eigval :      775.99   782.52   782.73   783.07   796.64   846.63
eigval :      858.41   863.21   871.57   874.23   874.87   875.56
eigval :      876.03   876.76   879.02   880.80   889.59   895.28
eigval :      898.17   898.44   904.22   904.35   905.15   905.41
eigval :      906.51   906.63   911.12   912.44   923.06   923.21
eigval :      924.64   924.96   925.85   926.14   928.23   929.41
eigval :      930.22   933.43   933.65   957.34   989.15   997.53
eigval :     1010.60  1012.50  1013.72  1042.59  1050.61  1069.58
eigval :     1069.74  1071.37  1072.39  1073.56  1074.15  1074.98
eigval :     1075.24  1087.94  1101.93  1108.04  1111.39  1121.20
eigval :     1146.81  1149.31  1150.96  1152.47  1152.49  1165.53
eigval :     1172.83  1175.97  1176.92  1177.47  1178.03  1179.05
eigval :     1179.58  1180.63  1184.08  1184.69  1189.22  1201.20
eigval :     1208.15  1208.93  1231.15  1233.20  1233.73  1235.99
eigval :     1240.87  1251.93  1267.45  1268.63  1290.52  1294.56
eigval :     1297.05  1297.89  1298.47  1299.56  1309.22  1323.95
eigval :     1324.29  1328.02  1334.57  1355.18  1356.26  1357.25
eigval :     1358.71  1361.10  1362.09  1362.33  1368.08  1370.05
eigval :     1401.33  1414.11  1421.17  1426.28  1426.93  1427.68
eigval :     1427.85  1429.99  1433.90  1439.66  1462.58  1468.51
eigval :     1472.34  1474.06  1474.16  1477.01  1485.78  1486.07
eigval :     1486.42  1507.09  1511.60  1542.59  1562.58  1575.16
eigval :     1575.70  1577.57  1580.58  1582.55  1589.64  1590.14
eigval :     1591.85  1592.13  1592.76  1598.68  1598.92  1599.72
eigval :     1612.77  1612.92  1615.16  3071.99  3072.02  3076.29
eigval :     3076.48  3076.96  3076.97  3078.75  3078.82  3079.09
eigval :     3079.14  3081.83  3082.15  3083.16  3083.26  3083.67
eigval :     3083.83  3086.07  3086.15  3088.77  3089.50  3091.75
eigval :     3091.85  3092.78  3093.00  3095.26  3095.54  3095.92
eigval :     3098.06  3098.64  3098.86  3103.71  3104.15  3104.94
eigval :     3106.00  3115.92  3116.53

   temp. (K)  partition function   enthalpy   heat capacity  entropy
                                   cal/mol     cal/K/mol   cal/K/mol   J/K/mol
 298.15  VIB  0.204E+23            28594.629    180.961    177.782
         ROT  0.676E+08              888.752      2.981     38.810
         INT  0.138E+31            29483.382    183.942    216.591
         TR   0.221E+29             1481.254      4.968     45.914
         TOT                       30964.6356   188.9105   262.5052  1098.3218

       T/K    H(0)-H(T)+PV         H(T)/Eh          T*S/Eh         G(T)/Eh
   ------------------------------------------------------------------------
    298.15    0.493453E-01    0.801248E+00    0.124725E+00    0.676524E+00
   ------------------------------------------------------------------------

         :::::::::::::::::::::::::::::::::::::::::::::::::::::
         ::                  THERMODYNAMIC                  ::
         :::::::::::::::::::::::::::::::::::::::::::::::::::::
         :: total free energy        -157.482797748244 Eh   ::
         ::.................................................::
         :: total energy             -158.159321489199 Eh   ::
         :: zero point energy           0.751903152454 Eh   ::
         :: G(RRHO) w/o ZPVE           -0.075379411499 Eh   ::
         :: G(RRHO) contrib.            0.676523740955 Eh   ::
         :::::::::::::::::::::::::::::::::::::::::::::::::::::

           -------------------------------------------------
          | TOTAL ENERGY             -158.159321489199 Eh   |
          | TOTAL ENTHALPY           -157.358073048905 Eh   |
          | TOTAL FREE ENERGY        -157.482797748244 Eh   |
          | GRADIENT NORM               0.000148699391 Eh/α |
          | HOMO-LUMO GAP               1.877730857650 eV   |
           -------------------------------------------------

 * finished run on 2025/07/16 at 16:54:33.185
