   * xtb version 6.7.1 (edcfbbe) compiled by 'albert@albert-system' on 2024-07-22

   ID    Z sym.   atoms
    1    6 C      1-5, 7-13, 15-18, 20-32, 34-46, 48-60, 62, 63
    2    7 N      6, 14, 19, 33, 47, 61
    3    1 H      64-99

          program call               : xtb data2507/toluene/TCzTrz/TCzTrz_toluene_S0_crest.xyz --gfn 2 --gbsa toluene --ohess vtight --parallel 40 --molden --ceasefiles --namespace data2507/toluene/TCzTrz/TCzTrz_toluene_S0_finalOpt
      * Solvation model:               GBSA
        Solvent                        toluene
        Solvent mass                       9.2140E+01 g/mol
          :  Hamiltonian                  GFN2-xTB          :
 * total energy  :  -158.1590331 Eh     change       -0.1883564E-08 Eh
 * total energy  :  -158.1590952 Eh     change       -0.6205263E-04 Eh
 * total energy  :  -158.1591305 Eh     change       -0.3531667E-04 Eh
 * total energy  :  -158.1591499 Eh     change       -0.1944449E-04 Eh
 * total energy  :  -158.1591685 Eh     change       -0.1855818E-04 Eh
 * total energy  :  -158.1592122 Eh     change       -0.4375778E-04 Eh
 * total energy  :  -158.1592450 Eh     change       -0.3280531E-04 Eh
 * total energy  :  -158.1592701 Eh     change       -0.2503009E-04 Eh
 * total energy  :  -158.1592861 Eh     change       -0.1601992E-04 Eh
 * total energy  :  -158.1592956 Eh     change       -0.9455749E-05 Eh
 * total energy  :  -158.1593389 Eh     change       -0.4257193E-06 Eh
 * total energy  :  -158.1593393 Eh     change       -0.4050139E-06 Eh
 * total energy  :  -158.1593396 Eh     change       -0.3627515E-06 Eh
 * total energy  :  -158.1593400 Eh     change       -0.3080689E-06 Eh
 * total energy  :  -158.1593402 Eh     change       -0.2478722E-06 Eh
 * total energy  :  -158.1593404 Eh     change       -0.1859344E-06 Eh
 * total energy  :  -158.1593405 Eh     change       -0.1459496E-06 Eh
 * total energy  :  -158.1593406 Eh     change       -0.1154249E-06 Eh
 * total energy  :  -158.1593407 Eh     change       -0.9655486E-07 Eh
   *** GEOMETRY OPTIMIZATION CONVERGED AFTER 41 ITERATIONS ***

 final structure:
================
99
 xtb: 6.7.1 (edcfbbe)
C            7.16746305756097       -4.80319631002411        0.12697380152866
C            5.78354236827140       -4.80238895515796        0.03702511663164
C            5.09203038825037       -3.60683253747991        0.00485333610063
C            5.78419498633976       -2.39711144715428        0.06106521321547
C            5.05557516933381       -1.13023144427959        0.02535453518813
N            5.75848692903788       -0.00117624917611       -0.01170892568433
C            5.05586699728485        1.12813280840092       -0.04656419278940
C            5.78481340491279        2.39473440782709       -0.08521001436163
C            7.17639346641598        2.40168414991324       -0.17735307662014
C            7.86204134957147        3.60052838628927       -0.21350396101894
C            7.16870202793807        4.80031003509649       -0.15661494677457
C            5.78494339678006        4.80004372585488       -0.06415944625786
C            5.09313276679933        3.60474165387699       -0.02915548966936
N            3.72428069829441        1.17424523108973       -0.04693582342341
C            3.10496896559606       -0.00067775585986       -0.00673852474172
C            1.64190098121684       -0.00038938396615       -0.00335243164991
C            0.94237254501569        1.17411717769336       -0.25622916510968
C           -0.44456211345846        1.18533116980920       -0.25551544918450
N           -1.11684991574207        2.38523063159797       -0.51683977801766
C           -2.13957222115061        2.57798885674256       -1.42808919745129
C           -2.60143984596196        1.73255292985584       -2.42481685209631
C           -3.64037724558633        2.17880818031351       -3.21958447455496
C           -4.19420838032703        3.44456725583411       -3.04580510037115
C           -3.69994732154167        4.31146561320379       -2.09086084176440
C           -2.65747106174802        3.88351760847977       -1.27982067411790
C           -1.89220527923416        4.51242083642817       -0.23833246614838
C           -1.93214642968166        5.76966299640885        0.35028414860433
C           -1.03579260444853        6.05664027186170        1.36113548471472
C           -0.11521378543070        5.10518422208816        1.79394163040574
C           -0.05875497300347        3.84601573754530        1.22540844825445
C           -0.94535440493030        3.55954114436814        0.19785675735206
C           -1.16017639527426        0.00007666486864        0.00349495938495
N           -2.55662797557483        0.00050729931542        0.00712234251568
C           -3.36560035047848        0.81552541936041        0.78072736515910
C           -3.01346974056495        1.73683089272531        1.75466191574619
C           -4.03058680215065        2.41112103159714        2.40374313214589
C           -5.36817255496392        2.16101759714276        2.11002713767598
C           -5.72413137455859        1.21026997986420        1.17322276545307
C           -4.71875170090229        0.52483955122363        0.50529524865760
C           -4.72184478488895       -0.52024885809212       -0.48121553042920
C           -5.73140838474460       -1.20391485476278       -1.14461842007831
C           -5.38132319956853       -2.15529857836505       -2.08298821798165
C           -4.04549977582211       -2.40784669299144       -2.38256402370365
C           -3.02429747411125       -1.73530333618688       -1.73809941581471
C           -3.37043156396862       -0.81321959838565       -0.76275898468853
C           -0.44374393751846       -1.18544602199138        0.25887040642069
N           -1.11500934759330       -2.38527454099976        0.52310014599718
C           -0.94640214959500       -3.55959776156215       -0.19227453497983
C           -0.06475964627464       -3.84573498247304       -1.22417947884895
C           -0.12331332740347       -5.10502378540324       -1.79223282564447
C           -1.04126428435058       -6.05690341281670       -1.35479820328317
C           -1.93277684396191       -5.77025921659986       -0.33957972806810
C           -1.89058509791864       -4.51292369045445        0.24868517384143
C           -2.65101519250590       -3.88429538569633        1.29387591895452
C           -3.68910638136325       -4.31281071198724        2.11022915507992
C           -4.17919914482681       -3.44606496444670        3.06745529400362
C           -3.62541147736830       -2.17986949614349        3.23815837908765
C           -2.59074802259686       -1.73307381980842        2.43813299101840
C           -2.13316379338151       -2.57842623408459        1.43936166685453
C            0.94319454131885       -1.17466091204068        0.25281808456968
N            3.72398410476237       -1.17585410651916        0.03064789772036
C            7.17593497869382       -2.40460210860247        0.15064785167523
C            7.86127744414444       -3.60370000198060        0.18408267000073
H            7.70553924411003       -5.73911490946892        0.15248015615255
H            5.24326178963585       -5.73633042250139       -0.00776328910102
H            4.01560726674257       -3.58867058894861       -0.06653473431086
H            7.69849861721731        1.45870334695931       -0.22226979323607
H            8.93945333257209        3.60152810647671       -0.28615979843653
H            7.70701157704142        5.73603226944990       -0.18428285504229
H            5.24502817684681        5.73420591600619       -0.01957241379253
H            4.01683849498591        3.58699646373458        0.04422516872489
H            1.48924856303406        2.07512535150502       -0.48306519279861
H           -2.16112215363697        0.76115005260848       -2.58861793050719
H           -4.02571344929154        1.53088786019688       -3.99296072482536
H           -5.00925003026049        3.75555654783406       -3.68218299850291
H           -4.10811425115047        5.30433761826688       -1.97823016998998
H           -2.65302254907329        6.50320068141200        0.02287745712982
H           -1.04847629238791        7.02931887480676        1.83000206595962
H            0.56802595372594        5.35331030958237        2.59295046553243
H            0.65010038860798        3.11073576347537        1.57792112070148
H           -1.98158768577341        1.92169494529697        2.01307875536594
H           -3.77772616011464        3.14371851623882        3.15598862581462
H           -6.13532067900004        2.70959519181575        2.63593991069228
H           -6.76161060683449        0.99683600566100        0.96555241105497
H           -6.76756611314357       -0.98863341450125       -0.93231642755900
H           -6.15177858095954       -2.70249670868246       -2.60549090748160
H           -3.79727956515042       -3.14099537367833       -3.13581663978155
H           -1.99393190301959       -1.92210162684376       -2.00109900760436
H            0.64194726112459       -3.11012957165731       -1.58030439873591
H            0.55618799192322       -5.35290097870737       -2.59449923202450
H           -1.05572051051385       -7.02966463879640       -1.82344112327725
H           -2.65166004337301       -6.50411895853242       -0.00852917563062
H           -4.09717666870754       -5.30597162864268        1.99979880910937
H           -4.99084453952524       -3.75748944862955        3.70795202800630
H           -4.00732838202696       -1.53202294295379        4.01329391094409
H           -2.15035357421956       -0.76131999961348        2.59956963569750
H            1.49089941097818       -2.07584552689306        0.47695526310899
H            7.69841918458382       -1.46184054118067        0.19577967481030
H            8.93881644027417       -3.60511641368351        0.25481684919176

          :  Hamiltonian                  GFN2-xTB          :
         :: gradient norm              0.000031515261 Eh/a0 ::
         :: HOMO-LUMO gap              1.876131810227 eV    ::
         :: SCC energy              -161.089098687636 Eh    ::
         :: -> dispersion             -0.163136777028 Eh    ::
         :: -> Gsolv                  -0.064989618608 Eh    ::
         :: repulsion energy           2.929757944173 Eh    ::

    * Orbital Energies and Occupations

         #    Occupation            Energy/Eh            Energy/eV
      -------------------------------------------------------------
         1        2.0000           -0.6982675             -19.0008
       ...           ...                  ...                  ...
       135        2.0000           -0.4163910             -11.3306
       136        2.0000           -0.4158790             -11.3166
       137        2.0000           -0.4105100             -11.1705
       138        2.0000           -0.4095151             -11.1435
       139        2.0000           -0.4092405             -11.1360
       140        2.0000           -0.3872333             -10.5372
       141        2.0000           -0.3862039             -10.5091
       142        2.0000           -0.3860253             -10.5043
       143        2.0000           -0.3840015             -10.4492
       144        2.0000           -0.3819447             -10.3932
       145        2.0000           -0.3732618             -10.1570
       146        2.0000           -0.3715524             -10.1105
       147        2.0000           -0.3707315             -10.0881 (HOMO)
       148                         -0.3017849              -8.2120 (LUMO)
       149                         -0.2980104              -8.1093
       150                         -0.2602263              -7.0811
       151                         -0.2587982              -7.0423
       152                         -0.2501424              -6.8067
       153                         -0.2493973              -6.7864
       154                         -0.2478687              -6.7449
       155                         -0.2361059              -6.4248
       156                         -0.2361054              -6.4248
       157                         -0.2310985              -6.2885
       158                         -0.2271657              -6.1815
       ...                                ...                  ...
       288                          0.7413880              20.1742
      -------------------------------------------------------------
                  HL-Gap            0.0689466 Eh            1.8761 eV

     #   Z          covCN         q      C6AA      α(0)
     1   6 C        2.920    -0.021    28.533     8.760
     2   6 C        2.918    -0.027    28.669     8.780
     3   6 C        2.923    -0.025    28.637     8.776
     4   6 C        2.983    -0.010    28.255     8.719
     5   6 C        2.980     0.216    23.438     7.941
     6   7 N        1.844    -0.318    29.086     7.993
     7   6 C        2.980     0.216    23.438     7.941
     8   6 C        2.983    -0.010    28.256     8.719
     9   6 C        2.923    -0.025    28.637     8.776
    10   6 C        2.918    -0.027    28.665     8.780
    11   6 C        2.920    -0.021    28.533     8.760
    12   6 C        2.918    -0.027    28.669     8.780
    13   6 C        2.923    -0.025    28.637     8.776
    14   7 N        1.844    -0.322    29.196     8.008
    15   6 C        2.985     0.218    23.402     7.935
    16   6 C        2.981    -0.010    28.262     8.720
    17   6 C        2.926    -0.047    29.175     8.858
    18   6 C        2.910     0.055    26.760     8.482
    19   7 N        2.802    -0.049    22.185     6.995
    20   6 C        3.071     0.049    26.835     8.494
    21   6 C        2.910    -0.050    29.252     8.869
    22   6 C        2.924    -0.033    28.833     8.806
    23   6 C        2.920    -0.040    29.001     8.831
    24   6 C        2.913    -0.034    28.839     8.806
    25   6 C        3.067    -0.017    28.370     8.734
    26   6 C        3.067    -0.016    28.334     8.728
    27   6 C        2.913    -0.033    28.818     8.803
    28   6 C        2.920    -0.041    29.007     8.832
    29   6 C        2.924    -0.034    28.840     8.807
    30   6 C        2.910    -0.052    29.288     8.874
    31   6 C        3.073     0.048    26.847     8.496
    32   6 C        2.912     0.048    26.921     8.508
    33   7 N        2.801    -0.044    22.096     6.981
    34   6 C        3.073     0.051    26.775     8.484
    35   6 C        2.910    -0.049    29.222     8.864
    36   6 C        2.924    -0.033    28.828     8.805
    37   6 C        2.920    -0.040    28.985     8.829
    38   6 C        2.913    -0.033    28.820     8.803
    39   6 C        3.068    -0.016    28.348     8.730
    40   6 C        3.068    -0.016    28.348     8.730
    41   6 C        2.913    -0.033    28.820     8.803
    42   6 C        2.920    -0.040    28.985     8.829
    43   6 C        2.924    -0.033    28.828     8.805
    44   6 C        2.910    -0.049    29.222     8.864
    45   6 C        3.072     0.051    26.775     8.484
    46   6 C        2.910     0.055    26.760     8.483
    47   7 N        2.802    -0.049    22.184     6.995
    48   6 C        3.073     0.048    26.847     8.496
    49   6 C        2.910    -0.052    29.288     8.874
    50   6 C        2.924    -0.034    28.840     8.807
    51   6 C        2.920    -0.041    29.006     8.832
    52   6 C        2.913    -0.033    28.818     8.803
    53   6 C        3.067    -0.016    28.334     8.728
    54   6 C        3.067    -0.017    28.370     8.734
    55   6 C        2.913    -0.034    28.839     8.806
    56   6 C        2.920    -0.040    29.001     8.831
    57   6 C        2.924    -0.033    28.833     8.806
    58   6 C        2.910    -0.050    29.252     8.869
    59   6 C        3.071     0.049    26.835     8.494
    60   6 C        2.926    -0.047    29.175     8.858
    61   7 N        1.844    -0.322    29.196     8.008
    62   6 C        2.923    -0.025    28.637     8.776
    63   6 C        2.918    -0.027    28.665     8.780
    64   1 H        0.926     0.052     2.298     2.371
    65   1 H        0.926     0.049     2.334     2.389
    66   1 H        0.926     0.050     2.324     2.384
    67   1 H        0.926     0.052     2.296     2.370
    68   1 H        0.926     0.049     2.326     2.385
    69   1 H        0.926     0.052     2.298     2.371
    70   1 H        0.926     0.049     2.334     2.389
    71   1 H        0.926     0.050     2.324     2.384
    72   1 H        0.926     0.067     2.119     2.276
    73   1 H        0.926     0.022     2.705     2.572
    74   1 H        0.926     0.033     2.543     2.494
    75   1 H        0.926     0.035     2.517     2.481
    76   1 H        0.926     0.038     2.477     2.461
    77   1 H        0.926     0.038     2.479     2.462
    78   1 H        0.926     0.035     2.511     2.478
    79   1 H        0.926     0.035     2.521     2.483
    80   1 H        0.926     0.024     2.673     2.557
    81   1 H        0.926     0.021     2.724     2.581
    82   1 H        0.926     0.034     2.527     2.486
    83   1 H        0.926     0.036     2.502     2.474
    84   1 H        0.926     0.038     2.472     2.459
    85   1 H        0.926     0.038     2.472     2.459
    86   1 H        0.926     0.036     2.502     2.474
    87   1 H        0.926     0.034     2.527     2.486
    88   1 H        0.926     0.021     2.724     2.581
    89   1 H        0.926     0.024     2.673     2.557
    90   1 H        0.926     0.035     2.521     2.483
    91   1 H        0.926     0.035     2.511     2.478
    92   1 H        0.926     0.038     2.479     2.462
    93   1 H        0.926     0.038     2.477     2.461
    94   1 H        0.926     0.035     2.517     2.481
    95   1 H        0.926     0.033     2.543     2.494
    96   1 H        0.926     0.022     2.705     2.572
    97   1 H        0.926     0.067     2.119     2.276
    98   1 H        0.926     0.052     2.296     2.370
    99   1 H        0.926     0.049     2.326     2.385

molecular dipole:
                 x           y           z       tot (Debye)
 q only:        0.565      -0.000      -0.001
   full:        0.760      -0.000      -0.001       1.931

 projected vibrational frequencies (cm⁻¹)
eigval :       -0.00    -0.00     0.00     0.00     0.00     0.00
eigval :        8.43    14.85    19.21    22.45    22.72    23.20
eigval :       27.99    41.24    44.50    45.17    49.26    53.78
eigval :       56.74    61.21    70.56    90.14    92.73   104.75
eigval :      107.19   108.43   122.42   123.73   126.76   142.73
eigval :      151.34   152.45   165.06   175.90   182.17   185.96
eigval :      186.52   197.41   222.10   231.90   239.74   243.98
eigval :      261.65   268.90   274.39   274.99   279.17   296.72
eigval :      331.41   347.15   360.11   364.79   365.86   376.52
eigval :      386.62   399.23   399.60   406.95   408.15   414.58
eigval :      421.91   424.60   426.02   436.90   436.94   441.02
eigval :      442.82   481.17   497.73   507.84   509.73   518.32
eigval :      519.19   520.13   537.15   542.08   542.18   543.59
eigval :      543.94   545.63   557.51   575.65   586.91   586.94
eigval :      587.65   589.07   592.59   611.76   621.69   622.45
eigval :      629.55   636.86   647.37   648.07   655.38   671.91
eigval :      673.06   674.82   675.30   684.28   686.07   699.61
eigval :      706.32   707.07   708.32   729.86   749.70   753.57
eigval :      755.42   756.69   768.63   770.92   771.42   772.42
eigval :      776.76   782.54   782.78   782.98   796.67   846.69
eigval :      858.38   862.84   871.62   874.72   875.33   875.51
eigval :      876.82   876.98   878.90   880.70   889.34   895.28
eigval :      898.11   898.23   904.19   904.42   905.13   905.52
eigval :      906.51   906.59   912.06   913.41   923.04   923.43
eigval :      924.46   924.67   925.75   926.10   928.26   930.22
eigval :      931.18   934.31   934.55   957.31   989.15   997.48
eigval :     1010.59  1012.49  1013.73  1042.61  1050.58  1069.52
eigval :     1069.72  1071.35  1072.39  1073.54  1074.26  1075.11
eigval :     1075.35  1087.81  1101.90  1108.24  1111.63  1121.01
eigval :     1146.69  1149.24  1150.86  1152.36  1152.40  1165.65
eigval :     1172.82  1175.75  1176.74  1177.24  1177.81  1178.90
eigval :     1179.29  1180.25  1183.66  1184.70  1189.29  1201.19
eigval :     1208.20  1208.98  1231.04  1233.26  1233.69  1236.00
eigval :     1240.86  1251.89  1267.60  1268.79  1290.42  1294.44
eigval :     1297.04  1297.85  1298.32  1299.47  1309.09  1323.84
eigval :     1324.25  1328.06  1334.48  1355.16  1356.21  1357.20
eigval :     1358.71  1361.05  1362.01  1362.34  1368.18  1370.10
eigval :     1401.20  1414.18  1421.21  1426.24  1426.89  1427.65
eigval :     1427.92  1429.99  1433.71  1439.60  1462.64  1468.45
eigval :     1472.31  1474.01  1474.24  1476.88  1485.76  1486.03
eigval :     1486.41  1507.06  1511.49  1542.46  1562.50  1575.13
eigval :     1575.67  1577.51  1580.60  1582.57  1589.64  1590.13
eigval :     1591.84  1592.13  1592.73  1598.70  1598.94  1599.77
eigval :     1612.77  1612.94  1615.16  3072.11  3072.19  3076.18
eigval :     3076.37  3076.86  3077.03  3078.77  3078.83  3079.02
eigval :     3079.06  3081.57  3081.99  3083.14  3083.23  3083.73
eigval :     3083.86  3086.14  3086.24  3088.49  3089.26  3091.55
eigval :     3091.59  3092.81  3093.03  3095.12  3095.43  3095.79
eigval :     3097.90  3098.45  3098.62  3103.69  3104.13  3104.93
eigval :     3105.99  3115.96  3116.55

   temp. (K)  partition function   enthalpy   heat capacity  entropy
                                   cal/mol     cal/K/mol   cal/K/mol   J/K/mol
 298.15  VIB  0.216E+23            28594.358    180.963    177.836
         ROT  0.676E+08              888.752      2.981     38.809
         INT  0.146E+31            29483.111    183.944    216.644
         TR   0.221E+29             1481.254      4.968     45.914
         TOT                       30964.3646   188.9119   262.5581  1098.5430

       T/K    H(0)-H(T)+PV         H(T)/Eh          T*S/Eh         G(T)/Eh
   ------------------------------------------------------------------------
    298.15    0.493449E-01    0.801254E+00    0.124750E+00    0.676504E+00
   ------------------------------------------------------------------------

         :::::::::::::::::::::::::::::::::::::::::::::::::::::
         ::                  THERMODYNAMIC                  ::
         :::::::::::::::::::::::::::::::::::::::::::::::::::::
         :: total free energy        -157.482836324950 Eh   ::
         ::.................................................::
         :: total energy             -158.159340746163 Eh   ::
         :: zero point energy           0.751909376027 Eh   ::
         :: G(RRHO) w/o ZPVE           -0.075404954814 Eh   ::
         :: G(RRHO) contrib.            0.676504421212 Eh   ::
         :::::::::::::::::::::::::::::::::::::::::::::::::::::

           -------------------------------------------------
          | TOTAL ENERGY             -158.159340746163 Eh   |
          | TOTAL ENTHALPY           -157.358086514254 Eh   |
          | TOTAL FREE ENERGY        -157.482836324950 Eh   |
          | GRADIENT NORM               0.000031512393 Eh/α |
          | HOMO-LUMO GAP               1.876132315843 eV   |
           -------------------------------------------------

 * finished run on 2025/07/16 at 17:01:02.499
