   * xtb version 6.7.1 (edcfbbe) compiled by 'albert@albert-system' on 2024-07-22

   ID    Z sym.   atoms
    1    6 C      1-5, 7-13, 15-18, 20-32, 34-46, 48-60, 62, 63
    2    7 N      6, 14, 19, 33, 47, 61
    3    1 H      64-99

          program call               : xtb data2507/toluene/TCzTrz/TCzTrz_toluene_S0_finalOpt.xtbopt.xyz --gfn 2 --uhf 2 --gbsa toluene --ohess vtight --parallel 40 --molden --ceasefiles --namespace data2507/toluene/TCzTrz/TCzTrz_toluene_T1_preOpt
      * Solvation model:               GBSA
        Solvent                        toluene
        Solvent mass                       9.2140E+01 g/mol
          :  Hamiltonian                  GFN2-xTB          :
 * total energy  :  -158.0780892 Eh     change       -0.1198438E-07 Eh
 * total energy  :  -158.0804186 Eh     change       -0.2329491E-02 Eh
 * total energy  :  -158.0818660 Eh     change       -0.1447366E-02 Eh
 * total energy  :  -158.0820070 Eh     change       -0.1410292E-03 Eh
 * total energy  :  -158.0821412 Eh     change       -0.1341138E-03 Eh
 * total energy  :  -158.0821564 Eh     change       -0.1526891E-04 Eh
 * total energy  :  -158.0821729 Eh     change       -0.1646686E-04 Eh
 * total energy  :  -158.0821813 Eh     change       -0.8398028E-05 Eh
 * total energy  :  -158.0821985 Eh     change       -0.1721318E-04 Eh
 * total energy  :  -158.0822133 Eh     change       -0.1476830E-04 Eh
 * total energy  :  -158.0823443 Eh     change       -0.6030587E-06 Eh
 * total energy  :  -158.0823447 Eh     change       -0.4254897E-06 Eh
 * total energy  :  -158.0823450 Eh     change       -0.2615661E-06 Eh
 * total energy  :  -158.0823451 Eh     change       -0.1786870E-06 Eh
 * total energy  :  -158.0823453 Eh     change       -0.1709705E-06 Eh
 * total energy  :  -158.0823452 Eh     change        0.1050269E-06 Eh
 * total energy  :  -158.0823453 Eh     change       -0.1060363E-06 Eh
 * total energy  :  -158.0823452 Eh     change        0.9510927E-07 Eh
 * total energy  :  -158.0823453 Eh     change       -0.8662846E-07 Eh
   *** GEOMETRY OPTIMIZATION CONVERGED AFTER 47 ITERATIONS ***

 final structure:
================
99
 xtb: 6.7.1 (edcfbbe)
C            7.19823351400050       -4.79564973742649        0.35565388039349
C            5.81310078173724       -4.80468683385016        0.27585162197086
C            5.11497383140950       -3.61646524984003        0.19400922291038
C            5.79788263734104       -2.39931770252939        0.18986493978389
C            5.06353398024486       -1.13991713322864        0.09500564593404
N            5.77585852185940       -0.00106979050829       -0.01228635428599
C            5.06334159914325        1.13789556842705       -0.11728307553485
C            5.79747607168638        2.39719163152141       -0.21465242238300
C            7.19007851903125        2.39584897709070       -0.29755504575680
C            7.88277514774697        3.58794687296735       -0.38258658787447
C            7.19752264296838        4.79343381325465       -0.38458760593290
C            5.81255314471507        4.80253826229794       -0.30185051216916
C            5.11459012272237        3.61436802453128       -0.21789305435648
N            3.75518524192260        1.17267067182781       -0.13490422627123
C            3.08461430126474       -0.00086861815776       -0.00736895027699
C            1.66793397618009       -0.00061092868574       -0.00398587410887
C            0.94023284028914        1.18689671879481       -0.23663712769467
C           -0.43534476757925        1.18934251875531       -0.23961612052446
N           -1.12335613259512        2.38923443533923       -0.49343261050302
C           -2.11764916275754        2.58014151207788       -1.43000846092957
C           -2.54391231146392        1.73714426240484       -2.44680149047164
C           -3.56919535479104        2.17716358477605       -3.26279908510663
C           -4.14526171328660        3.43272823252676       -3.08873419227687
C           -3.68789712731732        4.29817136241525       -2.11067139425059
C           -2.66042765158249        3.87738007927934       -1.27991377141761
C           -1.92942340182325        4.50252357370524       -0.20989450635733
C           -1.99751990540595        5.74890482203780        0.39466825611861
C           -1.12570889858585        6.03081428768645        1.43130623698064
C           -0.20230333153118        5.08489598560120        1.87110824738992
C           -0.11822179547416        3.83476495985811        1.28695396987633
C           -0.98150471884844        3.55184903082567        0.23614470064041
C           -1.16219119145230        0.00005164228534        0.00320416599981
N           -2.56415400376173        0.00041486813613        0.00681946230422
C           -3.36921619957907        0.78822411463848        0.80363456428131
C           -3.01372345298920        1.68987552315961        1.79783235061076
C           -4.02824791013315        2.35148310999728        2.46277115221813
C           -5.36706750992043        2.11142067537833        2.16322165839569
C           -5.72782228691526        1.18306863110406        1.20296393551529
C           -4.72618869658430        0.51021550109383        0.51980665431442
C           -4.72909053419873       -0.50802795885850       -0.49514135057023
C           -5.73461790261879       -1.18023209814251       -1.17319885329278
C           -5.37934909936903       -2.10887787818079       -2.13521755418924
C           -4.04221944206232       -2.34988023662153       -2.44148270358283
C           -3.02390711951433       -1.68886857545119       -1.78176824029087
C           -3.37375459117930       -0.78689960337282       -0.78586233553311
C           -0.43467973089324       -1.18957798895456        0.24230388276994
N           -1.12191394933978       -2.38918705536836        0.49958749075052
C           -0.98409364949798       -3.55190969694790       -0.23060112383732
C           -0.12642960241074       -3.83504669242990       -1.28593674203150
C           -0.21382613104907       -5.08519445839283       -1.86956974579011
C           -1.13510980371176       -6.03089995172173       -1.42487402567218
C           -2.00134159008940       -5.74877949512693       -0.38362666614762
C           -1.92981771184947       -4.50237513295327        0.22050319071321
C           -2.65507847809783       -3.87700772427498        1.29428505053269
C           -3.67822137377725       -4.29754920722533        2.13049869008066
C           -4.13050022059639       -3.43182852698207        3.11067895557634
C           -3.55346983707380       -2.17625829588859        3.28144909208905
C           -2.53235365344755       -1.73653219370616        2.46008703558380
C           -2.11138560089340       -2.57980386714522        1.44132956350694
C            0.94086619279784       -1.18779527082143        0.23227422666609
N            3.75548630659087       -1.17455465863652        0.11727615048441
C            7.19064403298765       -2.39803615574114        0.26973188522649
C            7.88350510623807       -3.59018331439985        0.35272589737950
H            7.74200720527675       -5.72655355925625        0.41908139410808
H            5.27778410563918       -5.74302733150757        0.27708640983342
H            4.03742907839931       -3.60778847357465        0.12924404594922
H            7.70818656954478        1.44897959045300       -0.29553919853886
H            8.96110721579535        3.57907506040485       -0.44725316834775
H            7.74116932590555        5.72429270025528       -0.44962976215383
H            5.27725851524409        5.74088107316641       -0.30238742450426
H            4.03719592116907        3.60573028414253       -0.15075384601107
H            1.48546096693412        2.09214578587309       -0.45004072853038
H           -2.08205292753747        0.77576327814776       -2.60808087441849
H           -3.92537421756956        1.53348178582388       -4.05316043395461
H           -4.94851861990080        3.73980219272589       -3.74149464872083
H           -4.11578391491754        5.28248586111726       -1.99796003317753
H           -2.71816874880721        6.48026343086979        0.06246483299119
H           -1.16046686605196        6.99670066484476        1.91257859726799
H            0.46167255107090        5.33128057620656        2.68642067985227
H            0.59476801047658        3.10312464237852        1.63765080750329
H           -1.98028224254379        1.86504212025067        2.05591549874540
H           -3.77408352137393        3.06589831088428        3.23160791951859
H           -6.13261841101687        2.65019019082118        2.70117813894991
H           -6.76647895224040        0.98111329201031        0.99037778504136
H           -6.77204886336618       -0.97757799461451       -0.95536245204510
H           -6.14796616803571       -2.64717690665312       -2.66925910482060
H           -3.79240399455962       -3.06458676808879       -3.21147245732909
H           -1.99191679445686       -1.86476846003480       -2.04507637844724
H            0.58486831037505       -3.10358248931819       -1.64041040152350
H            0.44588388073026       -5.33178795286100       -2.68826764325266
H           -1.17260563056131       -6.99679934029000       -1.90590985254034
H           -2.72037469106386       -6.47997485689254       -0.04759217916521
H           -4.10676924407298       -5.28185609708306        2.02023833497441
H           -4.93044659947897       -3.73867912966573        3.76760205504411
H           -3.90557743439844       -1.53231832332048        4.07342435716495
H           -2.06956444168063       -0.77517221273234        2.61880740860057
H            1.48674938289456       -2.09329684454065        0.44290816884833
H            7.70877778473136       -1.45117280211902        0.26701597748503
H            8.96197706506607       -3.58135416578335        0.41505697376913

          :  Hamiltonian                  GFN2-xTB          :
         :: gradient norm              0.000152148100 Eh/a0 ::
         :: HOMO-LUMO gap              0.272870950678 eV    ::
         :: SCC energy              -161.001863093234 Eh    ::
         :: -> dispersion             -0.162280264131 Eh    ::
         :: -> Gsolv                  -0.067217580903 Eh    ::
         :: repulsion energy           2.919517838610 Eh    ::

    * Orbital Energies and Occupations

         #    Occupation            Energy/Eh            Energy/eV
      -------------------------------------------------------------
         1        2.0000           -0.6892857             -18.7564
       ...           ...                  ...                  ...
       136        2.0000           -0.4113987             -11.1947
       137        2.0000           -0.4098156             -11.1517
       138        2.0000           -0.4060501             -11.0492
       139        2.0000           -0.4044731             -11.0063
       140        2.0000           -0.3904613             -10.6250
       141        2.0000           -0.3886675             -10.5762
       142        2.0000           -0.3863562             -10.5133
       143        1.9725           -0.3754350             -10.2161
       144        1.9065           -0.3742038             -10.1826
       145        1.8270           -0.3735321             -10.1643
       146        1.6664           -0.3727035             -10.1418
       147        1.6276           -0.3725417             -10.1374
       148        0.9949           -0.2909267              -7.9165 (HOMO)
       149        0.0051           -0.2808983              -7.6436 (LUMO)
       150                         -0.2554430              -6.9510
       151                         -0.2553045              -6.9472
       152                         -0.2539266              -6.9097
       153                         -0.2475954              -6.7374
       154                         -0.2411043              -6.5608
       155                         -0.2359148              -6.4196
       156                         -0.2322579              -6.3201
       157                         -0.2284890              -6.2175
       158                         -0.2284829              -6.2173
       159                         -0.2282927              -6.2122
       ...                                ...                  ...
       288                          0.7372945              20.0628
      -------------------------------------------------------------
                  HL-Gap            0.0100284 Eh            0.2729 eV

     #   Z          covCN         q      C6AA      α(0)
     1   6 C        2.920    -0.028    28.695     8.784
     2   6 C        2.918    -0.030    28.738     8.791
     3   6 C        2.923    -0.030    28.742     8.792
     4   6 C        2.983    -0.009    28.233     8.716
     5   6 C        2.936     0.210    23.569     7.962
     6   7 N        1.843    -0.337    29.607     8.064
     7   6 C        2.936     0.210    23.570     7.962
     8   6 C        2.983    -0.009    28.234     8.716
     9   6 C        2.924    -0.029    28.727     8.789
    10   6 C        2.918    -0.029    28.733     8.790
    11   6 C        2.920    -0.028    28.695     8.784
    12   6 C        2.918    -0.030    28.738     8.791
    13   6 C        2.923    -0.030    28.742     8.792
    14   7 N        1.845    -0.302    28.668     7.935
    15   6 C        2.941     0.169    24.364     8.095
    16   6 C        2.975    -0.020    28.496     8.756
    17   6 C        2.923    -0.057    29.424     8.895
    18   6 C        2.906     0.049    26.911     8.506
    19   7 N        2.803    -0.032    21.860     6.944
    20   6 C        3.076     0.049    26.822     8.491
    21   6 C        2.910    -0.046    29.134     8.851
    22   6 C        2.923    -0.032    28.798     8.800
    23   6 C        2.920    -0.036    28.893     8.815
    24   6 C        2.912    -0.031    28.767     8.795
    25   6 C        3.067    -0.015    28.319     8.726
    26   6 C        3.067    -0.013    28.280     8.720
    27   6 C        2.912    -0.030    28.756     8.793
    28   6 C        2.920    -0.035    28.883     8.813
    29   6 C        2.923    -0.032    28.793     8.800
    30   6 C        2.909    -0.046    29.135     8.851
    31   6 C        3.076     0.050    26.801     8.488
    32   6 C        2.910     0.016    27.660     8.624
    33   7 N        2.799    -0.029    21.797     6.934
    34   6 C        3.077     0.049    26.820     8.491
    35   6 C        2.910    -0.045    29.117     8.848
    36   6 C        2.923    -0.032    28.806     8.801
    37   6 C        2.920    -0.036    28.888     8.814
    38   6 C        2.912    -0.030    28.760     8.794
    39   6 C        3.067    -0.015    28.318     8.726
    40   6 C        3.067    -0.015    28.318     8.726
    41   6 C        2.912    -0.030    28.760     8.794
    42   6 C        2.920    -0.036    28.888     8.814
    43   6 C        2.923    -0.032    28.806     8.801
    44   6 C        2.910    -0.045    29.117     8.848
    45   6 C        3.077     0.049    26.820     8.491
    46   6 C        2.906     0.049    26.911     8.506
    47   7 N        2.803    -0.032    21.860     6.944
    48   6 C        3.076     0.050    26.801     8.488
    49   6 C        2.909    -0.046    29.135     8.851
    50   6 C        2.923    -0.032    28.793     8.800
    51   6 C        2.920    -0.035    28.883     8.813
    52   6 C        2.912    -0.030    28.756     8.793
    53   6 C        3.067    -0.013    28.280     8.720
    54   6 C        3.067    -0.015    28.319     8.726
    55   6 C        2.912    -0.031    28.767     8.795
    56   6 C        2.920    -0.036    28.893     8.815
    57   6 C        2.923    -0.032    28.798     8.800
    58   6 C        2.910    -0.046    29.134     8.851
    59   6 C        3.075     0.049    26.822     8.491
    60   6 C        2.923    -0.057    29.424     8.895
    61   7 N        1.845    -0.302    28.668     7.935
    62   6 C        2.924    -0.029    28.727     8.789
    63   6 C        2.918    -0.029    28.733     8.790
    64   1 H        0.926     0.044     2.400     2.422
    65   1 H        0.926     0.042     2.420     2.433
    66   1 H        0.926     0.042     2.421     2.433
    67   1 H        0.926     0.043     2.404     2.425
    68   1 H        0.926     0.042     2.428     2.437
    69   1 H        0.926     0.044     2.400     2.422
    70   1 H        0.926     0.042     2.420     2.433
    71   1 H        0.926     0.042     2.421     2.433
    72   1 H        0.926     0.050     2.316     2.380
    73   1 H        0.926     0.030     2.588     2.516
    74   1 H        0.926     0.038     2.475     2.460
    75   1 H        0.926     0.040     2.445     2.445
    76   1 H        0.926     0.043     2.412     2.429
    77   1 H        0.926     0.043     2.411     2.428
    78   1 H        0.926     0.041     2.442     2.443
    79   1 H        0.926     0.039     2.466     2.456
    80   1 H        0.926     0.031     2.566     2.505
    81   1 H        0.926     0.027     2.633     2.537
    82   1 H        0.926     0.038     2.481     2.463
    83   1 H        0.926     0.040     2.448     2.446
    84   1 H        0.926     0.042     2.421     2.433
    85   1 H        0.926     0.042     2.421     2.433
    86   1 H        0.926     0.040     2.448     2.446
    87   1 H        0.926     0.038     2.481     2.463
    88   1 H        0.926     0.027     2.633     2.537
    89   1 H        0.926     0.031     2.566     2.505
    90   1 H        0.926     0.039     2.466     2.456
    91   1 H        0.926     0.041     2.442     2.443
    92   1 H        0.926     0.043     2.411     2.428
    93   1 H        0.926     0.043     2.412     2.429
    94   1 H        0.926     0.040     2.445     2.445
    95   1 H        0.926     0.038     2.475     2.460
    96   1 H        0.926     0.030     2.588     2.516
    97   1 H        0.926     0.050     2.316     2.380
    98   1 H        0.926     0.043     2.404     2.425
    99   1 H        0.926     0.042     2.428     2.437

molecular dipole:
                 x           y           z       tot (Debye)
 q only:       -2.642       0.001       0.007
   full:       -2.344       0.000       0.006       5.958

 projected vibrational frequencies (cm⁻¹)
eigval :       -0.00    -0.00     0.00     0.00     0.00     0.00
eigval :       14.08    14.31    17.90    21.06    21.77    23.31
eigval :       26.62    40.87    43.07    43.52    47.73    53.68
eigval :       55.28    60.10    69.85    94.18   101.18   105.18
eigval :      107.30   108.51   120.64   120.75   123.58   139.85
eigval :      148.37   148.51   163.36   172.09   178.87   181.78
eigval :      192.13   212.72   213.56   229.78   232.57   249.43
eigval :      254.23   266.13   270.20   271.74   276.60   290.81
eigval :      320.62   349.61   354.92   366.25   368.98   369.76
eigval :      373.89   388.61   395.95   398.81   405.16   412.60
eigval :      414.37   420.16   420.86   421.85   433.01   434.58
eigval :      434.70   463.36   485.96   495.85   497.62   514.78
eigval :      515.90   516.21   537.33   537.77   537.95   540.62
eigval :      544.14   546.06   552.25   560.71   567.52   570.95
eigval :      585.55   586.61   587.53   588.42   589.27   610.34
eigval :      610.99   619.60   627.61   639.53   643.80   660.20
eigval :      664.55   668.21   671.55   672.88   674.72   681.02
eigval :      696.64   703.54   706.94   707.12   710.04   747.34
eigval :      753.73   755.08   765.68   765.99   766.34   768.06
eigval :      770.97   771.36   778.56   780.69   780.98   807.88
eigval :      823.33   839.63   858.35   870.87   871.54   871.64
eigval :      872.84   873.78   874.13   875.14   876.92   877.82
eigval :      892.09   894.05   897.47   902.32   903.31   903.63
eigval :      903.94   904.18   904.83   905.28   905.46   919.06
eigval :      921.82   922.16   923.12   923.49   926.87   927.25
eigval :      927.99   928.50   930.55   930.58   939.49   976.80
eigval :      985.20   989.66  1008.43  1010.25  1011.37  1038.53
eigval :     1062.84  1066.17  1066.82  1067.91  1069.37  1069.40
eigval :     1071.52  1073.63  1075.19  1094.00  1107.96  1109.67
eigval :     1118.31  1137.90  1141.32  1142.48  1143.31  1146.59
eigval :     1159.08  1170.11  1174.87  1175.13  1176.21  1176.38
eigval :     1176.91  1177.18  1177.37  1180.60  1182.35  1183.65
eigval :     1187.12  1198.33  1225.29  1227.93  1229.37  1231.62
eigval :     1235.03  1236.77  1264.10  1266.47  1273.00  1275.00
eigval :     1282.53  1287.16  1287.38  1288.03  1291.63  1292.91
eigval :     1302.32  1323.92  1328.49  1329.04  1339.96  1341.69
eigval :     1342.44  1344.91  1346.12  1357.88  1360.28  1361.76
eigval :     1384.74  1397.71  1408.94  1411.56  1412.38  1414.38
eigval :     1415.85  1424.16  1426.44  1431.93  1436.50  1441.46
eigval :     1455.44  1461.97  1462.28  1465.06  1467.70  1474.10
eigval :     1481.70  1481.71  1482.60  1490.93  1537.92  1563.69
eigval :     1564.82  1565.02  1573.25  1574.18  1578.24  1579.76
eigval :     1580.34  1581.24  1581.86  1583.13  1585.17  1592.11
eigval :     1597.42  1598.87  1606.06  3073.22  3073.33  3076.50
eigval :     3076.66  3077.31  3077.37  3079.01  3079.20  3080.68
eigval :     3080.73  3082.79  3082.89  3084.21  3084.80  3086.85
eigval :     3086.86  3087.38  3087.66  3089.67  3089.90  3091.00
eigval :     3091.82  3094.48  3094.71  3095.09  3095.22  3097.06
eigval :     3097.12  3097.69  3098.07  3098.23  3098.70  3100.80
eigval :     3101.31  3110.07  3111.47

   temp. (K)  partition function   enthalpy   heat capacity  entropy
                                   cal/mol     cal/K/mol   cal/K/mol   J/K/mol
 298.15  VIB  0.264E+23            28948.659    183.297    179.362
         ROT  0.679E+08              888.752      2.981     38.817
         INT  0.179E+31            29837.412    186.277    218.179
         TR   0.221E+29             1481.254      4.968     45.914
         TOT                       31318.6657   191.2456   264.0931  1104.9654

       T/K    H(0)-H(T)+PV         H(T)/Eh          T*S/Eh         G(T)/Eh
   ------------------------------------------------------------------------
    298.15    0.499095E-01    0.796408E+00    0.125479E+00    0.670929E+00
   ------------------------------------------------------------------------

         :::::::::::::::::::::::::::::::::::::::::::::::::::::
         ::                  THERMODYNAMIC                  ::
         :::::::::::::::::::::::::::::::::::::::::::::::::::::
         :: total free energy        -157.411416255489 Eh   ::
         ::.................................................::
         :: total energy             -158.082345312224 Eh   ::
         :: zero point energy           0.746498720110 Eh   ::
         :: G(RRHO) w/o ZPVE           -0.075569663374 Eh   ::
         :: G(RRHO) contrib.            0.670929056735 Eh   ::
         :::::::::::::::::::::::::::::::::::::::::::::::::::::

           -------------------------------------------------
          | TOTAL ENERGY             -158.082345312224 Eh   |
          | TOTAL ENTHALPY           -157.285937121445 Eh   |
          | TOTAL FREE ENERGY        -157.411416255489 Eh   |
          | GRADIENT NORM               0.000142379919 Eh/α |
          | HOMO-LUMO GAP               0.272886695888 eV   |
           -------------------------------------------------

 * finished run on 2025/07/16 at 17:01:18.321
