   * xtb version 6.7.1 (edcfbbe) compiled by 'albert@albert-system' on 2024-07-22

   ID    Z sym.   atoms
    1    6 C      1-9, 11-15, 17-20, 24-39
    2    7 N      10
    3    8 O      16, 22, 23
    4   16 S      21
    5    1 H      40-66

          program call               : xtb data2507/toluene/PS-BZ-DMAC/PS-BZ-DMAC.xyz --gfn 2 --gbsa toluene --ohess vtight --parallel 40 --molden --ceasefiles --namespace data2507/toluene/PS-BZ-DMAC/PS-BZ-DMAC_toluene_S0_preOpt
      * Solvation model:               GBSA
        Solvent                        toluene
        Solvent mass                       9.2140E+01 g/mol
          :  Hamiltonian                  GFN2-xTB          :
 * total energy  :  -104.9492709 Eh     change       -0.6282761E-09 Eh
 * total energy  :  -104.9617600 Eh     change       -0.1248909E-01 Eh
 * total energy  :  -104.9652462 Eh     change       -0.3486192E-02 Eh
 * total energy  :  -104.9658960 Eh     change       -0.6498373E-03 Eh
 * total energy  :  -104.9663375 Eh     change       -0.4414726E-03 Eh
 * total energy  :  -104.9664548 Eh     change       -0.1173458E-03 Eh
 * total energy  :  -104.9665143 Eh     change       -0.5943941E-04 Eh
 * total energy  :  -104.9665559 Eh     change       -0.4165918E-04 Eh
 * total energy  :  -104.9665726 Eh     change       -0.1671397E-04 Eh
 * total energy  :  -104.9665991 Eh     change       -0.2642545E-04 Eh
 * total energy  :  -104.9671568 Eh     change       -0.2813710E-06 Eh
 * total energy  :  -104.9671570 Eh     change       -0.1970756E-06 Eh
 * total energy  :  -104.9671572 Eh     change       -0.1316387E-06 Eh
 * total energy  :  -104.9671573 Eh     change       -0.1303015E-06 Eh
 * total energy  :  -104.9671574 Eh     change       -0.1344896E-06 Eh
 * total energy  :  -104.9671576 Eh     change       -0.1508085E-06 Eh
 * total energy  :  -104.9671578 Eh     change       -0.1700387E-06 Eh
 * total energy  :  -104.9671580 Eh     change       -0.2013099E-06 Eh
 * total energy  :  -104.9671580 Eh     change       -0.1620023E-08 Eh
   *** GEOMETRY OPTIMIZATION CONVERGED AFTER 122 ITERATIONS ***

 final structure:
================
66
 xtb: 6.7.1 (edcfbbe)
C           -6.06941620906988        0.82818788085238        2.20626360224140
C           -5.71168185247271        0.51687851512988        0.74058645976509
C           -6.95141404916259        0.68460066470908       -0.15811156363803
C           -5.23619352674476       -0.92091712078571        0.65582808500087
C           -6.08735345705906       -1.94326343968447        1.05533615103198
C           -5.70097393709808       -3.27047803127417        1.04041194385036
C           -4.41781464460690       -3.59455256814125        0.63765530270934
C           -3.55332582383601       -2.59905756844077        0.23282012991139
C           -3.95467572295361       -1.25956111695507        0.20920706199845
N           -3.06391684706711       -0.28014201668539       -0.21628171047392
C           -1.80086093836693       -0.67143737465708       -0.71909201291464
C           -1.71074592962581       -1.35197539153659       -1.93254986825873
C           -0.47827342394282       -1.73164726465566       -2.41983501661161
C            0.69017969290907       -1.42126634960891       -1.72032443112395
C            1.98635946268274       -1.86096878736763       -2.27702577591724
O            2.07930573717012       -2.84045103833628       -2.99819865709119
C            3.18943393820045       -1.05132858674614       -1.92995849961349
C            3.12859950442044        0.33882084143451       -1.84071075741132
C            4.27714962932821        1.06279845837292       -1.56988147953255
C            5.47302695040700        0.39548429928490       -1.38715929736567
S            6.96794493874460        1.32129123769983       -1.00035777709758
O            8.04160048813089        0.83588303838881       -1.84040211683847
O            6.66295822593701        2.73424501386664       -1.07655091760755
C            7.31638088993502        0.88531174571150        0.70541525373827
C            6.46641338100865        1.35267675804554        1.69019370909561
C            6.70753946102317        1.00187747773383        3.00830553252081
C            7.78726546827722        0.18886105687775        3.32045349098709
C            8.63141834188177       -0.27339953591381        2.32270502213688
C            8.39405179423378        0.07434041586599        1.00214453145954
C            5.55397968123908       -0.98211557572939       -1.47886256004970
C            4.41044731496819       -1.70513603407963       -1.76337392895802
C            0.59489389218206       -0.75162292001122       -0.49881764716632
C           -0.63989274590716       -0.38495728007552       -0.00277805376447
C           -3.39650421952108        1.06999931678861       -0.18918718818494
C           -2.49024603019248        2.02026425130442       -0.67033849281275
C           -2.78882973024296        3.36660918464416       -0.64737329037743
C           -4.00839196887842        3.79293232190471       -0.15315639487330
C           -4.92028578436787        2.85355397107436        0.29071824850012
C           -4.64572488794867        1.49200742446091        0.27820486585535
H           -6.42310029995632        1.85006654381000        2.31054062817266
H           -5.19113476240374        0.70199442190642        2.83731445411698
H           -6.84805835376163        0.16134003537839        2.56574603461122
H           -6.69299026112629        0.46290235169269       -1.19231955681541
H           -7.74644089779571        0.01070252407942        0.14871648292816
H           -7.33069631342335        1.70153168416031       -0.11047470334969
H           -7.08419612251065       -1.70151480726557        1.39145243647954
H           -6.39010699183908       -4.04060543060635        1.35286825583060
H           -4.08425640146919       -4.62188609760023        0.64076024347639
H           -2.55005274477383       -2.86383103024785       -0.06312848005851
H           -2.61228343474191       -1.57970841413242       -2.48154584926129
H           -0.39431947936402       -2.25846362587128       -3.35883196858978
H            2.19367565265332        0.85182865254758       -2.00558394883760
H            4.26856947752806        2.13995134805814       -1.50715391331820
H            5.64335761984989        1.99317742606594        1.41502495733704
H            6.05567423438432        1.36204951909817        3.78935999894920
H            7.97359172360699       -0.08312046452127        4.34845461011394
H            9.47277055887473       -0.90255326709997        2.56986238317451
H            9.03153743870839       -0.25896368307816        0.19784913604896
H            6.50854948828957       -1.46655170331861       -1.34874894206980
H            4.44332055689532       -2.78026179814899       -1.85706368987624
H            1.48549218309449       -0.54686928565033        0.07520037566306
H           -0.71817486709831        0.12520229629990        0.94569979155944
H           -1.54356758888225        1.70044921258853       -1.07654989083314
H           -2.06880631892732        4.07941417764967       -1.02183605090510
H           -4.25412218271159        4.84388141920102       -0.12564584167760
H           -5.87665897671556        3.19749412154371        0.65411309401784

          :  Hamiltonian                  GFN2-xTB          :
         :: gradient norm              0.000029479928 Eh/a0 ::
         :: HOMO-LUMO gap              1.194249085943 eV    ::
         :: SCC energy              -106.709761068869 Eh    ::
         :: -> dispersion             -0.088759905567 Eh    ::
         :: -> Gsolv                  -0.052728018444 Eh    ::
         :: repulsion energy           1.742603104139 Eh    ::

    * Orbital Energies and Occupations

         #    Occupation            Energy/Eh            Energy/eV
      -------------------------------------------------------------
         1        2.0000           -0.7794166             -21.2090
       ...           ...                  ...                  ...
        84        2.0000           -0.4303659             -11.7109
        85        2.0000           -0.4296791             -11.6922
        86        2.0000           -0.4290764             -11.6758
        87        2.0000           -0.4280417             -11.6476
        88        2.0000           -0.4224223             -11.4947
        89        2.0000           -0.4147360             -11.2855
        90        2.0000           -0.4098753             -11.1533
        91        2.0000           -0.4086355             -11.1195
        92        2.0000           -0.4052081             -11.0263
        93        2.0000           -0.4039302             -10.9915
        94        2.0000           -0.3990256             -10.8580
        95        2.0000           -0.3936994             -10.7131
        96        2.0000           -0.3495105              -9.5107 (HOMO)
        97                         -0.3056227              -8.3164 (LUMO)
        98                         -0.2665907              -7.2543
        99                         -0.2571835              -6.9983
       100                         -0.2538608              -6.9079
       101                         -0.2474204              -6.7327
       102                         -0.2449410              -6.6652
       103                         -0.2259618              -6.1487
       104                         -0.2208458              -6.0095
       105                         -0.2195587              -5.9745
       106                         -0.2119046              -5.7662
       107                         -0.1909320              -5.1955
       ...                                ...                  ...
       188                          1.1667245              31.7482
      -------------------------------------------------------------
                  HL-Gap            0.0438878 Eh            1.1942 eV

     #   Z          covCN         q      C6AA      α(0)
     1   6 C        3.761    -0.104    22.535     6.767
     2   6 C        3.909     0.021    20.160     6.382
     3   6 C        3.761    -0.104    22.528     6.766
     4   6 C        2.979    -0.012    28.316     8.729
     5   6 C        2.928    -0.037    28.921     8.819
     6   6 C        2.917    -0.045    29.114     8.848
     7   6 C        2.919    -0.034    28.853     8.809
     8   6 C        2.924    -0.059    29.474     8.903
     9   6 C        2.927     0.057    26.719     8.477
    10   7 N        2.753    -0.067    22.530     7.050
    11   6 C        2.926     0.078    26.255     8.403
    12   6 C        2.919    -0.035    28.877     8.812
    13   6 C        2.923    -0.015    28.386     8.737
    14   6 C        2.971    -0.015    28.385     8.739
    15   6 C        2.828     0.230    23.174     7.888
    16   8 O        0.858    -0.401    21.703     6.246
    17   6 C        2.972    -0.002    28.064     8.690
    18   6 C        2.922    -0.020    28.496     8.754
    19   6 C        2.951    -0.021    28.538     8.762
    20   6 C        2.971    -0.067    29.652     8.932
    21  16 S        3.817     0.940   108.383    17.522
    22   8 O        0.860    -0.576    25.523     6.774
    23   8 O        0.860    -0.574    25.490     6.769
    24   6 C        2.972    -0.071    29.762     8.949
    25   6 C        2.961    -0.027    28.666     8.782
    26   6 C        2.922    -0.020    28.516     8.757
    27   6 C        2.920    -0.020    28.511     8.756
    28   6 C        2.922    -0.020    28.518     8.757
    29   6 C        2.954    -0.023    28.587     8.770
    30   6 C        2.956    -0.023    28.587     8.770
    31   6 C        2.926    -0.011    28.294     8.723
    32   6 C        2.919    -0.026    28.642     8.776
    33   6 C        2.920    -0.036    28.900     8.816
    34   6 C        2.926     0.057    26.720     8.477
    35   6 C        2.924    -0.060    29.495     8.906
    36   6 C        2.919    -0.034    28.857     8.809
    37   6 C        2.917    -0.045    29.118     8.849
    38   6 C        2.928    -0.037    28.919     8.819
    39   6 C        2.979    -0.012    28.315     8.729
    40   1 H        0.925     0.042     2.419     2.432
    41   1 H        0.925     0.031     2.572     2.508
    42   1 H        0.925     0.042     2.422     2.434
    43   1 H        0.925     0.030     2.580     2.512
    44   1 H        0.925     0.042     2.421     2.433
    45   1 H        0.925     0.042     2.423     2.434
    46   1 H        0.926     0.034     2.530     2.488
    47   1 H        0.926     0.027     2.630     2.536
    48   1 H        0.926     0.028     2.616     2.529
    49   1 H        0.926     0.026     2.638     2.540
    50   1 H        0.926     0.055     2.257     2.349
    51   1 H        0.926     0.058     2.226     2.333
    52   1 H        0.926     0.070     2.082     2.257
    53   1 H        0.926     0.070     2.084     2.257
    54   1 H        0.926     0.055     2.262     2.352
    55   1 H        0.926     0.065     2.145     2.290
    56   1 H        0.926     0.065     2.140     2.287
    57   1 H        0.926     0.063     2.160     2.298
    58   1 H        0.926     0.059     2.215     2.327
    59   1 H        0.926     0.063     2.161     2.299
    60   1 H        0.926     0.072     2.067     2.248
    61   1 H        0.926     0.056     2.245     2.343
    62   1 H        0.926     0.058     2.220     2.330
    63   1 H        0.926     0.027     2.628     2.535
    64   1 H        0.926     0.028     2.610     2.526
    65   1 H        0.926     0.027     2.633     2.538
    66   1 H        0.926     0.034     2.533     2.489

molecular dipole:
                 x           y           z       tot (Debye)
 q only:       -1.855      -0.566       2.898
   full:       -1.707      -0.450       2.768       8.345

 projected vibrational frequencies (cm⁻¹)
eigval :       -0.00    -0.00    -0.00     0.00     0.00     0.00
eigval :       -3.59    10.90    15.04    19.96    23.43    33.45
eigval :       37.10    48.05    59.35    68.19    91.86   103.54
eigval :      104.57   108.56   128.37   132.01   139.39   154.48
eigval :      174.30   188.16   191.85   213.46   220.82   228.09
eigval :      237.47   263.03   283.43   289.47   304.65   318.54
eigval :      320.91   331.98   344.71   359.15   364.66   365.64
eigval :      376.81   381.33   387.73   404.74   410.90   428.26
eigval :      440.09   453.33   470.87   483.76   495.71   512.41
eigval :      514.64   528.84   547.23   552.02   573.77   581.38
eigval :      584.25   592.43   595.26   608.19   637.47   649.98
eigval :      657.04   673.11   683.41   688.70   692.80   694.67
eigval :      726.24   732.92   748.63   766.76   776.57   778.37
eigval :      816.45   822.21   829.35   867.18   868.78   871.38
eigval :      877.66   878.34   898.32   908.49   909.00   912.27
eigval :      914.48   916.05   920.18   922.38   923.76   926.50
eigval :      928.04   930.09   932.68   936.80   942.98   956.34
eigval :      965.67  1000.85  1013.58  1022.59  1067.02  1069.93
eigval :     1075.83  1084.23  1101.45  1109.82  1114.00  1115.47
eigval :     1118.46  1119.16  1128.46  1139.91  1157.83  1166.17
eigval :     1171.95  1174.18  1174.61  1176.14  1183.78  1186.82
eigval :     1187.51  1192.02  1205.86  1242.37  1244.54  1249.39
eigval :     1257.00  1257.36  1258.06  1267.98  1293.41  1310.59
eigval :     1313.38  1318.36  1318.61  1324.30  1331.37  1332.00
eigval :     1387.49  1400.46  1401.22  1419.05  1426.93  1434.29
eigval :     1437.58  1440.43  1445.11  1468.45  1474.60  1486.06
eigval :     1487.09  1493.15  1496.96  1501.74  1550.57  1568.23
eigval :     1572.00  1572.78  1573.65  1577.90  1588.99  1590.16
eigval :     1595.36  1599.77  1656.63  3020.96  3023.48  3039.34
eigval :     3041.26  3048.00  3051.96  3073.73  3073.82  3080.41
eigval :     3081.20  3086.35  3086.42  3088.53  3091.08  3091.38
eigval :     3092.47  3093.29  3094.32  3096.47  3097.19  3099.39
eigval :     3100.96  3102.40  3103.02  3103.62  3105.55  3107.93

   temp. (K)  partition function   enthalpy   heat capacity  entropy
                                   cal/mol     cal/K/mol   cal/K/mol   J/K/mol
 298.15  VIB  0.343E+17            19730.814    120.896    124.632
         ROT  0.625E+08              888.752      2.981     38.653
         INT  0.214E+25            20619.566    123.877    163.285
         TR   0.118E+29             1481.254      4.968     44.667
         TOT                       22100.8202   128.8448   207.9518   870.0705

       T/K    H(0)-H(T)+PV         H(T)/Eh          T*S/Eh         G(T)/Eh
   ------------------------------------------------------------------------
    298.15    0.352199E-01    0.541168E+00    0.988046E-01    0.442364E+00
   ------------------------------------------------------------------------

         :::::::::::::::::::::::::::::::::::::::::::::::::::::
         ::                  THERMODYNAMIC                  ::
         :::::::::::::::::::::::::::::::::::::::::::::::::::::
         :: total free energy        -104.524794284807 Eh   ::
         ::.................................................::
         :: total energy             -104.967157962365 Eh   ::
         :: zero point energy           0.505948406894 Eh   ::
         :: G(RRHO) w/o ZPVE           -0.063584729336 Eh   ::
         :: G(RRHO) contrib.            0.442363677558 Eh   ::
         :::::::::::::::::::::::::::::::::::::::::::::::::::::

           -------------------------------------------------
          | TOTAL ENERGY             -104.967157962365 Eh   |
          | TOTAL ENTHALPY           -104.425989656582 Eh   |
          | TOTAL FREE ENERGY        -104.524794284807 Eh   |
          | GRADIENT NORM               0.000029482107 Eh/α |
          | HOMO-LUMO GAP               1.194249121896 eV   |
           -------------------------------------------------

 * finished run on 2025/07/20 at 04:40:06.292
