   * xtb version 6.7.1 (edcfbbe) compiled by 'albert@albert-system' on 2024-07-22

   ID    Z sym.   atoms
    1    6 C      1-9, 11-15, 17-20, 24-39
    2    7 N      10
    3    8 O      16, 22, 23
    4   16 S      21
    5    1 H      40-66

          program call               : xtb data2507/toluene/PS-BZ-DMAC/PS-BZ-DMAC_toluene_S0_finalOpt.xtbopt.xyz --gfn 2 --uhf 2 --gbsa toluene --ohess vtight --parallel 40 --molden --ceasefiles --namespace data2507/toluene/PS-BZ-DMAC/PS-BZ-DMAC_toluene_T1_preOpt
      * Solvation model:               GBSA
        Solvent                        toluene
        Solvent mass                       9.2140E+01 g/mol
          :  Hamiltonian                  GFN2-xTB          :
 * total energy  :  -104.8804248 Eh     change       -0.2263036E-08 Eh
 * total energy  :  -104.8836661 Eh     change       -0.3241271E-02 Eh
 * total energy  :  -104.8847791 Eh     change       -0.1113021E-02 Eh
 * total energy  :  -104.8850644 Eh     change       -0.2853077E-03 Eh
 * total energy  :  -104.8853696 Eh     change       -0.3051692E-03 Eh
 * total energy  :  -104.8856004 Eh     change       -0.2307919E-03 Eh
 * total energy  :  -104.8857941 Eh     change       -0.1936733E-03 Eh
 * total energy  :  -104.8859048 Eh     change       -0.1106801E-03 Eh
 * total energy  :  -104.8859744 Eh     change       -0.6963076E-04 Eh
 * total energy  :  -104.8860379 Eh     change       -0.6350521E-04 Eh
 * total energy  :  -104.8869749 Eh     change       -0.3068985E-06 Eh
 * total energy  :  -104.8869752 Eh     change       -0.3646551E-06 Eh
 * total energy  :  -104.8869756 Eh     change       -0.3281006E-06 Eh
 * total energy  :  -104.8869758 Eh     change       -0.2744318E-06 Eh
 * total energy  :  -104.8869761 Eh     change       -0.3020872E-06 Eh
 * total energy  :  -104.8869764 Eh     change       -0.2694109E-06 Eh
 * total energy  :  -104.8869766 Eh     change       -0.1816759E-06 Eh
 * total energy  :  -104.8869767 Eh     change       -0.1084972E-06 Eh
 * total energy  :  -104.8869767 Eh     change       -0.1227158E-07 Eh
   *** GEOMETRY OPTIMIZATION CONVERGED AFTER 163 ITERATIONS ***

 final structure:
================
66
 xtb: 6.7.1 (edcfbbe)
C           -7.88628681654067        0.90490139070494        1.09155234450369
C           -6.43211074795837        0.50485740658031        0.83750971137659
C           -5.79413286601164        0.13675920149994        2.19489434431172
C           -5.62630041130999        1.62083673963782        0.20030758285503
C           -6.02651016002283        2.94552731856797        0.14075297913761
C           -5.23233727424957        3.90432500402981       -0.46944555989553
C           -4.02700476952575        3.54658494613999       -1.05313990119040
C           -3.60053293275305        2.23492879418086       -0.99903381241178
C           -4.38030542595728        1.27880393565794       -0.34898200154532
N           -3.99749767165514       -0.06921011366307       -0.31530681085253
C           -2.74837915575745       -0.49429840407961        0.08283563938932
C           -2.43316482583296       -1.86857530820477        0.17885423916584
C           -1.18426740698934       -2.27641904003835        0.56174829403517
C           -0.16395084737192       -1.34862544251694        0.86524904961869
C            1.14960677589763       -1.84494544168685        1.26684264077473
O            1.21399736908546       -3.00422084327796        1.78009883131639
C            2.32571658205210       -1.02103892639445        1.11601214712349
C            2.41024139801452        0.04638601671150        0.19575944226981
C            3.57046711551309        0.77071141023181        0.07075990440197
C            4.67364190431522        0.46069311255861        0.85930145317455
S            6.19048467750566        1.35549992463317        0.65099042271424
O            5.91331080551050        2.61854183675423       -0.01128087128438
O            6.89120168134794        1.43012962329905        1.92064878621047
C            7.15952036147396        0.33408574501247       -0.46525421612506
C            6.90583746873538        0.39939171924695       -1.82253611696048
C            7.60950023271864       -0.42712942181056       -2.68240087078301
C            8.55017831965666       -1.31148496124514       -2.17569691879921
C            8.79537634543891       -1.36941452700925       -0.81232222169306
C            8.09383097750404       -0.54350978139188        0.05069547888023
C            4.63241586373328       -0.61437201205456        1.74257259216644
C            3.48041901386796       -1.34777320645823        1.86438298712511
C           -0.53218405022931        0.01149877446710        0.93040056983637
C           -1.78025993288674        0.42638728478969        0.54760368651140
C           -5.04535370937137       -0.93809523610978       -0.65108274495612
C           -4.86673153974989       -1.96382046076038       -1.57873111011436
C           -5.92874696465933       -2.78066541496831       -1.91182491861071
C           -7.16953406061909       -2.56933808307473       -1.33178602850402
C           -7.35852052091716       -1.51817384503846       -0.44762557067905
C           -6.31223242326522       -0.67807144281992       -0.10422284352930
H           -7.92704394880142        1.74668248261783        1.77723898515453
H           -8.42257549031544        0.08400339535957        1.55944948209781
H           -8.38500143288375        1.17494327103188        0.16384395524527
H           -4.75641983728083       -0.16761469396650        2.08715716298818
H           -5.83143430324423        0.99439170664926        2.86265574959501
H           -6.34520737233242       -0.68316327699901        2.64948492766745
H           -6.96830358932519        3.24717600438782        0.56754964131627
H           -5.56624080081430        4.92990548225555       -0.50605401759365
H           -3.42553110414875        4.28484204940022       -1.56070428347399
H           -2.68685576049415        1.93486885896921       -1.48903767359989
H           -3.18420883139217       -2.61406074625488       -0.02369985821731
H           -0.94742951706405       -3.32718954642182        0.63238790977323
H            1.57121801506393        0.27076771879059       -0.44452998714909
H            3.65088143717678        1.59362614622690       -0.62298556492623
H            6.17543509351208        1.10659234823686       -2.18308084964259
H            7.42427449888782       -0.38117319936530       -3.74482456168118
H            9.09741135740652       -1.95605886150031       -2.84708027346415
H            9.53135152301346       -2.05512134903235       -0.42061432394600
H            8.26591458081705       -0.55181288859737        1.11592184414558
H            5.50831333223699       -0.83724236817322        2.33234199283456
H            3.42122376350310       -2.18356333646130        2.54593965806459
H            0.17014816311639        0.73230305581722        1.31903484647628
H           -2.03234186828509        1.46986759020521        0.64551214932243
H           -3.90985927303300       -2.08563693804630       -2.06270971585609
H           -5.79018938655167       -3.57203212196722       -2.63226768393407
H           -8.00008475471238       -3.21016917822039       -1.58494420096672
H           -8.33918211797842       -1.36018471220055       -0.03121222449731

          :  Hamiltonian                  GFN2-xTB          :
         :: gradient norm              0.000097800113 Eh/a0 ::
         :: HOMO-LUMO gap              0.895180861454 eV    ::
         :: SCC energy              -106.613673370471 Eh    ::
         :: -> dispersion             -0.088855742614 Eh    ::
         :: -> Gsolv                  -0.067743702535 Eh    ::
         :: repulsion energy           1.726696667450 Eh    ::

    * Orbital Energies and Occupations

         #    Occupation            Energy/Eh            Energy/eV
      -------------------------------------------------------------
         1        2.0000           -0.7637852             -20.7837
       ...           ...                  ...                  ...
        85        2.0000           -0.4239747             -11.5369
        86        2.0000           -0.4226583             -11.5011
        87        2.0000           -0.4212180             -11.4619
        88        2.0000           -0.4207003             -11.4478
        89        2.0000           -0.4196977             -11.4206
        90        2.0000           -0.4181949             -11.3797
        91        2.0000           -0.4167034             -11.3391
        92        2.0000           -0.4125798             -11.2269
        93        2.0000           -0.4076400             -11.0924
        94        2.0000           -0.3979443             -10.8286
        95        1.8373           -0.3808013             -10.3621
        96        1.1627           -0.3776881             -10.2774
        97        1.0000           -0.2905100              -7.9052 (HOMO)
        98                         -0.2576127              -7.0100 (LUMO)
        99                         -0.2477906              -6.7427
       100                         -0.2461293              -6.6975
       101                         -0.2449067              -6.6643
       102                         -0.2396319              -6.5207
       103                         -0.2391955              -6.5088
       104                         -0.2359693              -6.4211
       105                         -0.2305601              -6.2739
       106                         -0.2266451              -6.1673
       107                         -0.1865490              -5.0763
       108                         -0.1287115              -3.5024
       ...                                ...                  ...
       188                          1.1556690              31.4474
      -------------------------------------------------------------
                  HL-Gap            0.0328973 Eh            0.8952 eV

     #   Z          covCN         q      C6AA      α(0)
     1   6 C        3.759    -0.114    22.737     6.798
     2   6 C        3.911     0.025    20.095     6.372
     3   6 C        3.761    -0.103    22.516     6.764
     4   6 C        2.987     0.004    27.917     8.667
     5   6 C        2.921    -0.032    28.788     8.799
     6   6 C        2.919    -0.026    28.641     8.776
     7   6 C        2.918    -0.027    28.676     8.781
     8   6 C        2.918    -0.038    28.937     8.821
     9   6 C        2.955     0.051    26.860     8.501
    10   7 N        2.754     0.012    21.039     6.812
    11   6 C        2.911     0.056    26.739     8.479
    12   6 C        2.915    -0.042    29.038     8.836
    13   6 C        2.920    -0.024    28.599     8.770
    14   6 C        2.967     0.005    27.910     8.666
    15   6 C        2.832     0.170    24.343     8.085
    16   8 O        0.858    -0.489    23.552     6.507
    17   6 C        2.968    -0.017    28.431     8.746
    18   6 C        2.919    -0.042    29.042     8.837
    19   6 C        2.953    -0.032    28.803     8.803
    20   6 C        2.970    -0.092    30.304     9.030
    21  16 S        3.823     0.908   109.340    17.599
    22   8 O        0.860    -0.584    25.718     6.799
    23   8 O        0.860    -0.587    25.795     6.809
    24   6 C        2.971    -0.071    29.758     8.948
    25   6 C        2.958    -0.027    28.668     8.782
    26   6 C        2.921    -0.023    28.585     8.768
    27   6 C        2.920    -0.024    28.605     8.771
    28   6 C        2.921    -0.023    28.584     8.767
    29   6 C        2.955    -0.025    28.637     8.777
    30   6 C        2.955    -0.033    28.820     8.805
    31   6 C        2.925    -0.029    28.718     8.788
    32   6 C        2.915    -0.035    28.860     8.809
    33   6 C        2.916    -0.041    29.020     8.834
    34   6 C        2.954     0.051    26.857     8.500
    35   6 C        2.918    -0.038    28.939     8.822
    36   6 C        2.918    -0.027    28.675     8.781
    37   6 C        2.918    -0.025    28.638     8.776
    38   6 C        2.922    -0.032    28.789     8.799
    39   6 C        2.987     0.005    27.912     8.666
    40   1 H        0.925     0.053     2.278     2.360
    41   1 H        0.925     0.053     2.277     2.360
    42   1 H        0.925     0.049     2.332     2.388
    43   1 H        0.925     0.036     2.496     2.471
    44   1 H        0.925     0.051     2.308     2.376
    45   1 H        0.925     0.051     2.304     2.374
    46   1 H        0.926     0.063     2.163     2.300
    47   1 H        0.926     0.051     2.301     2.372
    48   1 H        0.926     0.051     2.308     2.376
    49   1 H        0.926     0.054     2.267     2.355
    50   1 H        0.926     0.061     2.193     2.316
    51   1 H        0.926     0.051     2.307     2.375
    52   1 H        0.926     0.050     2.316     2.380
    53   1 H        0.926     0.045     2.383     2.414
    54   1 H        0.926     0.051     2.313     2.378
    55   1 H        0.926     0.060     2.204     2.322
    56   1 H        0.926     0.061     2.191     2.315
    57   1 H        0.926     0.058     2.220     2.330
    58   1 H        0.926     0.050     2.315     2.379
    59   1 H        0.926     0.038     2.482     2.464
    60   1 H        0.926     0.045     2.380     2.412
    61   1 H        0.926     0.049     2.335     2.390
    62   1 H        0.926     0.060     2.196     2.317
    63   1 H        0.926     0.055     2.260     2.351
    64   1 H        0.926     0.051     2.302     2.373
    65   1 H        0.926     0.052     2.297     2.370
    66   1 H        0.926     0.063     2.163     2.300

molecular dipole:
                 x           y           z       tot (Debye)
 q only:       -8.697      -0.225      -2.903
   full:       -8.390      -0.101      -2.835      22.512

 projected vibrational frequencies (cm⁻¹)
eigval :       -0.00    -0.00     0.00     0.00     0.00     0.00
eigval :        6.45    11.21    18.62    24.59    29.74    35.64
eigval :       47.89    59.25    63.66    78.19    90.28   105.62
eigval :      129.34   139.12   140.44   143.85   162.46   172.05
eigval :      185.26   190.42   199.07   216.44   231.29   259.89
eigval :      267.01   281.24   286.26   292.36   304.90   315.23
eigval :      326.78   329.24   340.03   359.24   364.17   365.67
eigval :      371.43   387.25   392.32   395.88   406.23   420.56
eigval :      427.46   456.39   460.00   464.49   493.75   501.45
eigval :      507.30   515.21   548.44   554.07   560.10   569.64
eigval :      574.41   584.24   584.80   593.86   607.76   621.15
eigval :      653.06   656.13   666.52   675.37   688.62   689.71
eigval :      717.21   723.33   745.60   756.82   773.49   781.53
eigval :      797.57   808.92   810.03   829.34   855.20   876.63
eigval :      881.41   883.78   888.27   902.79   903.79   906.34
eigval :      907.29   911.36   918.55   918.79   924.38   926.07
eigval :      929.39   930.61   940.54   943.30   946.05   964.96
eigval :      967.16   979.95   996.70  1007.27  1055.61  1069.39
eigval :     1071.09  1073.60  1094.89  1096.21  1100.75  1102.86
eigval :     1113.23  1122.15  1131.45  1146.13  1147.17  1164.97
eigval :     1165.83  1168.14  1173.14  1175.07  1177.84  1178.98
eigval :     1183.37  1189.58  1215.56  1225.42  1241.22  1248.07
eigval :     1253.57  1255.07  1259.30  1261.06  1265.17  1274.27
eigval :     1314.71  1319.29  1320.56  1323.58  1329.51  1342.19
eigval :     1394.81  1402.69  1407.20  1411.51  1413.26  1420.10
eigval :     1424.77  1427.18  1429.99  1433.92  1438.82  1441.97
eigval :     1449.78  1457.56  1484.30  1488.61  1497.60  1498.58
eigval :     1515.98  1528.35  1551.66  1558.66  1567.96  1569.58
eigval :     1571.91  1579.25  1592.08  3034.72  3035.64  3040.01
eigval :     3040.46  3050.00  3054.79  3082.65  3082.95  3084.54
eigval :     3087.81  3087.83  3088.31  3092.97  3093.13  3093.61
eigval :     3094.81  3095.06  3095.55  3096.82  3100.67  3102.34
eigval :     3102.80  3103.77  3110.80  3115.22  3121.79  3122.17

   temp. (K)  partition function   enthalpy   heat capacity  entropy
                                   cal/mol     cal/K/mol   cal/K/mol   J/K/mol
 298.15  VIB  0.238E+16            19566.883    122.520    121.399
         ROT  0.619E+08              888.752      2.981     38.635
         INT  0.147E+24            20455.635    125.501    160.034
         TR   0.118E+29             1481.254      4.968     44.667
         TOT                       21936.8888   130.4695   204.7005   856.4667

       T/K    H(0)-H(T)+PV         H(T)/Eh          T*S/Eh         G(T)/Eh
   ------------------------------------------------------------------------
    298.15    0.349587E-01    0.538831E+00    0.972598E-01    0.441571E+00
   ------------------------------------------------------------------------

         :::::::::::::::::::::::::::::::::::::::::::::::::::::
         ::                  THERMODYNAMIC                  ::
         :::::::::::::::::::::::::::::::::::::::::::::::::::::
         :: total free energy        -104.445405930155 Eh   ::
         ::.................................................::
         :: total energy             -104.886976707526 Eh   ::
         :: zero point energy           0.503871910095 Eh   ::
         :: G(RRHO) w/o ZPVE           -0.062301132724 Eh   ::
         :: G(RRHO) contrib.            0.441570777371 Eh   ::
         :::::::::::::::::::::::::::::::::::::::::::::::::::::

           -------------------------------------------------
          | TOTAL ENERGY             -104.886976707526 Eh   |
          | TOTAL ENTHALPY           -104.348146139935 Eh   |
          | TOTAL FREE ENERGY        -104.445405930155 Eh   |
          | GRADIENT NORM               0.000097724817 Eh/α |
          | HOMO-LUMO GAP               0.895180728939 eV   |
           -------------------------------------------------

 * finished run on 2025/07/20 at 04:45:45.737
