   * xtb version 6.7.1 (edcfbbe) compiled by 'albert@albert-system' on 2024-07-22

   ID    Z sym.   atoms
    1    6 C      1-9, 11-15, 17-20, 24-39
    2    7 N      10
    3    8 O      16, 22, 23
    4   16 S      21
    5    1 H      40-66

          program call               : xtb data2507/toluene/PS-BZ-DMAC/PS-BZ-DMAC_toluene_S0_crest.xyz --gfn 2 --gbsa toluene --ohess vtight --parallel 40 --molden --ceasefiles --namespace data2507/toluene/PS-BZ-DMAC/PS-BZ-DMAC_toluene_S0_finalOpt
      * Solvation model:               GBSA
        Solvent                        toluene
        Solvent mass                       9.2140E+01 g/mol
          :  Hamiltonian                  GFN2-xTB          :
 * total energy  :  -104.9683731 Eh     change       -0.6878906E-09 Eh
 * total energy  :  -104.9685459 Eh     change       -0.1728802E-03 Eh
 * total energy  :  -104.9686204 Eh     change       -0.7446980E-04 Eh
 * total energy  :  -104.9686344 Eh     change       -0.1400819E-04 Eh
 * total energy  :  -104.9686506 Eh     change       -0.1615768E-04 Eh
 * total energy  :  -104.9686566 Eh     change       -0.6010790E-05 Eh
 * total energy  :  -104.9686672 Eh     change       -0.1060527E-04 Eh
 * total energy  :  -104.9686735 Eh     change       -0.6313616E-05 Eh
 * total energy  :  -104.9686805 Eh     change       -0.6959845E-05 Eh
 * total energy  :  -104.9686882 Eh     change       -0.7715867E-05 Eh
 * total energy  :  -104.9687426 Eh     change       -0.5683628E-06 Eh
 * total energy  :  -104.9687430 Eh     change       -0.3789777E-06 Eh
 * total energy  :  -104.9687433 Eh     change       -0.2496792E-06 Eh
 * total energy  :  -104.9687435 Eh     change       -0.1979696E-06 Eh
 * total energy  :  -104.9687437 Eh     change       -0.1811292E-06 Eh
 * total energy  :  -104.9687438 Eh     change       -0.1582518E-06 Eh
 * total energy  :  -104.9687439 Eh     change       -0.1362612E-06 Eh
 * total energy  :  -104.9687441 Eh     change       -0.1078808E-06 Eh
 * total energy  :  -104.9687441 Eh     change       -0.7672136E-07 Eh
   *** GEOMETRY OPTIMIZATION CONVERGED AFTER 43 ITERATIONS ***

 final structure:
================
66
 xtb: 6.7.1 (edcfbbe)
C           -7.68741140604303        1.01632384559849        1.50024529714683
C           -6.30207057788816        0.57345813846285        1.02874690894516
C           -5.47587492982514        0.18745547198765        2.27314347475135
C           -5.57186662138524        1.66614134480612        0.26552059620442
C           -5.96241383891493        2.99627021760607        0.23245546319500
C           -5.25185314001041        3.92844202927833       -0.50588046748952
C           -4.15321173785040        3.53748386435208       -1.25076826271031
C           -3.75206701873984        2.21413920539976       -1.23972111036287
C           -4.43748058919394        1.29040271017878       -0.46082959618531
N           -4.07953288979981       -0.07683428926952       -0.46423534732767
C           -2.82863456618763       -0.53589310419808       -0.14770139126712
C           -2.56337502382684       -1.91280428553920       -0.02991530572770
C           -1.30559750373690       -2.36295616917925        0.27983762082510
C           -0.23966150466282       -1.47662122020080        0.48320404941380
C            1.08304020679896       -2.01298932617417        0.79192739668636
O            1.26025200685337       -3.16489482524743        1.17336709224643
C            2.25265772839872       -1.09665447641573        0.61843415580258
C            2.38225465618104       -0.29934093843201       -0.51722565040239
C            3.49777261068930        0.50530422851778       -0.67306756435335
C            4.46903490335715        0.51555897584918        0.30951042377607
S            5.93707862591381        1.53324866202528        0.10411259522489
O            5.72941609003505        2.41846893141952       -1.02301353644339
O            6.25258606223274        2.15444179173082        1.37346155321019
C            7.22659220278905        0.35453406077496       -0.30485538267595
C            7.24630780758449       -0.18889955742117       -1.57540865063450
C            8.21532291995538       -1.12706724359711       -1.89087224864028
C            9.14336347791979       -1.51025895477664       -0.93390593677163
C            9.11174318667113       -0.95782508250764        0.33722191587864
C            8.14424796409410       -0.01873650028444        0.65745725821899
C            4.36453846667592       -0.27911373802528        1.43602716414033
C            3.25667552577207       -1.09354754750178        1.58489166302761
C           -0.51979039248186       -0.10511017308454        0.45102725300475
C           -1.78068587002732        0.35233831162865        0.15717464766105
C           -5.20350604800337       -0.91591036813846       -0.63989226841766
C           -5.19592221010437       -1.93980178666562       -1.57868228090130
C           -6.32549070540781       -2.71684417520401       -1.75872948952751
C           -7.46618990500861       -2.45202786327019       -1.02157248722700
C           -7.48728598597707       -1.39871742265053       -0.12222216836234
C           -6.36258633250877       -0.61359903128831        0.08168508219857
H           -7.59835110926639        1.86008938325958        2.17973168291260
H           -8.17074388734027        0.21126236106513        2.04782592570322
H           -8.31490215761822        1.30142479715714        0.65876021569823
H           -4.47580549731755       -0.14613597291158        2.01029304006478
H           -5.38601190017669        1.04577984793101        2.93577192312707
H           -5.97341977464614       -0.61739891845968        2.81020005846101
H           -6.82823584465566        3.32299788044987        0.78448411308048
H           -5.56908146270677        4.96062624662803       -0.51082945384478
H           -3.61534388882488        4.25634414109355       -1.85055138661379
H           -2.91968827661314        1.89034876670072       -1.84639251251666
H           -3.35986241234172       -2.62757209604094       -0.15840580428919
H           -1.11093409578918       -3.42244572650982        0.36294778211489
H            1.62051770368162       -0.32313886490236       -1.28154084572859
H            3.62536496773801        1.13828583961370       -1.53748237724860
H            6.51744903161551        0.14012163428325       -2.29916654273146
H            8.24626052765118       -1.55710770157072       -2.88021800533980
H            9.89790158985425       -2.24156470172192       -1.18162944463851
H            9.83764224288979       -1.25591266427780        1.07815209469075
H            8.09327196879278        0.44122738159625        1.63215105273322
H            5.14179864888364       -0.24328436820295        2.18270452561925
H            3.15199707995773       -1.73060893612608        2.45039542957282
H            0.25411740677999        0.60792550173116        0.69276451189086
H           -1.97059080880821        1.41317889294910        0.18832862307043
H           -4.31311207655588       -2.11314911997409       -2.17563635061188
H           -6.31569456451008       -3.51818234806468       -2.48230267889949
H           -8.35067485488466       -3.05624593521549       -1.15770732806543
H           -8.39656326091687       -1.19806180882953        0.42010229015299

          :  Hamiltonian                  GFN2-xTB          :
         :: gradient norm              0.000075356920 Eh/a0 ::
         :: HOMO-LUMO gap              1.919759899914 eV    ::
         :: SCC energy              -106.711447649146 Eh    ::
         :: -> dispersion             -0.089188970937 Eh    ::
         :: -> Gsolv                  -0.053297239832 Eh    ::
         :: repulsion energy           1.742703515805 Eh    ::

    * Orbital Energies and Occupations

         #    Occupation            Energy/Eh            Energy/eV
      -------------------------------------------------------------
         1        2.0000           -0.7773362             -21.1524
       ...           ...                  ...                  ...
        84        2.0000           -0.4286289             -11.6636
        85        2.0000           -0.4275799             -11.6350
        86        2.0000           -0.4267514             -11.6125
        87        2.0000           -0.4218657             -11.4795
        88        2.0000           -0.4209906             -11.4557
        89        2.0000           -0.4156469             -11.3103
        90        2.0000           -0.4134143             -11.2496
        91        2.0000           -0.4112598             -11.1909
        92        2.0000           -0.4061192             -11.0511
        93        2.0000           -0.4031274             -10.9697
        94        2.0000           -0.4023195             -10.9477
        95        2.0000           -0.3934624             -10.7067
        96        2.0000           -0.3632231              -9.8838 (HOMO)
        97                         -0.2926734              -7.9640 (LUMO)
        98                         -0.2627708              -7.1504
        99                         -0.2520735              -6.8593
       100                         -0.2487739              -6.7695
       101                         -0.2458730              -6.6905
       102                         -0.2324884              -6.3263
       103                         -0.2306731              -6.2769
       104                         -0.2272215              -6.1830
       105                         -0.2261946              -6.1551
       106                         -0.2239640              -6.0944
       107                         -0.1870334              -5.0894
       ...                                ...                  ...
       188                          1.1640313              31.6749
      -------------------------------------------------------------
                  HL-Gap            0.0705497 Eh            1.9198 eV

     #   Z          covCN         q      C6AA      α(0)
     1   6 C        3.759    -0.110    22.645     6.784
     2   6 C        3.910     0.023    20.127     6.377
     3   6 C        3.761    -0.100    22.455     6.755
     4   6 C        2.987    -0.004    28.125     8.699
     5   6 C        2.923    -0.038    28.934     8.821
     6   6 C        2.919    -0.036    28.888     8.814
     7   6 C        2.920    -0.033    28.827     8.804
     8   6 C        2.920    -0.046    29.134     8.851
     9   6 C        2.951     0.053    26.807     8.492
    10   7 N        2.754    -0.054    22.291     7.012
    11   6 C        2.911     0.077    26.276     8.405
    12   6 C        2.919    -0.057    29.407     8.893
    13   6 C        2.923    -0.017    28.436     8.745
    14   6 C        2.970    -0.033    28.830     8.807
    15   6 C        2.829     0.223    23.319     7.913
    16   8 O        0.858    -0.433    22.353     6.339
    17   6 C        2.972    -0.001    28.046     8.687
    18   6 C        2.923    -0.021    28.538     8.760
    19   6 C        2.952    -0.023    28.585     8.769
    20   6 C        2.971    -0.070    29.730     8.944
    21  16 S        3.818     0.936   108.496    17.531
    22   8 O        0.860    -0.574    25.498     6.770
    23   8 O        0.860    -0.576    25.524     6.774
    24   6 C        2.972    -0.071    29.772     8.950
    25   6 C        2.961    -0.026    28.653     8.780
    26   6 C        2.922    -0.021    28.524     8.758
    27   6 C        2.920    -0.020    28.518     8.757
    28   6 C        2.922    -0.021    28.528     8.759
    29   6 C        2.955    -0.024    28.601     8.772
    30   6 C        2.957    -0.025    28.622     8.775
    31   6 C        2.925    -0.014    28.356     8.733
    32   6 C        2.919    -0.028    28.696     8.785
    33   6 C        2.920    -0.057    29.417     8.894
    34   6 C        2.951     0.053    26.804     8.492
    35   6 C        2.920    -0.045    29.127     8.850
    36   6 C        2.920    -0.033    28.824     8.804
    37   6 C        2.919    -0.036    28.887     8.814
    38   6 C        2.923    -0.038    28.934     8.821
    39   6 C        2.987    -0.004    28.125     8.699
    40   1 H        0.925     0.046     2.375     2.410
    41   1 H        0.925     0.046     2.374     2.409
    42   1 H        0.925     0.042     2.427     2.436
    43   1 H        0.925     0.034     2.533     2.489
    44   1 H        0.925     0.042     2.416     2.431
    45   1 H        0.925     0.043     2.411     2.428
    46   1 H        0.926     0.048     2.344     2.394
    47   1 H        0.926     0.038     2.482     2.464
    48   1 H        0.926     0.038     2.481     2.463
    49   1 H        0.926     0.041     2.432     2.439
    50   1 H        0.926     0.047     2.360     2.402
    51   1 H        0.926     0.047     2.358     2.402
    52   1 H        0.926     0.066     2.125     2.280
    53   1 H        0.926     0.066     2.125     2.280
    54   1 H        0.926     0.054     2.267     2.354
    55   1 H        0.926     0.063     2.159     2.298
    56   1 H        0.926     0.065     2.144     2.290
    57   1 H        0.926     0.063     2.161     2.299
    58   1 H        0.926     0.058     2.221     2.331
    59   1 H        0.926     0.060     2.196     2.317
    60   1 H        0.926     0.065     2.143     2.289
    61   1 H        0.926     0.039     2.458     2.452
    62   1 H        0.926     0.047     2.362     2.403
    63   1 H        0.926     0.041     2.434     2.440
    64   1 H        0.926     0.038     2.477     2.461
    65   1 H        0.926     0.038     2.478     2.462
    66   1 H        0.926     0.048     2.344     2.394

molecular dipole:
                 x           y           z       tot (Debye)
 q only:       -2.533      -1.040      -0.833
   full:       -2.409      -0.844      -0.843       6.833

 projected vibrational frequencies (cm⁻¹)
eigval :       -0.00    -0.00    -0.00     0.00     0.00     0.00
eigval :        5.37    12.54    15.82    25.22    29.93    32.35
eigval :       44.46    55.41    63.82    72.38    88.10   102.85
eigval :      124.88   131.40   137.49   138.30   167.07   175.39
eigval :      181.84   189.00   196.43   212.80   228.13   258.08
eigval :      263.55   284.75   285.58   294.01   308.35   320.15
eigval :      331.92   340.37   359.76   361.59   363.44   366.46
eigval :      375.59   390.33   400.13   403.22   409.00   425.53
eigval :      450.11   455.07   470.12   476.61   498.47   504.65
eigval :      518.02   536.17   551.50   559.69   573.40   574.93
eigval :      584.05   590.41   595.36   613.42   630.71   643.34
eigval :      657.03   672.42   684.96   692.75   693.53   722.37
eigval :      723.20   725.41   747.06   764.07   777.17   784.93
eigval :      809.17   816.18   822.14   855.91   876.89   878.90
eigval :      884.79   887.54   898.85   906.11   906.47   911.57
eigval :      914.32   916.98   920.33   923.78   927.46   930.10
eigval :      930.66   937.48   941.10   942.28   946.41   965.69
eigval :      967.50   998.45  1009.12  1021.98  1066.33  1069.32
eigval :     1072.35  1078.41  1098.36  1100.93  1104.66  1110.16
eigval :     1116.95  1118.80  1136.30  1150.80  1152.91  1171.39
eigval :     1172.13  1173.16  1176.73  1179.58  1181.38  1188.31
eigval :     1189.53  1197.15  1212.25  1228.23  1246.86  1255.46
eigval :     1256.78  1263.02  1269.98  1271.98  1275.64  1289.33
eigval :     1316.76  1318.42  1318.92  1324.75  1339.42  1350.80
eigval :     1387.00  1396.16  1413.65  1426.37  1426.45  1437.24
eigval :     1440.69  1442.35  1447.87  1451.77  1470.19  1489.85
eigval :     1492.24  1493.12  1504.43  1519.53  1531.77  1568.06
eigval :     1571.18  1572.70  1574.93  1579.07  1583.57  1587.32
eigval :     1595.49  1596.88  1636.77  3026.64  3028.97  3032.46
eigval :     3032.99  3047.25  3052.79  3078.23  3079.14  3083.99
eigval :     3085.21  3085.54  3085.94  3086.37  3091.62  3092.09
eigval :     3094.03  3094.64  3095.22  3097.48  3103.00  3103.36
eigval :     3105.68  3106.08  3109.24  3112.49  3114.09  3114.87

   temp. (K)  partition function   enthalpy   heat capacity  entropy
                                   cal/mol     cal/K/mol   cal/K/mol   J/K/mol
 298.15  VIB  0.369E+16            19420.676    120.932    121.106
         ROT  0.604E+08              888.752      2.981     38.587
         INT  0.223E+24            20309.428    123.913    159.693
         TR   0.118E+29             1481.254      4.968     44.667
         TOT                       21790.6824   128.8813   204.3595   855.0404

       T/K    H(0)-H(T)+PV         H(T)/Eh          T*S/Eh         G(T)/Eh
   ------------------------------------------------------------------------
    298.15    0.347257E-01    0.541646E+00    0.970978E-01    0.444548E+00
   ------------------------------------------------------------------------

         :::::::::::::::::::::::::::::::::::::::::::::::::::::
         ::                  THERMODYNAMIC                  ::
         :::::::::::::::::::::::::::::::::::::::::::::::::::::
         :: total free energy        -104.524196176520 Eh   ::
         ::.................................................::
         :: total energy             -104.968744129350 Eh   ::
         :: zero point energy           0.506920105904 Eh   ::
         :: G(RRHO) w/o ZPVE           -0.062372153074 Eh   ::
         :: G(RRHO) contrib.            0.444547952830 Eh   ::
         :::::::::::::::::::::::::::::::::::::::::::::::::::::

           -------------------------------------------------
          | TOTAL ENERGY             -104.968744129350 Eh   |
          | TOTAL ENTHALPY           -104.427098360697 Eh   |
          | TOTAL FREE ENERGY        -104.524196176520 Eh   |
          | GRADIENT NORM               0.000075267975 Eh/α |
          | HOMO-LUMO GAP               1.919755383857 eV   |
           -------------------------------------------------

 * finished run on 2025/07/20 at 04:45:34.059
