   * xtb version 6.7.1 (edcfbbe) compiled by 'albert@albert-system' on 2024-07-22

   ID    Z sym.   atoms
    1    6 C      1-9, 11-15, 17-20, 24-39
    2    7 N      10
    3    8 O      16, 22, 23
    4   16 S      21
    5    1 H      40-66

          program call               : xtb data2507/toluene/PS-BZ-DMAC/PS-BZ-DMAC_toluene_T1_crest.xyz --gfn 2 --uhf 2 --gbsa toluene --ohess vtight --parallel 40 --molden --ceasefiles --namespace data2507/toluene/PS-BZ-DMAC/PS-BZ-DMAC_toluene_T1_finalOpt
      * Solvation model:               GBSA
        Solvent                        toluene
        Solvent mass                       9.2140E+01 g/mol
          :  Hamiltonian                  GFN2-xTB          :
 * total energy  :  -104.8946621 Eh     change       -0.3414115E-08 Eh
 * total energy  :  -104.8949702 Eh     change       -0.3081579E-03 Eh
 * total energy  :  -104.8951151 Eh     change       -0.1448662E-03 Eh
 * total energy  :  -104.8951404 Eh     change       -0.2528024E-04 Eh
 * total energy  :  -104.8951664 Eh     change       -0.2606714E-04 Eh
 * total energy  :  -104.8951812 Eh     change       -0.1474267E-04 Eh
 * total energy  :  -104.8951961 Eh     change       -0.1496973E-04 Eh
 * total energy  :  -104.8952076 Eh     change       -0.1148697E-04 Eh
 * total energy  :  -104.8952201 Eh     change       -0.1243017E-04 Eh
 * total energy  :  -104.8952300 Eh     change       -0.9896869E-05 Eh
 * total energy  :  -104.8952692 Eh     change       -0.4973682E-06 Eh
 * total energy  :  -104.8952697 Eh     change       -0.5045540E-06 Eh
 * total energy  :  -104.8952703 Eh     change       -0.5615528E-06 Eh
 * total energy  :  -104.8952709 Eh     change       -0.6423269E-06 Eh
 * total energy  :  -104.8952717 Eh     change       -0.7318576E-06 Eh
 * total energy  :  -104.8952723 Eh     change       -0.6782189E-06 Eh
 * total energy  :  -104.8952729 Eh     change       -0.5530755E-06 Eh
 * total energy  :  -104.8952733 Eh     change       -0.3851004E-06 Eh
 * total energy  :  -104.8952733 Eh     change       -0.3323862E-08 Eh
   *** GEOMETRY OPTIMIZATION CONVERGED AFTER 44 ITERATIONS ***

 final structure:
================
66
 xtb: 6.7.1 (edcfbbe)
C           -7.84406418952137       -1.21425076190220        0.82750726209915
C           -6.80549257010573       -1.01169873855864       -0.29618068668632
C           -7.40903581451683       -1.43018369141711       -1.65291695662995
C           -5.60716013552507       -1.88270788912967       -0.00062968990085
C           -5.75709531428953       -3.26078730008949        0.08198114446391
C           -4.69604317315251       -4.09419076842169        0.38541525800333
C           -3.44191411915316       -3.54985764483277        0.63534077140679
C           -3.25978955375492       -2.18951429259491        0.55837481684088
C           -4.32773563361104       -1.33851731787082        0.22220028263506
N           -4.11121547600703        0.01705656094007        0.13247710810863
C           -2.79590810380538        0.51743073162266        0.34565484613599
C           -2.46673613955478        1.15491542653987        1.54456943444825
C           -1.19176949104607        1.62260400725022        1.74284456406396
C           -0.19117037738883        1.45157903361753        0.76477537564909
C            1.13385741378508        1.99577876808818        1.02977829409752
O            1.25248567047466        2.95414486313143        1.85274061569247
C            2.29775494183263        1.45327797985145        0.35873344777612
C            2.35925704596445        0.13567353548567       -0.14172616474470
C            3.50773201969098       -0.33506279250326       -0.73073120772158
C            4.62264372554278        0.48881982670473       -0.83991341851893
S            6.12948866144332       -0.15150624501583       -1.52180399394234
O            5.82865810900985       -1.31150329946748       -2.34299601810772
O            6.87092866254623        0.92044181705648       -2.16161755530579
C            7.05905911972803       -0.70189171706619       -0.08622834291103
C            6.75866047705817       -1.92889068332719        0.47534138958981
C            7.42775607660559       -2.33118275694768        1.61903016243585
C            8.38159227205272       -1.50144173305141        2.18946868753305
C            8.67422165013204       -0.27250449864682        1.61811357432476
C            8.00693131116774        0.13304971978029        0.47385046770696
C            4.60426750154502        1.77637712245879       -0.31288814593770
C            3.46304963323455        2.24929881591490        0.28331821548007
C           -0.55607012109289        0.85953960009591       -0.45699772641027
C           -1.83317922443198        0.39005988252532       -0.65825150853239
C           -5.12157237358559        0.90251231176683       -0.16217651925600
C           -4.82936440100946        2.27330706811997       -0.27889008333477
C           -5.82350062812497        3.18310541403863       -0.55035603303963
C           -7.13219333586898        2.74697678381333       -0.71963024100780
C           -7.42218228687945        1.39751189901839       -0.63158385562418
C           -6.44123818590387        0.45284480145436       -0.36124831945583
H           -8.13471896889678       -2.25781137122187        0.89667667185059
H           -8.73415290745884       -0.62287118805724        0.63708843009176
H           -7.42378315235530       -0.90860304103317        1.78355057530170
H           -6.67680464228911       -1.29157688025668       -2.44577136817936
H           -7.70576851090311       -2.47403136420391       -1.63538993656665
H           -8.28459108710934       -0.83196357309886       -1.88429757102264
H           -6.72611717525040       -3.70110004963232       -0.09041061553489
H           -4.84599016312726       -5.16134509444296        0.43893679602092
H           -2.61085400252224       -4.18807907150156        0.89255329031098
H           -2.28993716862120       -1.76551876903243        0.76197677105060
H           -3.21793298183402        1.26670372100515        2.31251195887686
H           -0.91753520849397        2.11885471181825        2.66187479551438
H            1.51432119733519       -0.52464546906170       -0.02387637133219
H            3.56918636708212       -1.33800218400351       -1.12464586663576
H            6.01961547137373       -2.55358249454885       -0.00127370996334
H            7.20562813459330       -3.28942462614280        2.06358698226035
H            8.90155896256639       -1.81552158197194        3.08202604272309
H            9.42012625688269        0.36959186881947        2.06149938965201
H            8.21518429708041        1.07733562982013       -0.00503522985340
H            5.48918352243160        2.38776075422190       -0.40174164038405
H            3.42378533624460        3.24614713941527        0.69716734988466
H            0.16128670913221        0.80455654934381       -1.26091857307419
H           -2.10547850065284       -0.06242020135522       -1.60074371539400
H           -3.81248504611541        2.61018730222141       -0.15795250911301
H           -5.58141934369441        4.23125339397157       -0.63401122287868
H           -7.91856368478324        3.45539813402761       -0.92919590673590
H           -8.44136863767810        1.07821531995632       -0.77930072419230

          :  Hamiltonian                  GFN2-xTB          :
         :: gradient norm              0.000060731367 Eh/a0 ::
         :: HOMO-LUMO gap              0.946039565684 eV    ::
         :: SCC energy              -106.624182765780 Eh    ::
         :: -> dispersion             -0.088464575189 Eh    ::
         :: -> Gsolv                  -0.069463326538 Eh    ::
         :: repulsion energy           1.728909489428 Eh    ::

    * Orbital Energies and Occupations

         #    Occupation            Energy/Eh            Energy/eV
      -------------------------------------------------------------
         1        2.0000           -0.7638774             -20.7862
       ...           ...                  ...                  ...
        85        2.0000           -0.4260400             -11.5931
        86        2.0000           -0.4249409             -11.5632
        87        2.0000           -0.4211206             -11.4593
        88        2.0000           -0.4206673             -11.4469
        89        2.0000           -0.4186095             -11.3909
        90        2.0000           -0.4178785             -11.3711
        91        2.0000           -0.4123678             -11.2211
        92        2.0000           -0.4101723             -11.1614
        93        2.0000           -0.4073982             -11.0859
        94        2.0000           -0.3978930             -10.8272
        95        1.8101           -0.3785734             -10.3015
        96        1.1899           -0.3758167             -10.2265
        97        1.0000           -0.2902426              -7.8979 (HOMO)
        98                         -0.2554764              -6.9519 (LUMO)
        99                         -0.2551619              -6.9433
       100                         -0.2449071              -6.6643
       101                         -0.2444718              -6.6524
       102                         -0.2407120              -6.5501
       103                         -0.2393542              -6.5132
       104                         -0.2334868              -6.3535
       105                         -0.2270057              -6.1771
       106                         -0.2194525              -5.9716
       107                         -0.1881546              -5.1199
       108                         -0.1282319              -3.4894
       ...                                ...                  ...
       188                          1.1561486              31.4604
      -------------------------------------------------------------
                  HL-Gap            0.0347662 Eh            0.9460 eV

     #   Z          covCN         q      C6AA      α(0)
     1   6 C        3.761    -0.110    22.652     6.785
     2   6 C        3.909     0.027    20.068     6.367
     3   6 C        3.761    -0.111    22.660     6.786
     4   6 C        2.978     0.007    27.861     8.658
     5   6 C        2.924    -0.029    28.726     8.789
     6   6 C        2.917    -0.022    28.556     8.763
     7   6 C        2.917    -0.023    28.571     8.765
     8   6 C        2.921    -0.041    29.022     8.834
     9   6 C        2.931     0.062    26.621     8.462
    10   7 N        2.754     0.015    20.994     6.805
    11   6 C        2.931     0.038    27.160     8.547
    12   6 C        2.915    -0.038    28.946     8.822
    13   6 C        2.924    -0.027    28.666     8.780
    14   6 C        2.968    -0.009    28.251     8.718
    15   6 C        2.834     0.170    24.334     8.084
    16   8 O        0.858    -0.491    23.579     6.510
    17   6 C        2.968    -0.014    28.356     8.735
    18   6 C        2.919    -0.041    29.025     8.835
    19   6 C        2.954    -0.032    28.808     8.803
    20   6 C        2.970    -0.092    30.303     9.030
    21  16 S        3.824     0.908   109.325    17.598
    22   8 O        0.860    -0.583    25.713     6.799
    23   8 O        0.860    -0.586    25.780     6.807
    24   6 C        2.971    -0.071    29.763     8.949
    25   6 C        2.958    -0.027    28.669     8.782
    26   6 C        2.921    -0.023    28.585     8.768
    27   6 C        2.920    -0.024    28.606     8.771
    28   6 C        2.921    -0.023    28.584     8.767
    29   6 C        2.955    -0.026    28.640     8.778
    30   6 C        2.955    -0.033    28.818     8.805
    31   6 C        2.925    -0.029    28.715     8.788
    32   6 C        2.919    -0.039    28.964     8.825
    33   6 C        2.916    -0.038    28.941     8.822
    34   6 C        2.930     0.062    26.616     8.461
    35   6 C        2.921    -0.041    29.014     8.833
    36   6 C        2.917    -0.023    28.568     8.765
    37   6 C        2.917    -0.022    28.552     8.762
    38   6 C        2.924    -0.029    28.727     8.789
    39   6 C        2.978     0.007    27.860     8.658
    40   1 H        0.925     0.058     2.220     2.330
    41   1 H        0.925     0.058     2.217     2.328
    42   1 H        0.925     0.042     2.420     2.433
    43   1 H        0.925     0.042     2.420     2.433
    44   1 H        0.925     0.058     2.218     2.329
    45   1 H        0.925     0.058     2.222     2.331
    46   1 H        0.926     0.061     2.185     2.311
    47   1 H        0.926     0.055     2.261     2.351
    48   1 H        0.926     0.052     2.300     2.371
    49   1 H        0.926     0.052     2.297     2.370
    50   1 H        0.926     0.048     2.343     2.394
    51   1 H        0.926     0.045     2.384     2.414
    52   1 H        0.926     0.051     2.304     2.373
    53   1 H        0.926     0.045     2.379     2.412
    54   1 H        0.926     0.051     2.312     2.378
    55   1 H        0.926     0.060     2.203     2.321
    56   1 H        0.926     0.061     2.190     2.314
    57   1 H        0.926     0.058     2.220     2.330
    58   1 H        0.926     0.050     2.316     2.380
    59   1 H        0.926     0.038     2.471     2.458
    60   1 H        0.926     0.045     2.382     2.414
    61   1 H        0.926     0.045     2.382     2.414
    62   1 H        0.926     0.047     2.355     2.400
    63   1 H        0.926     0.051     2.302     2.372
    64   1 H        0.926     0.051     2.305     2.374
    65   1 H        0.926     0.055     2.259     2.350
    66   1 H        0.926     0.061     2.182     2.310

molecular dipole:
                 x           y           z       tot (Debye)
 q only:       -9.290      -2.843       1.565
   full:       -8.985      -2.756       1.395      24.149

 projected vibrational frequencies (cm⁻¹)
eigval :       -0.00    -0.00     0.00     0.00     0.00     0.00
eigval :       -3.91     5.07    15.00    20.23    23.69    27.12
eigval :       36.07    48.60    64.05    76.05    89.99    98.14
eigval :      101.19   112.51   131.79   136.45   143.65   152.95
eigval :      174.65   199.01   203.73   213.58   217.87   230.13
eigval :      237.86   268.18   285.93   294.95   305.95   314.40
eigval :      323.78   326.96   336.22   364.93   369.67   377.31
eigval :      378.97   386.67   391.91   395.80   409.10   412.46
eigval :      435.95   446.95   449.44   471.99   495.14   501.61
eigval :      520.61   532.20   537.30   541.39   565.11   566.33
eigval :      581.83   584.24   590.35   601.11   606.33   634.20
eigval :      655.16   658.88   663.40   680.43   687.98   691.60
eigval :      707.73   719.98   745.37   761.00   770.39   773.34
eigval :      796.10   810.62   826.42   844.60   859.82   871.98
eigval :      872.56   875.89   888.45   898.67   901.75   907.49
eigval :      910.66   911.89   917.68   918.18   922.91   923.64
eigval :      925.52   928.43   930.08   933.78   936.22   956.71
eigval :      965.46   985.16  1004.95  1009.99  1055.83  1069.13
eigval :     1069.31  1081.17  1097.56  1101.18  1101.61  1106.17
eigval :     1112.94  1119.51  1128.63  1134.38  1135.69  1160.08
eigval :     1163.99  1168.52  1172.41  1174.11  1177.54  1178.45
eigval :     1179.31  1188.33  1208.16  1230.33  1236.23  1242.66
eigval :     1247.77  1251.89  1257.98  1259.68  1290.06  1300.75
eigval :     1303.03  1319.23  1320.40  1329.77  1337.68  1340.93
eigval :     1394.40  1401.25  1403.31  1404.81  1412.80  1421.46
eigval :     1424.12  1426.76  1431.59  1440.34  1441.96  1446.19
eigval :     1465.64  1476.51  1478.55  1484.67  1488.86  1492.53
eigval :     1500.07  1535.13  1536.77  1549.71  1570.45  1571.13
eigval :     1579.61  1581.95  1591.89  3031.11  3032.83  3054.79
eigval :     3056.59  3061.06  3065.00  3077.70  3080.38  3082.57
eigval :     3083.27  3086.36  3087.52  3091.63  3091.86  3092.75
eigval :     3093.68  3094.59  3096.47  3098.14  3098.87  3099.14
eigval :     3100.64  3103.60  3107.72  3107.99  3115.78  3117.47

   temp. (K)  partition function   enthalpy   heat capacity  entropy
                                   cal/mol     cal/K/mol   cal/K/mol   J/K/mol
 298.15  VIB  0.695E+17            19827.510    121.957    125.498
         ROT  0.624E+08              888.752      2.981     38.649
         INT  0.433E+25            20716.262    124.938    164.147
         TR   0.118E+29             1481.254      4.968     44.667
         TOT                       22197.5159   129.9057   208.8143   873.6789

       T/K    H(0)-H(T)+PV         H(T)/Eh          T*S/Eh         G(T)/Eh
   ------------------------------------------------------------------------
    298.15    0.353740E-01    0.538698E+00    0.992144E-01    0.439484E+00
   ------------------------------------------------------------------------

         :::::::::::::::::::::::::::::::::::::::::::::::::::::
         ::                  THERMODYNAMIC                  ::
         :::::::::::::::::::::::::::::::::::::::::::::::::::::
         :: total free energy        -104.455789391362 Eh   ::
         ::.................................................::
         :: total energy             -104.895273276745 Eh   ::
         :: zero point energy           0.503324289305 Eh   ::
         :: G(RRHO) w/o ZPVE           -0.063840403922 Eh   ::
         :: G(RRHO) contrib.            0.439483885384 Eh   ::
         :::::::::::::::::::::::::::::::::::::::::::::::::::::

           -------------------------------------------------
          | TOTAL ENERGY             -104.895273276745 Eh   |
          | TOTAL ENTHALPY           -104.356574994280 Eh   |
          | TOTAL FREE ENERGY        -104.455789391362 Eh   |
          | GRADIENT NORM               0.000060661389 Eh/α |
          | HOMO-LUMO GAP               0.946036578287 eV   |
           -------------------------------------------------

 * finished run on 2025/07/20 at 04:49:34.959
