   * xtb version 6.7.1 (edcfbbe) compiled by 'albert@albert-system' on 2024-07-22

   ID    Z sym.   atoms
    1    6 C      1-5, 7-22, 24-48
    2    7 N      6, 23
    3    1 H      49-94

          program call               : xtb data2507/toluene/TPA-BT-Q/TPA-BT-Q_toluene_S0_crest.xyz --gfn 2 --gbsa toluene --ohess vtight --parallel 40 --molden --ceasefiles --namespace data2507/toluene/TPA-BT-Q/TPA-BT-Q_toluene_S0_finalOpt
      * Solvation model:               GBSA
        Solvent                        toluene
        Solvent mass                       9.2140E+01 g/mol
          :  Hamiltonian                  GFN2-xTB          :
 * total energy  :  -127.9180007 Eh     change       -0.3375192E-08 Eh
 * total energy  :  -127.9180641 Eh     change       -0.6341219E-04 Eh
 * total energy  :  -127.9180972 Eh     change       -0.3307749E-04 Eh
 * total energy  :  -127.9181087 Eh     change       -0.1150090E-04 Eh
 * total energy  :  -127.9181174 Eh     change       -0.8718779E-05 Eh
 * total energy  :  -127.9181221 Eh     change       -0.4706923E-05 Eh
 * total energy  :  -127.9181271 Eh     change       -0.4996166E-05 Eh
 * total energy  :  -127.9181305 Eh     change       -0.3398064E-05 Eh
 * total energy  :  -127.9181343 Eh     change       -0.3840760E-05 Eh
 * total energy  :  -127.9181401 Eh     change       -0.5743576E-05 Eh
 * total energy  :  -127.9182475 Eh     change       -0.1321176E-05 Eh
 * total energy  :  -127.9182483 Eh     change       -0.7963301E-06 Eh
 * total energy  :  -127.9182488 Eh     change       -0.5424304E-06 Eh
 * total energy  :  -127.9182494 Eh     change       -0.5429349E-06 Eh
 * total energy  :  -127.9182500 Eh     change       -0.6477848E-06 Eh
 * total energy  :  -127.9182508 Eh     change       -0.7808762E-06 Eh
 * total energy  :  -127.9182515 Eh     change       -0.7249329E-06 Eh
 * total energy  :  -127.9182520 Eh     change       -0.5065197E-06 Eh
 * total energy  :  -127.9182520 Eh     change       -0.7410023E-08 Eh
   *** GEOMETRY OPTIMIZATION CONVERGED AFTER 44 ITERATIONS ***

 final structure:
================
94
 xtb: 6.7.1 (edcfbbe)
C           -3.64428370895971       -5.84008320478786       -2.01815642476519
C           -3.86755093369489       -4.42531378020989       -1.57477319513996
C           -5.00153447237155       -3.72253893941217       -1.96480187503290
C           -5.21963053334750       -2.42500204736108       -1.54538363320027
C           -4.30561492710965       -1.79148518560967       -0.70422070654063
N           -4.52538137684996       -0.47942533871109       -0.26842382345829
C           -5.82415467210027       -0.04456660489680        0.02436553254211
C           -6.22654725287836        1.25308465382711       -0.29197656054308
C           -7.50659241338218        1.67840164502471        0.00033248484498
C           -8.42893223886103        0.82943432066975        0.60321451592731
C           -9.81234130148916        1.30921013618767        0.92529385375338
C           -8.02336557656857       -0.46294474825642        0.91284421332123
C           -6.74176016506687       -0.89757326325772        0.63531831238719
C           -3.44723966607791        0.40056568730886       -0.12291352327149
C           -2.38273429789733        0.38438382037069       -1.02404044469844
C           -1.32293843975146        1.25183877267692       -0.86728605973563
C           -1.27780606091390        2.17410165728493        0.17694597035629
C           -0.07517252840474        3.10887954462068        0.27434083525768
C            1.14777648400673        2.20234437905230        0.22886905408021
C            1.40577706021260        1.36302474317379        1.31134588750447
C            2.47097614112935        0.48716727966503        1.31669847842171
C            3.31801513934243        0.39673188180914        0.21299795885588
N            4.39635766820374       -0.49499539877020        0.20410960718567
C            5.59900483223420       -0.12963502035269       -0.41292048622800
C            6.34779711374912       -1.06537532455474       -1.12674264721251
C            7.53434851541581       -0.69782635440459       -1.72837204049763
C            8.00963765950991        0.60715919420182       -1.65001963300833
C            9.28828683501981        0.99629973032397       -2.32919376891553
C            7.25680754817078        1.53605145561708       -0.94232791433862
C            6.07309693650860        1.17845037863751       -0.32656855119502
C            4.26606969702687       -1.75667459869067        0.79709469225457
C            5.33609386961423       -2.33550775673174        1.47957555931934
C            5.20316818633485       -3.58092486300006        2.05946417879734
C            4.00536862375941       -4.28472477998507        1.99099612992919
C            3.88028580364517       -5.64212784767185        2.61523747368944
C            2.94181837925826       -3.70126540506156        1.31354195004798
C            3.06490381230156       -2.46019633319231        0.71950381469006
C            3.05001790212491        1.20607711945278       -0.88772798708345
C            1.98458562617931        2.08626302778173       -0.87593794472707
C           -0.16518384913638        4.11041520917758       -0.89634357430264
C            0.93577329999296        5.17108189215421       -0.87496115078535
C            0.95360604918149        5.92188514962691        0.45127790348947
C            1.08596350484646        4.92692291923735        1.59817470884082
C           -0.08128684904433        3.94485707792779        1.56695161256699
C           -2.34319669465890        2.18500304260370        1.06828592471241
C           -3.40765477776836        1.31395957670065        0.92725189778503
C           -3.16744517972937       -2.49288314497457       -0.30657689652250
C           -2.95582804925837       -3.78589171088764       -0.74208334537938
H           -2.58336652498998       -6.04129019236586       -2.15105033725710
H           -4.02600536491205       -6.53223614692230       -1.26600188061894
H           -4.16224653091638       -6.03960292176849       -2.95348119236231
H           -5.72328675593924       -4.19454408830121       -2.61674212665485
H           -6.10182527094988       -1.89156819936469       -1.86906394809802
H           -5.52740272809643        1.92340804086304       -0.77105579035434
H           -7.79989168987453        2.68723986809724       -0.25466943292786
H          -10.20641631712247        1.92031565495217        0.11535133707904
H           -9.79606521616729        1.92134867545818        1.82810677410279
H          -10.48461938995214        0.47156703449847        1.09473041983341
H           -8.71883248372689       -1.14155314646336        1.38667813512091
H           -6.44310651872068       -1.90399891971652        0.89138627440132
H           -2.39297024844447       -0.31499317947504       -1.84768910568929
H           -0.50807280606986        1.20828594615532       -1.57508478552370
H            0.75750985256342        1.38305140026522        2.17457729685041
H            2.64934967332499       -0.14070153469042        2.17791503596219
H            5.99116430544882       -2.08234763001156       -1.20617148579684
H            8.09993732088622       -1.43737971277420       -2.27776163455270
H            9.12489726908039        1.10581202343355       -3.40218571636991
H           10.04935468791198        0.23168603915456       -2.18465736449075
H            9.66073459820520        1.94216064569092       -1.94325099688900
H            7.60603146905443        2.55594816671124       -0.86098870746427
H            5.50757566135987        1.91261452157923        0.22912846474683
H            6.27148223117013       -1.79955373256759        1.55344013281445
H            6.04362695438818       -4.01186310032408        2.58542798267381
H            4.34134553029917       -6.39385220364560        1.97297265109569
H            2.83603971337702       -5.91022121570745        2.75676892264381
H            4.38634796781726       -5.67137850825161        3.57840036643868
H            2.00084422649071       -4.22860384074395        1.24127049108217
H            2.22764591048359       -2.02719908765418        0.19090949202349
H            3.67897121153323        1.13632881217612       -1.76400350819441
H            1.80880085294297        2.66877446437266       -1.76612925487637
H           -1.13495431801050        4.61096035857469       -0.82028234773633
H           -0.15708905895618        3.58134839034889       -1.85041918262037
H            0.77122064338063        5.87044745871424       -1.69885591676612
H            1.91140427619899        4.70604189772358       -1.02110936671776
H            1.78397017440103        6.63146295905686        0.46621044026531
H            0.02627106165274        6.48870510226573        0.56838332003004
H            1.09174375540233        5.45593167342739        2.55429945075141
H            2.02903889485032        4.38259174962289        1.50851544025270
H           -1.00812831432735        4.52100696940772        1.60903836562847
H           -0.04404849338363        3.30096764753667        2.44557662055799
H           -2.35893456302544        2.86805539465866        1.90230095091271
H           -4.21941233636276        1.33842228473866        1.64027629231911
H           -2.45020962538601       -2.01604073024525        0.34618824353344
H           -2.06721741306969       -4.31198397841885       -0.42207673388082

          :  Hamiltonian                  GFN2-xTB          :
         :: gradient norm              0.000058232476 Eh/a0 ::
         :: HOMO-LUMO gap              3.060123370376 eV    ::
         :: SCC energy              -130.216260303375 Eh    ::
         :: -> dispersion             -0.119687619194 Eh    ::
         :: -> Gsolv                  -0.050183152785 Eh    ::
         :: repulsion energy           2.298008273921 Eh    ::

    * Orbital Energies and Occupations

         #    Occupation            Energy/Eh            Energy/eV
      -------------------------------------------------------------
         1        2.0000           -0.6583521             -17.9147
       ...           ...                  ...                  ...
       108        2.0000           -0.4034633             -10.9788
       109        2.0000           -0.4026483             -10.9566
       110        2.0000           -0.4012885             -10.9196
       111        2.0000           -0.3998161             -10.8795
       112        2.0000           -0.3997175             -10.8769
       113        2.0000           -0.3992346             -10.8637
       114        2.0000           -0.3981914             -10.8353
       115        2.0000           -0.3933789             -10.7044
       116        2.0000           -0.3921675             -10.6714
       117        2.0000           -0.3921298             -10.6704
       118        2.0000           -0.3887289             -10.5779
       119        2.0000           -0.3423868              -9.3168
       120        2.0000           -0.3396641              -9.2427 (HOMO)
       121                         -0.2272066              -6.1826 (LUMO)
       122                         -0.2231066              -6.0710
       123                         -0.2229562              -6.0669
       124                         -0.2226158              -6.0577
       125                         -0.2217494              -6.0341
       126                         -0.2205735              -6.0021
       127                         -0.2165775              -5.8934
       128                         -0.2164173              -5.8890
       129                         -0.2161868              -5.8827
       130                         -0.2153617              -5.8603
       131                         -0.1894456              -5.1551
       ...                                ...                  ...
       238                          0.6738243              18.3357
      -------------------------------------------------------------
                  HL-Gap            0.1124575 Eh            3.0601 eV

     #   Z          covCN         q      C6AA      α(0)
     1   6 C        3.757    -0.109    22.630     6.782
     2   6 C        2.965     0.008    27.849     8.656
     3   6 C        2.924    -0.042    29.031     8.836
     4   6 C        2.921    -0.051    29.265     8.871
     5   6 C        2.923     0.062    26.621     8.461
     6   7 N        2.751    -0.085    22.900     7.107
     7   6 C        2.923     0.061    26.623     8.461
     8   6 C        2.921    -0.051    29.255     8.870
     9   6 C        2.925    -0.042    29.032     8.836
    10   6 C        2.965     0.008    27.840     8.655
    11   6 C        3.757    -0.109    22.634     6.783
    12   6 C        2.924    -0.041    29.027     8.835
    13   6 C        2.921    -0.051    29.259     8.870
    14   6 C        2.923     0.063    26.590     8.456
    15   6 C        2.921    -0.051    29.255     8.870
    16   6 C        2.927    -0.038    28.947     8.823
    17   6 C        2.980    -0.000    28.025     8.684
    18   6 C        3.910     0.011    20.327     6.408
    19   6 C        2.976     0.007    27.860     8.658
    20   6 C        2.927    -0.037    28.925     8.820
    21   6 C        2.921    -0.051    29.266     8.871
    22   6 C        2.923     0.063    26.598     8.457
    23   7 N        2.751    -0.086    22.916     7.110
    24   6 C        2.923     0.062    26.618     8.461
    25   6 C        2.921    -0.051    29.259     8.870
    26   6 C        2.925    -0.042    29.034     8.836
    27   6 C        2.965     0.008    27.844     8.655
    28   6 C        3.757    -0.109    22.632     6.783
    29   6 C        2.924    -0.041    29.028     8.835
    30   6 C        2.921    -0.051    29.258     8.870
    31   6 C        2.923     0.062    26.618     8.461
    32   6 C        2.921    -0.051    29.259     8.870
    33   6 C        2.925    -0.042    29.036     8.837
    34   6 C        2.965     0.008    27.847     8.656
    35   6 C        3.757    -0.109    22.630     6.782
    36   6 C        2.924    -0.041    29.025     8.835
    37   6 C        2.921    -0.051    29.257     8.870
    38   6 C        2.922    -0.052    29.297     8.876
    39   6 C        2.925    -0.039    28.965     8.826
    40   6 C        3.812    -0.054    21.536     6.605
    41   6 C        3.804    -0.055    21.557     6.610
    42   6 C        3.806    -0.055    21.557     6.610
    43   6 C        3.806    -0.053    21.513     6.603
    44   6 C        3.813    -0.057    21.595     6.614
    45   6 C        2.923    -0.041    29.019     8.834
    46   6 C        2.922    -0.052    29.280     8.874
    47   6 C        2.921    -0.051    29.258     8.870
    48   6 C        2.925    -0.041    29.028     8.835
    49   1 H        0.925     0.044     2.395     2.420
    50   1 H        0.924     0.048     2.347     2.396
    51   1 H        0.925     0.043     2.405     2.425
    52   1 H        0.926     0.031     2.570     2.507
    53   1 H        0.926     0.028     2.614     2.528
    54   1 H        0.926     0.028     2.612     2.528
    55   1 H        0.926     0.032     2.559     2.501
    56   1 H        0.925     0.045     2.382     2.414
    57   1 H        0.924     0.048     2.347     2.396
    58   1 H        0.925     0.043     2.411     2.428
    59   1 H        0.926     0.031     2.572     2.508
    60   1 H        0.926     0.028     2.616     2.529
    61   1 H        0.926     0.028     2.621     2.532
    62   1 H        0.926     0.029     2.597     2.520
    63   1 H        0.926     0.028     2.608     2.526
    64   1 H        0.926     0.026     2.639     2.540
    65   1 H        0.926     0.028     2.621     2.532
    66   1 H        0.926     0.032     2.564     2.504
    67   1 H        0.924     0.048     2.349     2.397
    68   1 H        0.925     0.045     2.383     2.414
    69   1 H        0.925     0.043     2.412     2.429
    70   1 H        0.926     0.031     2.572     2.508
    71   1 H        0.926     0.028     2.620     2.531
    72   1 H        0.926     0.028     2.615     2.529
    73   1 H        0.926     0.032     2.563     2.504
    74   1 H        0.924     0.048     2.348     2.396
    75   1 H        0.925     0.043     2.413     2.429
    76   1 H        0.925     0.045     2.385     2.415
    77   1 H        0.926     0.030     2.582     2.513
    78   1 H        0.926     0.027     2.628     2.535
    79   1 H        0.926     0.027     2.635     2.539
    80   1 H        0.926     0.037     2.485     2.465
    81   1 H        0.924     0.031     2.573     2.508
    82   1 H        0.924     0.030     2.586     2.515
    83   1 H        0.924     0.027     2.623     2.533
    84   1 H        0.924     0.035     2.510     2.478
    85   1 H        0.924     0.026     2.646     2.544
    86   1 H        0.924     0.030     2.581     2.513
    87   1 H        0.924     0.027     2.634     2.538
    88   1 H        0.924     0.029     2.600     2.522
    89   1 H        0.924     0.037     2.496     2.470
    90   1 H        0.925     0.031     2.576     2.510
    91   1 H        0.926     0.036     2.496     2.471
    92   1 H        0.926     0.029     2.604     2.523
    93   1 H        0.926     0.027     2.628     2.535
    94   1 H        0.926     0.031     2.575     2.509

molecular dipole:
                 x           y           z       tot (Debye)
 q only:       -0.025      -0.008      -0.026
   full:       -0.019      -0.082      -0.032       0.228

 projected vibrational frequencies (cm⁻¹)
eigval :       -0.00    -0.00    -0.00     0.00     0.00     0.00
eigval :      -10.75     7.70    10.77    11.99    25.28    33.27
eigval :       35.84    38.18    39.87    40.98    47.50    53.78
eigval :       54.90    59.31    63.19    64.35    69.82    76.58
eigval :       95.92   103.96   108.05   126.12   137.99   144.41
eigval :      150.14   155.57   166.73   175.31   191.07   216.04
eigval :      236.69   252.88   258.91   260.08   274.59   282.68
eigval :      296.43   312.46   319.14   327.21   334.86   338.93
eigval :      352.74   356.49   362.59   365.83   373.54   378.68
eigval :      380.24   381.58   382.49   388.80   389.26   400.68
eigval :      411.82   413.69   428.08   439.11   470.37   473.03
eigval :      487.92   489.01   489.90   509.59   513.08   526.10
eigval :      545.30   554.53   564.88   582.96   604.52   608.82
eigval :      610.42   611.65   612.38   612.56   619.89   659.56
eigval :      662.29   663.63   665.78   671.49   685.41   696.62
eigval :      718.08   791.41   791.94   800.60   800.85   802.88
eigval :      804.55   812.16   816.14   820.28   822.58   826.57
eigval :      846.09   869.15   869.74   870.49   870.64   872.12
eigval :      874.76   892.92   909.09   912.55   912.87   914.04
eigval :      914.17   916.82   917.74   924.84   925.26   926.31
eigval :      927.01   928.31   930.30   930.99   934.37   934.51
eigval :      942.71   954.94   962.83   973.22  1000.23  1008.23
eigval :     1008.49  1008.67  1008.80  1010.52  1018.99  1028.35
eigval :     1028.79  1029.17  1032.79  1033.26  1033.86  1033.94
eigval :     1038.40  1094.04  1095.94  1121.98  1135.91  1143.14
eigval :     1143.83  1144.82  1145.29  1150.47  1154.24  1154.52
eigval :     1185.50  1185.75  1197.06  1198.02  1201.24  1202.11
eigval :     1203.15  1208.57  1212.59  1217.66  1222.93  1233.95
eigval :     1234.33  1251.39  1252.70  1257.25  1258.40  1273.78
eigval :     1274.36  1277.72  1279.35  1280.13  1282.32  1289.29
eigval :     1314.47  1315.35  1322.88  1323.21  1325.29  1326.29
eigval :     1327.05  1329.03  1329.97  1330.77  1334.38  1340.08
eigval :     1348.73  1355.34  1363.35  1401.33  1402.21  1402.74
eigval :     1403.12  1403.63  1405.59  1416.08  1417.54  1420.17
eigval :     1420.47  1478.71  1478.87  1478.98  1479.71  1480.20
eigval :     1480.84  1481.86  1482.33  1483.14  1484.82  1487.41
eigval :     1490.01  1492.40  1492.71  1493.52  1494.21  1495.33
eigval :     1498.67  1512.01  1560.86  1561.87  1570.04  1570.63
eigval :     1573.25  1573.34  1599.92  1601.93  1605.50  1605.68
eigval :     1608.72  1609.07  2951.21  2954.72  2958.91  2961.11
eigval :     2967.18  2975.43  2978.34  2986.46  2987.40  2990.08
eigval :     2990.61  2990.88  2995.33  2997.41  3023.76  3024.40
eigval :     3024.87  3030.31  3035.30  3038.86  3039.03  3039.25
eigval :     3064.80  3064.94  3065.43  3065.76  3067.30  3067.47
eigval :     3068.30  3068.31  3072.58  3073.11  3074.49  3076.01
eigval :     3078.83  3079.16  3079.87  3080.54  3082.59  3082.95
eigval :     3083.84  3084.33  3085.83  3087.39  3104.54  3105.36

   temp. (K)  partition function   enthalpy   heat capacity  entropy
                                   cal/mol     cal/K/mol   cal/K/mol   J/K/mol
 298.15  VIB  0.220E+23            26274.155    157.971    168.148
         ROT  0.104E+09              888.752      2.981     39.670
         INT  0.230E+31            27162.908    160.952    207.818
         TR   0.152E+29             1481.254      4.968     45.169
         TOT                       28644.1617   165.9201   252.9866  1058.4958

       T/K    H(0)-H(T)+PV         H(T)/Eh          T*S/Eh         G(T)/Eh
   ------------------------------------------------------------------------
    298.15    0.456474E-01    0.823074E+00    0.120202E+00    0.702872E+00
   ------------------------------------------------------------------------

         :::::::::::::::::::::::::::::::::::::::::::::::::::::
         ::                  THERMODYNAMIC                  ::
         :::::::::::::::::::::::::::::::::::::::::::::::::::::
         :: total free energy        -127.215380428798 Eh   ::
         ::.................................................::
         :: total energy             -127.918252033327 Eh   ::
         :: zero point energy           0.777426307211 Eh   ::
         :: G(RRHO) w/o ZPVE           -0.074554702682 Eh   ::
         :: G(RRHO) contrib.            0.702871604529 Eh   ::
         :::::::::::::::::::::::::::::::::::::::::::::::::::::

           -------------------------------------------------
          | TOTAL ENERGY             -127.918252033327 Eh   |
          | TOTAL ENTHALPY           -127.095178348893 Eh   |
          | TOTAL FREE ENERGY        -127.215380428798 Eh   |
          | GRADIENT NORM               0.000058236198 Eh/α |
          | HOMO-LUMO GAP               3.060123488968 eV   |
           -------------------------------------------------

 * finished run on 2025/09/04 at 21:18:44.286
