   * xtb version 6.7.1 (edcfbbe) compiled by 'albert@albert-system' on 2024-07-22

   ID    Z sym.   atoms
    1    6 C      1-5, 7-22, 24-48
    2    7 N      6, 23
    3    1 H      49-94

          program call               : xtb data2507/toluene/TPA-BT-Q/TPA-BT-Q.xyz --gfn 2 --gbsa toluene --ohess vtight --parallel 40 --molden --ceasefiles --namespace data2507/toluene/TPA-BT-Q/TPA-BT-Q_toluene_S0_preOpt
      * Solvation model:               GBSA
        Solvent                        toluene
        Solvent mass                       9.2140E+01 g/mol
          :  Hamiltonian                  GFN2-xTB          :
 * total energy  :  -127.8925933 Eh     change       -0.1957147E-08 Eh
 * total energy  :  -127.9066312 Eh     change       -0.1403791E-01 Eh
 * total energy  :  -127.9124845 Eh     change       -0.5853239E-02 Eh
 * total energy  :  -127.9149752 Eh     change       -0.2490726E-02 Eh
 * total energy  :  -127.9162843 Eh     change       -0.1309144E-02 Eh
 * total energy  :  -127.9167118 Eh     change       -0.4275065E-03 Eh
 * total energy  :  -127.9168939 Eh     change       -0.1820208E-03 Eh
 * total energy  :  -127.9170590 Eh     change       -0.1651216E-03 Eh
 * total energy  :  -127.9171902 Eh     change       -0.1312083E-03 Eh
 * total energy  :  -127.9172916 Eh     change       -0.1013837E-03 Eh
 * total energy  :  -127.9178777 Eh     change       -0.8006371E-06 Eh
 * total energy  :  -127.9178787 Eh     change       -0.1034808E-05 Eh
 * total energy  :  -127.9178800 Eh     change       -0.1280881E-05 Eh
 * total energy  :  -127.9178814 Eh     change       -0.1371816E-05 Eh
 * total energy  :  -127.9178826 Eh     change       -0.1236710E-05 Eh
 * total energy  :  -127.9178838 Eh     change       -0.1147638E-05 Eh
 * total energy  :  -127.9178850 Eh     change       -0.1227159E-05 Eh
 * total energy  :  -127.9178866 Eh     change       -0.1601681E-05 Eh
 * total energy  :  -127.9178866 Eh     change       -0.8685248E-08 Eh
   *** GEOMETRY OPTIMIZATION CONVERGED AFTER 94 ITERATIONS ***

 final structure:
================
94
 xtb: 6.7.1 (edcfbbe)
C           -7.13278429052344        1.27929397645237       -5.08812560691278
C           -6.44928528910197        0.92367147399700       -3.80198391261204
C           -5.83006889155936        1.89397175720135       -3.02345816181181
C           -5.22600801633326        1.57224206764976       -1.82369038215054
C           -5.21659950243140        0.25426632721579       -1.36891497494262
N           -4.60919561186802       -0.07826102437117       -0.15284266981124
C           -5.17232683634726       -1.06413865086876        0.66741471282466
C           -6.55655542367821       -1.18323222245183        0.79243299356345
C           -7.10280177825357       -2.15985249194840        1.60007589018678
C           -6.29632296604083       -3.04000702655795        2.31477512025770
C           -6.90849106752796       -4.10017686329960        3.18039655826744
C           -4.91860107579188       -2.91292287731533        2.19041567500651
C           -4.35922265630191       -1.94582527495758        1.37747343863893
C           -3.44460490224013        0.58235264584012        0.25473311130412
C           -2.44994552494292        0.91380172223436       -0.66517061606593
C           -1.30638506883840        1.56303777619676       -0.25156850084795
C           -1.10066847642899        1.90806735753418        1.08332044915050
C            0.19201548187993        2.62630685076028        1.46031839077711
C            1.31270651553067        1.72869899524220        0.95247367292633
C            1.51781550286692        0.49505587103250        1.56814296988011
C            2.49680093449148       -0.37798620915035        1.14272714223006
C            3.30530339691383       -0.05667838564235        0.05328494634658
N            4.30799698201884       -0.92973988084137       -0.38269758248962
C            5.52379118694069       -0.41641526276039       -0.85050741635551
C            6.18743094438607       -1.01695398463293       -1.91923214882919
C            7.39126653544116       -0.51008912871246       -2.36877420279280
C            7.96571139129070        0.61058924960916       -1.78140167673536
C            9.25958651573133        1.17586821704446       -2.28561262755149
C            7.29559224823711        1.20963770901221       -0.71998051077489
C            6.09782282403665        0.70640792345719       -0.25411258375163
C            4.09603491168806       -2.31349407261131       -0.35360834561580
C            5.13295004493625       -3.18498669945168       -0.02062294589847
C            4.92095686930873       -4.54879385413057       -0.00331141210966
C            3.67516972351751       -5.08904324781800       -0.30425294437481
C            3.46349138517290       -6.57330397368592       -0.30210784309722
C            2.64363716637721       -4.21539766833226       -0.62626234522271
C            2.84520910726170       -2.84917754015866       -0.65725087840122
C            3.07932062405455        1.15331272433627       -0.59746401729053
C            2.10049694542671        2.02297681365307       -0.15499359454952
C            0.15801987322263        4.02762179944196        0.81488333862597
C            1.35840690016305        4.89886762515012        1.18549937032630
C            1.50010751881611        5.02894427974322        2.69714233446210
C            1.57972714187715        3.64060070018750        3.32036459708118
C            0.32272475532181        2.84610238576182        2.97851088623177
C           -2.09241097572318        1.56627220756647        1.99390932469167
C           -3.24573598709684        0.91866651686917        1.59108471134188
C           -5.82825276602497       -0.72565835200169       -2.15095725542588
C           -6.43777210792635       -0.38903824626075       -3.34278033927998
H           -6.74839774605697        2.21528469546903       -5.48649956079723
H           -6.99286281928137        0.49497641089473       -5.82942203405283
H           -8.20484578482567        1.39561359265024       -4.92207051566957
H           -5.82692009500090        2.92276847568749       -3.35558292403139
H           -4.75845213598153        2.34333026214981       -1.22840860193140
H           -7.19915563505171       -0.50211076181153        0.25314804064378
H           -8.17778232066936       -2.23568416019055        1.68579776648956
H           -6.15800012693334       -4.56656964722848        3.81380080922473
H           -7.36469186804660       -4.87391518086508        2.56185666956001
H           -7.68848023646411       -3.67706998969124        3.81144619640570
H           -4.26854882916601       -3.58671958124495        2.73099832166272
H           -3.28520693516498       -1.86730137523749        1.28763745563081
H           -2.57929039256856        0.65258601092418       -1.70576704826598
H           -0.54478805883671        1.78908505802238       -0.98352762991547
H            0.89637963682323        0.19936575266037        2.40011172123412
H            2.63958669270354       -1.31981176490928        1.65278025555762
H            5.75294960127914       -1.88480347539657       -2.39447290956593
H            7.88918556729613       -0.99250135920747       -3.19827352175738
H            9.87884750384266        1.51852287631858       -1.45876266321782
H            9.06680230195290        2.03061942207698       -2.93555749353153
H            9.81165309536709        0.43325332460992       -2.85665977583830
H            7.72512404949292        2.07958764850412       -0.24297199912411
H            5.59829393137299        1.17845810508276        0.57973380184554
H            6.10539947682758       -2.78368466350040        0.22624694850480
H            5.73748309994214       -5.20742919635478        0.25777012595203
H            2.40910721070026       -6.81516191287611       -0.19155389264501
H            4.02109243561160       -7.04200935175371        0.50639334165214
H            3.81385879759286       -7.00191465061146       -1.24225951578232
H            1.66578284269901       -4.60893803435643       -0.86645369858927
H            2.03183501778348       -2.18713854739722       -0.91813815511844
H            3.67487421283925        1.41011039994660       -1.46209711224134
H            1.95378919451958        2.93482740768609       -0.71141716139500
H           -0.75365617930206        4.52196893267907        1.16328336735455
H            0.07789536218500        3.94568921785154       -0.26991151444113
H            1.23284627558205        5.88663487876743        0.73435994492416
H            2.27715482687047        4.46481915300775        0.78930244638219
H            2.39557872968335        5.60600485857036        2.93888454467434
H            0.63735160118889        5.56140280834870        3.10582019819952
H            1.67518016560966        3.72171129458440        4.40591910337145
H            2.46098844062499        3.11647990467698        2.94282993741518
H           -0.54298571196966        3.41383679270981        3.32690146520598
H            0.33802701489027        1.89371346975690        3.50816403382192
H           -1.98741181572986        1.80356421208762        3.04038115772290
H           -4.00434698617156        0.66991670459027        2.31951611094919
H           -5.82109081992604       -1.75330147141595       -1.81698716364748
H           -6.90620780005270       -1.16352758149168       -3.93398201149178

          :  Hamiltonian                  GFN2-xTB          :
         :: gradient norm              0.000066310697 Eh/a0 ::
         :: HOMO-LUMO gap              3.057883275159 eV    ::
         :: SCC energy              -130.215989739125 Eh    ::
         :: -> dispersion             -0.119334462892 Eh    ::
         :: -> Gsolv                  -0.050103094983 Eh    ::
         :: repulsion energy           2.298103140906 Eh    ::

    * Orbital Energies and Occupations

         #    Occupation            Energy/Eh            Energy/eV
      -------------------------------------------------------------
         1        2.0000           -0.6582776             -17.9126
       ...           ...                  ...                  ...
       108        2.0000           -0.4033959             -10.9770
       109        2.0000           -0.4024826             -10.9521
       110        2.0000           -0.4014895             -10.9251
       111        2.0000           -0.3998850             -10.8814
       112        2.0000           -0.3994924             -10.8707
       113        2.0000           -0.3993662             -10.8673
       114        2.0000           -0.3980486             -10.8315
       115        2.0000           -0.3935004             -10.7077
       116        2.0000           -0.3921051             -10.6697
       117        2.0000           -0.3919905             -10.6666
       118        2.0000           -0.3883209             -10.5668
       119        2.0000           -0.3421697              -9.3109
       120        2.0000           -0.3398068              -9.2466 (HOMO)
       121                         -0.2274317              -6.1887 (LUMO)
       122                         -0.2230213              -6.0687
       123                         -0.2229313              -6.0663
       124                         -0.2225562              -6.0561
       125                         -0.2216591              -6.0316
       126                         -0.2202540              -5.9934
       127                         -0.2164804              -5.8907
       128                         -0.2163695              -5.8877
       129                         -0.2161338              -5.8813
       130                         -0.2154167              -5.8618
       131                         -0.1895152              -5.1570
       ...                                ...                  ...
       238                          0.6737842              18.3346
      -------------------------------------------------------------
                  HL-Gap            0.1123751 Eh            3.0579 eV

     #   Z          covCN         q      C6AA      α(0)
     1   6 C        3.757    -0.109    22.631     6.783
     2   6 C        2.965     0.007    27.852     8.657
     3   6 C        2.924    -0.041    29.030     8.836
     4   6 C        2.921    -0.051    29.273     8.872
     5   6 C        2.923     0.062    26.621     8.461
     6   7 N        2.751    -0.086    22.907     7.108
     7   6 C        2.923     0.062    26.621     8.461
     8   6 C        2.921    -0.050    29.250     8.869
     9   6 C        2.925    -0.042    29.034     8.836
    10   6 C        2.965     0.008    27.838     8.654
    11   6 C        3.757    -0.109    22.634     6.783
    12   6 C        2.924    -0.041    29.024     8.835
    13   6 C        2.921    -0.051    29.255     8.870
    14   6 C        2.923     0.063    26.591     8.456
    15   6 C        2.921    -0.050    29.247     8.869
    16   6 C        2.927    -0.038    28.945     8.823
    17   6 C        2.980     0.000    28.020     8.683
    18   6 C        3.910     0.011    20.327     6.408
    19   6 C        2.977     0.007    27.863     8.659
    20   6 C        2.927    -0.037    28.927     8.820
    21   6 C        2.921    -0.051    29.268     8.872
    22   6 C        2.923     0.063    26.599     8.458
    23   7 N        2.751    -0.086    22.917     7.110
    24   6 C        2.923     0.062    26.618     8.461
    25   6 C        2.921    -0.051    29.264     8.871
    26   6 C        2.924    -0.041    29.028     8.835
    27   6 C        2.965     0.008    27.845     8.655
    28   6 C        3.757    -0.109    22.632     6.783
    29   6 C        2.925    -0.042    29.033     8.836
    30   6 C        2.921    -0.050    29.254     8.870
    31   6 C        2.923     0.062    26.618     8.461
    32   6 C        2.921    -0.051    29.258     8.870
    33   6 C        2.925    -0.042    29.035     8.836
    34   6 C        2.965     0.008    27.844     8.655
    35   6 C        3.757    -0.109    22.632     6.783
    36   6 C        2.924    -0.041    29.028     8.835
    37   6 C        2.921    -0.051    29.257     8.870
    38   6 C        2.922    -0.052    29.297     8.876
    39   6 C        2.924    -0.039    28.966     8.826
    40   6 C        3.812    -0.054    21.540     6.606
    41   6 C        3.805    -0.055    21.558     6.610
    42   6 C        3.806    -0.055    21.557     6.610
    43   6 C        3.806    -0.053    21.513     6.603
    44   6 C        3.813    -0.057    21.596     6.614
    45   6 C        2.923    -0.041    29.019     8.834
    46   6 C        2.922    -0.051    29.278     8.873
    47   6 C        2.921    -0.051    29.267     8.872
    48   6 C        2.925    -0.042    29.035     8.837
    49   1 H        0.925     0.043     2.410     2.427
    50   1 H        0.925     0.044     2.391     2.418
    51   1 H        0.924     0.048     2.349     2.397
    52   1 H        0.926     0.031     2.574     2.509
    53   1 H        0.926     0.028     2.619     2.531
    54   1 H        0.926     0.028     2.610     2.527
    55   1 H        0.926     0.032     2.556     2.500
    56   1 H        0.925     0.042     2.416     2.431
    57   1 H        0.924     0.048     2.351     2.398
    58   1 H        0.925     0.046     2.372     2.409
    59   1 H        0.926     0.031     2.574     2.509
    60   1 H        0.926     0.027     2.624     2.533
    61   1 H        0.926     0.028     2.619     2.531
    62   1 H        0.926     0.029     2.594     2.519
    63   1 H        0.926     0.029     2.607     2.525
    64   1 H        0.926     0.026     2.639     2.540
    65   1 H        0.926     0.027     2.623     2.533
    66   1 H        0.926     0.031     2.576     2.510
    67   1 H        0.925     0.045     2.386     2.415
    68   1 H        0.924     0.048     2.347     2.396
    69   1 H        0.925     0.043     2.411     2.428
    70   1 H        0.926     0.032     2.561     2.503
    71   1 H        0.926     0.028     2.618     2.530
    72   1 H        0.926     0.028     2.614     2.528
    73   1 H        0.926     0.032     2.562     2.503
    74   1 H        0.925     0.043     2.410     2.427
    75   1 H        0.925     0.045     2.387     2.416
    76   1 H        0.924     0.048     2.347     2.396
    77   1 H        0.926     0.030     2.579     2.511
    78   1 H        0.926     0.027     2.630     2.536
    79   1 H        0.926     0.027     2.634     2.538
    80   1 H        0.926     0.037     2.483     2.464
    81   1 H        0.924     0.031     2.574     2.509
    82   1 H        0.924     0.030     2.580     2.512
    83   1 H        0.924     0.027     2.625     2.534
    84   1 H        0.924     0.036     2.509     2.477
    85   1 H        0.924     0.026     2.647     2.544
    86   1 H        0.924     0.030     2.582     2.513
    87   1 H        0.924     0.027     2.634     2.538
    88   1 H        0.924     0.029     2.601     2.522
    89   1 H        0.924     0.036     2.499     2.472
    90   1 H        0.925     0.031     2.571     2.507
    91   1 H        0.926     0.037     2.495     2.470
    92   1 H        0.926     0.029     2.605     2.524
    93   1 H        0.926     0.028     2.620     2.531
    94   1 H        0.926     0.031     2.569     2.506

molecular dipole:
                 x           y           z       tot (Debye)
 q only:       -0.033      -0.007      -0.017
   full:       -0.055      -0.066      -0.064       0.273

 projected vibrational frequencies (cm⁻¹)
eigval :       -0.00    -0.00     0.00     0.00     0.00     0.00
eigval :        4.06     6.76     8.66    23.37    30.42    32.15
eigval :       37.96    40.86    42.90    44.24    45.65    47.47
eigval :       51.80    53.25    59.60    62.69    65.35    75.84
eigval :       95.14    98.03   108.87   125.38   138.74   142.60
eigval :      149.31   154.74   166.58   166.83   193.28   216.83
eigval :      234.33   257.19   258.62   260.24   273.03   278.83
eigval :      296.45   310.86   318.15   326.69   333.72   338.15
eigval :      352.27   356.60   362.95   365.48   373.35   377.86
eigval :      378.97   380.17   381.56   386.32   388.69   398.96
eigval :      409.75   420.84   427.61   432.63   469.19   472.52
eigval :      487.19   487.73   489.84   510.24   511.80   524.61
eigval :      542.51   552.67   567.08   581.82   604.81   609.08
eigval :      609.75   612.05   612.17   612.47   619.11   660.21
eigval :      660.95   663.30   665.76   670.15   685.26   696.42
eigval :      717.89   790.91   792.84   800.18   800.46   801.19
eigval :      803.60   810.69   814.67   819.59   821.71   826.63
eigval :      844.99   867.01   867.90   869.69   870.74   870.98
eigval :      872.94   892.48   907.30   911.52   912.52   913.26
eigval :      913.77   914.89   915.69   924.41   924.92   926.11
eigval :      926.31   926.46   928.26   928.55   934.18   934.31
eigval :      942.40   954.39   962.52   973.71   999.96  1007.37
eigval :     1008.21  1008.79  1009.10  1010.40  1018.33  1028.40
eigval :     1028.61  1029.13  1032.63  1033.01  1033.42  1033.64
eigval :     1037.71  1095.11  1096.74  1121.51  1135.65  1143.62
eigval :     1143.85  1145.21  1146.41  1149.32  1153.84  1154.70
eigval :     1185.15  1186.19  1197.70  1198.41  1201.59  1202.61
eigval :     1203.50  1208.80  1212.57  1217.12  1222.82  1234.05
eigval :     1234.61  1250.76  1252.61  1256.83  1258.55  1273.69
eigval :     1275.31  1278.02  1279.02  1280.48  1282.25  1288.87
eigval :     1314.62  1315.08  1323.08  1323.37  1325.03  1325.55
eigval :     1327.14  1329.16  1329.97  1330.92  1334.55  1340.17
eigval :     1348.70  1355.32  1363.46  1402.16  1402.22  1402.32
eigval :     1402.67  1403.48  1405.74  1416.14  1417.54  1420.19
eigval :     1420.67  1478.58  1478.70  1478.89  1479.05  1479.28
eigval :     1481.35  1481.36  1482.31  1482.47  1484.14  1485.99
eigval :     1489.95  1492.64  1492.94  1493.59  1493.97  1494.78
eigval :     1498.34  1511.08  1561.02  1561.80  1570.29  1570.36
eigval :     1573.37  1573.40  1599.56  1601.77  1605.65  1605.81
eigval :     1608.82  1609.20  2949.64  2954.48  2957.88  2959.78
eigval :     2966.22  2974.84  2977.65  2987.36  2988.32  2989.07
eigval :     2989.85  2992.44  2995.55  2997.23  3019.30  3026.43
eigval :     3026.90  3027.40  3037.51  3037.77  3038.15  3041.83
eigval :     3065.02  3065.22  3065.74  3065.80  3067.80  3067.89
eigval :     3068.59  3068.62  3071.93  3073.58  3074.86  3075.93
eigval :     3079.10  3079.51  3080.02  3080.49  3082.84  3083.08
eigval :     3084.04  3084.15  3085.19  3088.47  3105.14  3105.48

   temp. (K)  partition function   enthalpy   heat capacity  entropy
                                   cal/mol     cal/K/mol   cal/K/mol   J/K/mol
 298.15  VIB  0.496E+23            26328.647    157.965    169.386
         ROT  0.109E+09              888.752      2.981     39.751
         INT  0.538E+31            27217.400    160.945    209.137
         TR   0.152E+29             1481.254      4.968     45.169
         TOT                       28698.6535   165.9136   254.3062  1064.0172

       T/K    H(0)-H(T)+PV         H(T)/Eh          T*S/Eh         G(T)/Eh
   ------------------------------------------------------------------------
    298.15    0.457342E-01    0.822933E+00    0.120829E+00    0.702104E+00
   ------------------------------------------------------------------------

         :::::::::::::::::::::::::::::::::::::::::::::::::::::
         ::                  THERMODYNAMIC                  ::
         :::::::::::::::::::::::::::::::::::::::::::::::::::::
         :: total free energy        -127.215782228464 Eh   ::
         ::.................................................::
         :: total energy             -127.917886602360 Eh   ::
         :: zero point energy           0.777199252294 Eh   ::
         :: G(RRHO) w/o ZPVE           -0.075094878398 Eh   ::
         :: G(RRHO) contrib.            0.702104373896 Eh   ::
         :::::::::::::::::::::::::::::::::::::::::::::::::::::

           -------------------------------------------------
          | TOTAL ENERGY             -127.917886602360 Eh   |
          | TOTAL ENTHALPY           -127.094953134566 Eh   |
          | TOTAL FREE ENERGY        -127.215782228464 Eh   |
          | GRADIENT NORM               0.000066316270 Eh/α |
          | HOMO-LUMO GAP               3.057882974288 eV   |
           -------------------------------------------------

 * finished run on 2025/09/04 at 21:00:33.430
