   * xtb version 6.7.1 (edcfbbe) compiled by 'albert@albert-system' on 2024-07-22

   ID    Z sym.   atoms
    1    6 C      1-5, 7-22, 24-48
    2    7 N      6, 23
    3    1 H      49-94

          program call               : xtb data2507/toluene/TPA-BT-Q/TPA-BT-Q_toluene_T1_crest.xyz --gfn 2 --uhf 2 --gbsa toluene --ohess vtight --parallel 40 --molden --ceasefiles --namespace data2507/toluene/TPA-BT-Q/TPA-BT-Q_toluene_T1_finalOpt
      * Solvation model:               GBSA
        Solvent                        toluene
        Solvent mass                       9.2140E+01 g/mol
          :  Hamiltonian                  GFN2-xTB          :
 * total energy  :  -127.8071511 Eh     change       -0.8665182E-08 Eh
 * total energy  :  -127.8072559 Eh     change       -0.1048658E-03 Eh
 * total energy  :  -127.8073465 Eh     change       -0.9060980E-04 Eh
 * total energy  :  -127.8073991 Eh     change       -0.5259645E-04 Eh
 * total energy  :  -127.8074487 Eh     change       -0.4953782E-04 Eh
 * total energy  :  -127.8075371 Eh     change       -0.8846696E-04 Eh
 * total energy  :  -127.8075651 Eh     change       -0.2794114E-04 Eh
 * total energy  :  -127.8076492 Eh     change       -0.8410986E-04 Eh
 * total energy  :  -127.8076846 Eh     change       -0.3537823E-04 Eh
 * total energy  :  -127.8077250 Eh     change       -0.4040156E-04 Eh
 * total energy  :  -127.8082282 Eh     change       -0.6918759E-06 Eh
 * total energy  :  -127.8082288 Eh     change       -0.6051978E-06 Eh
 * total energy  :  -127.8082293 Eh     change       -0.4905966E-06 Eh
 * total energy  :  -127.8082298 Eh     change       -0.5055105E-06 Eh
 * total energy  :  -127.8082302 Eh     change       -0.4683248E-06 Eh
 * total energy  :  -127.8082308 Eh     change       -0.5579656E-06 Eh
 * total energy  :  -127.8082315 Eh     change       -0.6746464E-06 Eh
 * total energy  :  -127.8082323 Eh     change       -0.8089592E-06 Eh
 * total energy  :  -127.8082323 Eh     change       -0.4078913E-08 Eh
   *** GEOMETRY OPTIMIZATION CONVERGED AFTER 94 ITERATIONS ***

 final structure:
================
94
 xtb: 6.7.1 (edcfbbe)
C           -1.59157327538540       -5.74674153479323       -1.62194282499555
C           -2.14120427547944       -4.43305917720935       -1.15683141817136
C           -3.51100808856768       -4.17675473691618       -1.21524443430411
C           -4.03167631877375       -2.96949957174231       -0.80324705864845
C           -3.18688080864088       -1.96868288861951       -0.31095518120186
N           -3.69278646440395       -0.73342315170199        0.09901250803868
C           -4.90556488029671       -0.64882807622526        0.77924719867262
C           -5.73295070424741        0.46802600526379        0.61168434180588
C           -6.92544230839095        0.55963129229065        1.29428328898657
C           -7.34119428810448       -0.44789359068386        2.16426323904160
C           -8.63685638090173       -0.32508986920558        2.90572622207725
C           -6.51273631530796       -1.55451283403202        2.32978188959389
C           -5.31415620768981       -1.65931260934791        1.65598798670133
C           -2.94772152974388        0.41240765287265       -0.15088477377714
C           -2.26773208848824        0.57929311775245       -1.38058306856121
C           -1.50372473077100        1.68308774032994       -1.61379677876759
C           -1.31532129097776        2.69201686199664       -0.63203643178689
C           -0.28161734497152        3.78209577342804       -0.82205956028844
C            0.87354701125318        2.84108729110501       -0.57225207624143
C            1.23038887577498        2.43436469248443        0.73854148395506
C            2.12142087282583        1.42987700149058        0.97435168873905
C            2.72481018886525        0.72813801727832       -0.10065312128384
N            3.57276089616599       -0.34506220536301        0.12322890535894
C            4.42994840358823       -0.34460468901767        1.22475126737928
C            4.68718665266439       -1.52184045470557        1.93521945174350
C            5.52353315248020       -1.50563635996635        3.03105491451443
C            6.12554894345783       -0.32638734145494        3.46366883249639
C            7.04357201070744       -0.30717117975451        4.64683875104546
C            5.86205142194131        0.84492332316255        2.75375456764473
C            5.03195910871577        0.84413147301581        1.65504207094946
C            3.55178442793608       -1.43396527295304       -0.74990719725348
C            2.35564802007488       -1.84220728216815       -1.35197080254993
C            2.34517719549614       -2.90039974546337       -2.23480453301580
C            3.51246149666470       -3.59261327413533       -2.54867529659586
C            3.49690051163637       -4.75502539482444       -3.49290182559045
C            4.70130362650870       -3.18321575108244       -1.94414883103300
C            4.72943036267895       -2.12343423470941       -1.06518338825106
C            2.41679342897768        1.15154310559427       -1.41190852904402
C            1.53583240374859        2.16783884591824       -1.63687064935110
C           -0.33009366441569        4.42399513598660       -2.21788471147636
C            0.81874860732153        5.40601621283925       -2.43255691992128
C            0.76718134535797        6.52133402197402       -1.39610846087824
C            0.78551933496612        5.91587334254085        0.00162978510683
C           -0.37135825604904        4.93624847660755        0.18703291020442
C           -2.02684379046623        2.52124735424048        0.58361281859926
C           -2.82600615898650        1.43722987971954        0.81180618341344
C           -1.81164792345310       -2.21877065761929       -0.25423684272187
C           -1.30561485672380       -3.43218308420307       -0.66834586666604
H           -2.18461573159213       -6.57175558151832       -1.23063074119816
H           -1.62300482383348       -5.80388039231926       -2.71094097723619
H           -0.55982766075600       -5.87063703736515       -1.30207482019634
H           -4.17619702816691       -4.93838990974685       -1.59707274316238
H           -5.09400524737084       -2.78242606758310       -0.86577566513157
H           -5.43093213809609        1.24910607932932       -0.07087182703021
H           -7.55597878869250        1.42491095198418        1.14584814650419
H           -8.91413003182694       -1.27092304836454        3.36453461794519
H           -9.43480155993600       -0.01120219617104        2.23447453951674
H           -8.55082774539942        0.42592347519428        3.69220104246733
H           -6.80904178873428       -2.34528958978385        3.00451205718980
H           -4.67711271337873       -2.51826393110290        1.80917591545748
H           -2.38866697502677       -0.17328785543744       -2.14726157160309
H           -1.01561978444583        1.77315763685691       -2.57137382959718
H            0.76533328733140        2.90951622045162        1.58831544663997
H            2.35016716796881        1.13239746908247        1.98780105495503
H            4.21483772887636       -2.44231904115236        1.62409859400783
H            5.70652761844809       -2.42513791626135        3.56889400335788
H            8.07407980304517       -0.15882288859767        4.32134162356295
H            6.98947282516766       -1.24328445594046        5.19706265013206
H            6.78763325875623        0.51155016849286        5.31780247894361
H            6.32499521973728        1.76975006121217        3.06786388131605
H            4.84865729247644        1.75627382065914        1.10597461387375
H            1.43854805436922       -1.32550727745399       -1.11010248810363
H            1.41045844996408       -3.19880009710162       -2.68793736848595
H            4.34380139524672       -4.70817205262090       -4.17545899262266
H            2.57703338429877       -4.77215908360636       -4.07235561747495
H            3.56950373393884       -5.69171269401911       -2.93798844995096
H            5.62047209849485       -3.70100504589358       -2.17933824134684
H            5.66267530309865       -1.80723962840105       -0.62209614817597
H            2.91797416738398        0.67437896250264       -2.24297594523275
H            1.36211637962648        2.47430199753284       -2.65583799338319
H           -1.28118320550154        4.95731687452091       -2.30237514351768
H           -0.31770523000364        3.67373424742684       -3.00629712366699
H            0.75747513837214        5.82519711916219       -3.44020691185712
H            1.77037657942990        4.87751501560047       -2.34330950004178
H            1.61600122297368        7.19686592063386       -1.52548414170551
H           -0.14875622982926        7.10300362687462       -1.52965612269468
H            0.71718844814135        6.70616984998368        0.75343962420250
H            1.72821490025187        5.38455717948885        0.15490274442930
H           -1.32088364970853        5.45697401947059        0.03758729804311
H           -0.35151898042535        4.57458036932195        1.21336330403499
H           -1.95349773524526        3.26867653651488        1.35734755945119
H           -3.35444942249250        1.33915586274007        1.75004393796981
H           -1.15479100353115       -1.45518505254168        0.13726509286857
H           -0.24166097978302       -3.60982089391886       -0.60225997582796

          :  Hamiltonian                  GFN2-xTB          :
         :: gradient norm              0.000044583521 Eh/a0 ::
         :: HOMO-LUMO gap              0.201882968643 eV    ::
         :: SCC energy              -130.084853042055 Eh    ::
         :: -> dispersion             -0.123106559033 Eh    ::
         :: -> Gsolv                  -0.048891745943 Eh    ::
         :: repulsion energy           2.276620756550 Eh    ::

    * Orbital Energies and Occupations

         #    Occupation            Energy/Eh            Energy/eV
      -------------------------------------------------------------
         1        2.0000           -0.6635889             -18.0572
       ...           ...                  ...                  ...
       109        2.0000           -0.4044212             -11.0049
       110        2.0000           -0.4026524             -10.9567
       111        2.0000           -0.4022545             -10.9459
       112        2.0000           -0.3972487             -10.8097
       113        2.0000           -0.3945174             -10.7354
       114        2.0000           -0.3935559             -10.7092
       115        2.0000           -0.3930381             -10.6951
       116        2.0000           -0.3917619             -10.6604
       117        2.0000           -0.3893658             -10.5952
       118        2.0000           -0.3754999             -10.2179
       119        1.9952           -0.3449038              -9.3853
       120        1.0048           -0.3347482              -9.1090
       121        0.9753           -0.2343267              -6.3764 (HOMO)
       122        0.0158           -0.2269073              -6.1745 (LUMO)
       123        0.0086           -0.2263246              -6.1586
       124        0.0002           -0.2226292              -6.0581
       125        0.0001           -0.2221502              -6.0450
       126        0.0000           -0.2186157              -5.9488
       127        0.0000           -0.2183439              -5.9414
       128                         -0.2150686              -5.8523
       129                         -0.2090166              -5.6876
       130                         -0.2016473              -5.4871
       131                         -0.1938927              -5.2761
       132                         -0.1797380              -4.8909
       ...                                ...                  ...
       238                          0.6679084              18.1747
      -------------------------------------------------------------
                  HL-Gap            0.0074195 Eh            0.2019 eV

     #   Z          covCN         q      C6AA      α(0)
     1   6 C        3.757    -0.109    22.639     6.784
     2   6 C        2.965     0.010    27.800     8.648
     3   6 C        2.923    -0.041    29.027     8.835
     4   6 C        2.918    -0.047    29.179     8.858
     5   6 C        2.928     0.056    26.751     8.482
     6   7 N        2.750    -0.044    22.091     6.981
     7   6 C        2.925     0.056    26.740     8.480
     8   6 C        2.919    -0.047    29.157     8.855
     9   6 C        2.923    -0.041    29.016     8.834
    10   6 C        2.964     0.009    27.805     8.649
    11   6 C        3.757    -0.109    22.645     6.785
    12   6 C        2.922    -0.041    29.010     8.833
    13   6 C        2.919    -0.049    29.206     8.862
    14   6 C        2.927     0.033    27.268     8.564
    15   6 C        2.912    -0.052    29.293     8.875
    16   6 C        2.916    -0.044    29.094     8.845
    17   6 C        3.107    -0.012    28.174     8.697
    18   6 C        3.911     0.020    20.187     6.386
    19   6 C        3.106    -0.005    27.996     8.669
    20   6 C        2.915    -0.043    29.060     8.840
    21   6 C        2.912    -0.054    29.331     8.881
    22   6 C        2.925     0.033    27.267     8.563
    23   7 N        2.750    -0.039    22.004     6.967
    24   6 C        2.926     0.055    26.774     8.486
    25   6 C        2.919    -0.047    29.177     8.858
    26   6 C        2.922    -0.041    29.017     8.834
    27   6 C        2.964     0.009    27.805     8.649
    28   6 C        3.757    -0.109    22.644     6.785
    29   6 C        2.923    -0.041    29.018     8.834
    30   6 C        2.919    -0.046    29.136     8.852
    31   6 C        2.927     0.054    26.788     8.488
    32   6 C        2.919    -0.045    29.122     8.849
    33   6 C        2.922    -0.041    29.013     8.833
    34   6 C        2.964     0.009    27.821     8.652
    35   6 C        3.757    -0.109    22.638     6.784
    36   6 C        2.923    -0.041    29.027     8.835
    37   6 C        2.918    -0.048    29.185     8.859
    38   6 C        2.912    -0.049    29.205     8.862
    39   6 C        2.915    -0.048    29.186     8.859
    40   6 C        3.811    -0.056    21.568     6.610
    41   6 C        3.805    -0.053    21.523     6.605
    42   6 C        3.806    -0.055    21.554     6.609
    43   6 C        3.806    -0.053    21.514     6.603
    44   6 C        3.811    -0.056    21.566     6.610
    45   6 C        2.916    -0.049    29.218     8.864
    46   6 C        2.912    -0.049    29.218     8.864
    47   6 C        2.919    -0.045    29.109     8.848
    48   6 C        2.922    -0.040    29.006     8.832
    49   1 H        0.925     0.047     2.357     2.401
    50   1 H        0.924     0.050     2.323     2.384
    51   1 H        0.925     0.045     2.382     2.413
    52   1 H        0.926     0.035     2.516     2.480
    53   1 H        0.926     0.032     2.560     2.502
    54   1 H        0.926     0.033     2.550     2.497
    55   1 H        0.926     0.034     2.524     2.485
    56   1 H        0.925     0.044     2.395     2.420
    57   1 H        0.925     0.048     2.350     2.397
    58   1 H        0.924     0.050     2.326     2.385
    59   1 H        0.926     0.034     2.534     2.489
    60   1 H        0.926     0.031     2.567     2.505
    61   1 H        0.926     0.019     2.751     2.594
    62   1 H        0.926     0.022     2.699     2.569
    63   1 H        0.926     0.022     2.706     2.573
    64   1 H        0.926     0.019     2.754     2.595
    65   1 H        0.926     0.032     2.563     2.504
    66   1 H        0.926     0.034     2.533     2.489
    67   1 H        0.924     0.050     2.321     2.382
    68   1 H        0.925     0.044     2.396     2.420
    69   1 H        0.925     0.047     2.353     2.399
    70   1 H        0.926     0.035     2.523     2.484
    71   1 H        0.926     0.033     2.549     2.497
    72   1 H        0.926     0.032     2.553     2.499
    73   1 H        0.926     0.035     2.511     2.478
    74   1 H        0.925     0.046     2.366     2.406
    75   1 H        0.925     0.045     2.389     2.417
    76   1 H        0.924     0.050     2.321     2.382
    77   1 H        0.926     0.034     2.528     2.486
    78   1 H        0.926     0.031     2.572     2.508
    79   1 H        0.925     0.020     2.726     2.582
    80   1 H        0.926     0.025     2.664     2.552
    81   1 H        0.924     0.030     2.582     2.513
    82   1 H        0.925     0.030     2.592     2.518
    83   1 H        0.924     0.025     2.655     2.548
    84   1 H        0.924     0.033     2.543     2.494
    85   1 H        0.924     0.025     2.656     2.549
    86   1 H        0.924     0.030     2.591     2.517
    87   1 H        0.924     0.026     2.651     2.546
    88   1 H        0.924     0.031     2.575     2.509
    89   1 H        0.924     0.031     2.578     2.511
    90   1 H        0.925     0.030     2.588     2.516
    91   1 H        0.926     0.023     2.689     2.564
    92   1 H        0.925     0.020     2.732     2.585
    93   1 H        0.926     0.028     2.611     2.527
    94   1 H        0.926     0.036     2.499     2.472

molecular dipole:
                 x           y           z       tot (Debye)
 q only:        0.121      -1.139       0.215
   full:        0.130      -1.167       0.255       3.055

 projected vibrational frequencies (cm⁻¹)
eigval :       -0.00     0.00     0.00     0.00     0.00     0.00
eigval :        7.40    10.88    17.05    22.83    33.43    34.98
eigval :       37.65    42.42    44.75    46.26    51.32    52.22
eigval :       56.95    62.09    71.60    72.47    78.24    84.25
eigval :       99.60   108.81   114.07   117.95   124.94   143.68
eigval :      145.72   154.68   162.46   176.38   192.73   215.12
eigval :      224.18   246.55   258.44   258.64   259.88   277.80
eigval :      291.48   306.40   313.24   314.33   320.01   330.13
eigval :      334.96   348.41   356.34   360.41   363.98   375.58
eigval :      379.35   382.53   384.31   386.95   389.95   393.11
eigval :      407.39   413.18   420.43   433.01   438.98   441.15
eigval :      467.21   475.99   480.63   498.43   499.74   513.80
eigval :      532.93   534.29   537.94   574.75   595.91   598.89
eigval :      604.99   609.27   609.53   609.96   615.41   621.01
eigval :      626.80   653.70   654.99   655.76   658.80   663.41
eigval :      704.73   768.10   776.93   786.44   788.12   789.98
eigval :      795.13   797.98   799.50   801.52   807.84   815.09
eigval :      818.69   819.76   822.79   860.04   861.14   863.93
eigval :      866.31   879.57   887.29   891.74   895.23   899.56
eigval :      900.10   903.57   905.27   909.00   909.30   913.56
eigval :      914.57   918.20   919.78   920.93   922.13   924.91
eigval :      926.07   940.21   953.19   974.95   976.59   979.38
eigval :      999.24  1004.45  1004.88  1006.34  1007.12  1008.99
eigval :     1011.49  1015.02  1017.12  1028.35  1029.64  1030.33
eigval :     1031.03  1088.19  1091.53  1103.02  1116.63  1130.80
eigval :     1140.97  1141.75  1142.55  1143.95  1144.51  1149.07
eigval :     1156.26  1176.43  1179.68  1181.58  1184.47  1195.84
eigval :     1197.21  1198.82  1213.75  1218.19  1221.70  1223.62
eigval :     1231.10  1235.32  1240.81  1245.49  1250.36  1254.92
eigval :     1257.38  1267.79  1269.97  1273.77  1275.62  1297.00
eigval :     1303.60  1308.82  1314.48  1315.75  1323.44  1324.74
eigval :     1327.24  1330.66  1332.14  1333.54  1334.32  1340.07
eigval :     1343.09  1351.15  1354.56  1359.85  1361.79  1400.56
eigval :     1401.29  1402.06  1402.18  1406.81  1409.52  1417.90
eigval :     1419.58  1421.46  1434.67  1456.52  1461.05  1462.59
eigval :     1463.37  1466.99  1469.77  1471.37  1473.77  1474.53
eigval :     1476.00  1476.97  1477.57  1478.07  1479.73  1480.44
eigval :     1482.86  1487.01  1488.77  1492.57  1493.29  1495.18
eigval :     1498.21  1499.14  1512.00  1543.25  1544.95  1549.45
eigval :     1561.46  1609.57  2951.78  2952.99  2955.97  2959.13
eigval :     2962.11  2972.23  2974.76  2980.52  2985.79  2988.05
eigval :     2988.91  2989.03  3007.76  3009.81  3017.10  3018.45
eigval :     3020.00  3020.65  3040.13  3040.24  3040.72  3041.00
eigval :     3060.73  3063.14  3065.81  3067.62  3067.73  3068.46
eigval :     3068.62  3068.95  3070.61  3070.68  3071.11  3072.27
eigval :     3080.93  3082.25  3082.52  3083.37  3083.79  3085.27
eigval :     3085.57  3088.89  3091.05  3093.76  3098.80  3100.95

   temp. (K)  partition function   enthalpy   heat capacity  entropy
                                   cal/mol     cal/K/mol   cal/K/mol   J/K/mol
 298.15  VIB  0.404E+22            26601.771    161.741    168.878
         ROT  0.880E+08              888.752      2.981     39.334
         INT  0.355E+30            27490.523    164.722    208.211
         TR   0.152E+29             1481.254      4.968     45.169
         TOT                       28971.7773   169.6905   253.3804  1060.1438

       T/K    H(0)-H(T)+PV         H(T)/Eh          T*S/Eh         G(T)/Eh
   ------------------------------------------------------------------------
    298.15    0.461695E-01    0.816926E+00    0.120389E+00    0.696537E+00
   ------------------------------------------------------------------------

         :::::::::::::::::::::::::::::::::::::::::::::::::::::
         ::                  THERMODYNAMIC                  ::
         :::::::::::::::::::::::::::::::::::::::::::::::::::::
         :: total free energy        -127.111695303281 Eh   ::
         ::.................................................::
         :: total energy             -127.808232287172 Eh   ::
         :: zero point energy           0.770756745015 Eh   ::
         :: G(RRHO) w/o ZPVE           -0.074219761125 Eh   ::
         :: G(RRHO) contrib.            0.696536983890 Eh   ::
         :::::::::::::::::::::::::::::::::::::::::::::::::::::

           -------------------------------------------------
          | TOTAL ENERGY             -127.808232287172 Eh   |
          | TOTAL ENTHALPY           -126.991306076177 Eh   |
          | TOTAL FREE ENERGY        -127.111695303281 Eh   |
          | GRADIENT NORM               0.000044438176 Eh/α |
          | HOMO-LUMO GAP               0.201893633974 eV   |
           -------------------------------------------------

 * finished run on 2025/09/04 at 21:42:00.348
