   * xtb version 6.7.1 (edcfbbe) compiled by 'albert@albert-system' on 2024-07-22

   ID    Z sym.   atoms
    1    6 C      1-5, 7-22, 24-48
    2    7 N      6, 23
    3    1 H      49-94

          program call               : xtb data2507/toluene/TPA-BT-Q/TPA-BT-Q_toluene_S0_finalOpt.xtbopt.xyz --gfn 2 --uhf 2 --gbsa toluene --ohess vtight --parallel 40 --molden --ceasefiles --namespace data2507/toluene/TPA-BT-Q/TPA-BT-Q_toluene_T1_preOpt
      * Solvation model:               GBSA
        Solvent                        toluene
        Solvent mass                       9.2140E+01 g/mol
          :  Hamiltonian                  GFN2-xTB          :
 * total energy  :  -127.8034500 Eh     change        0.6012669E-08 Eh
 * total energy  :  -127.8058343 Eh     change       -0.2384277E-02 Eh
 * total energy  :  -127.8063370 Eh     change       -0.5026929E-03 Eh
 * total energy  :  -127.8064023 Eh     change       -0.6531682E-04 Eh
 * total energy  :  -127.8064688 Eh     change       -0.6646446E-04 Eh
 * total energy  :  -127.8065038 Eh     change       -0.3499565E-04 Eh
 * total energy  :  -127.8065719 Eh     change       -0.6814923E-04 Eh
 * total energy  :  -127.8066440 Eh     change       -0.7204178E-04 Eh
 * total energy  :  -127.8066861 Eh     change       -0.4210963E-04 Eh
 * total energy  :  -127.8067169 Eh     change       -0.3087669E-04 Eh
 * total energy  :  -127.8079867 Eh     change       -0.1816153E-05 Eh
 * total energy  :  -127.8079881 Eh     change       -0.1369555E-05 Eh
 * total energy  :  -127.8079891 Eh     change       -0.1015871E-05 Eh
 * total energy  :  -127.8079900 Eh     change       -0.8804544E-06 Eh
 * total energy  :  -127.8079910 Eh     change       -0.9620353E-06 Eh
 * total energy  :  -127.8079921 Eh     change       -0.1155931E-05 Eh
 * total energy  :  -127.8079935 Eh     change       -0.1363472E-05 Eh
 * total energy  :  -127.8079949 Eh     change       -0.1400429E-05 Eh
 * total energy  :  -127.8079949 Eh     change       -0.6580166E-08 Eh
   *** GEOMETRY OPTIMIZATION CONVERGED AFTER 122 ITERATIONS ***

 final structure:
================
94
 xtb: 6.7.1 (edcfbbe)
C           -2.88840099025358       -5.39831683579508       -2.91731159212138
C           -3.21616710417973       -4.11539656427081       -2.21783636630697
C           -4.50208550415219       -3.57513302389675       -2.30152473493962
C           -4.82594401734803       -2.39783310369933       -1.66722190252050
C           -3.86450208607519       -1.71327429119747       -0.91236420766945
N           -4.17336974980445       -0.51009493138374       -0.27952283214921
C           -5.43878052321568       -0.30612545446975        0.27106404444955
C           -6.03457498950371        0.96111328379052        0.23032450974588
C           -7.27746437439189        1.16332980848084        0.78520029496404
C           -7.97435772695086        0.12206815428725        1.40206802434298
C           -9.32140097739905        0.36638669290492        2.00897390191695
C           -7.37521875718526       -1.13492106202704        1.44302655133881
C           -6.13072025481272       -1.35339780274168        0.89255823260256
C           -3.20997330181711        0.48572067308544       -0.18577411391291
C           -2.30809838925314        0.73271157061946       -1.24944583278347
C           -1.36163165771780        1.71135627909113       -1.14483443515829
C           -1.22694836470940        2.50718446143549        0.01334963413512
C           -0.08090793029053        3.49300705250025        0.13141548836224
C            1.06442632493558        2.50443132894440        0.16517699914272
C            1.27439295080671        1.69557519296865        1.30287555326255
C            2.21915049742513        0.70982732279022        1.33290513023813
C            3.04023201001355        0.46254509244546        0.20534485318497
N            4.00967923573915       -0.53027865008405        0.22805652074993
C            5.22543618785140       -0.33046832862323       -0.42537691154735
C            5.87047704021451       -1.38627920177377       -1.08338212227448
C            7.06230665514042       -1.17317124583084       -1.73710391871289
C            7.65774306198774        0.09025203537374       -1.76790850946344
C            8.95069255362097        0.30079003130208       -2.49349119970699
C            7.01019140243376        1.13676757491554       -1.11470781328946
C            5.81710250460509        0.93931853235481       -0.45448718853027
C            3.75680471904891       -1.72929275637214        0.89373937467151
C            4.77556213411647       -2.39617448371315        1.58692172037554
C            4.50973884945707       -3.57118621569056        2.25129235846249
C            3.22749266529173       -4.12741093730884        2.25825717708784
C            2.96177894987827       -5.40575012860578        2.99159362579649
C            2.21791685715494       -3.45798181278115        1.57063835874991
C            2.46838024747332       -2.28140918747599        0.89851012053737
C            2.82853253386094        1.24810558674500       -0.94426396783524
C            1.86475001352352        2.21898994457811       -0.96620682667235
C           -0.06778274675361        4.46946916141400       -1.05962860247607
C            1.09905906328520        5.45262023623759       -1.00098972801273
C            1.05588282384954        6.26104066476748        0.28946892077170
C            1.04768538706909        5.31097743376417        1.48021542807393
C           -0.14244985941342        4.35819852223826        1.40174587122142
C           -2.12424252908211        2.24038166063129        1.07209231846223
C           -3.09088308727305        1.27610880129393        0.97339039350114
C           -2.57343662058485       -2.25139648774005       -0.82357975333914
C           -2.26379099087116       -3.42944734948146       -1.46810015756248
H           -1.83830504221271       -5.65131287547633       -2.79477370951093
H           -3.49157684069813       -6.21392863392178       -2.51754525809913
H           -3.10670427547602       -5.31847558870225       -3.98211937618446
H           -5.25349805683532       -4.08875578074334       -2.88431004088752
H           -5.82004521609629       -1.98445076162379       -1.75767175963396
H           -5.51288506103821        1.77200885639338       -0.25713237509533
H           -7.72796955922814        2.14456796871177        0.73572892275933
H           -9.96602105890586        0.89765451883243        1.30990650444983
H           -9.22626836941095        0.98254677784232        2.90412162804025
H           -9.79957648239176       -0.56975476093553        2.28624955057426
H           -7.89164751355828       -1.95468716199413        1.92232873152733
H           -5.67376997286775       -2.33079315390226        0.94709604402887
H           -2.39733409159787        0.15196675014316       -2.15637240940006
H           -0.69007782697485        1.86857602435154       -1.97549161036832
H            0.66723703921400        1.84877592835874        2.18239130989244
H            2.36991090240381        0.12393253662748        2.22828816783734
H            5.41483603672513       -2.36593113107291       -1.08339076543277
H            7.54476536168100       -1.99676074856141       -2.24417497850708
H            8.81242376208072        0.15193055771826       -3.56506334595780
H            9.70021485863668       -0.41414140378558       -2.15541120114280
H            9.32864155088612        1.30713828464708       -2.33154685121894
H            7.45480266782814        2.12203584135734       -1.11734575904479
H            5.33522769051831        1.75688553980664        0.06163280549567
H            5.76848983587238       -1.97053125514892        1.60539414876815
H            5.30505523732939       -4.07090968741226        2.78591656787307
H            3.61609083772646       -6.19787301542316        2.62769524928008
H            1.92900124441064       -5.72009899997919        2.86389488023119
H            3.15725378791418       -5.28042659650060        4.05693825986033
H            1.21921998694343       -3.87165059797711        1.55584368867965
H            1.68025127336214       -1.78178268251430        0.35439771894614
H            3.42544454343345        1.05679345215951       -1.82529553027351
H            1.72795289366711        2.77476348315985       -1.88004834572707
H           -1.00719886089017        5.02923629511477       -1.03143148850081
H           -0.04939780324761        3.93232718168007       -2.00728663374212
H            1.05365270888731        6.12008018333992       -1.86557002784070
H            2.04400230873732        4.90782976871402       -1.04495392245680
H            1.91881936503511        6.92876510681438        0.34458627985442
H            0.15260368878136        6.87648609268138        0.30831648515433
H            0.99725107365996        5.87865015789006        2.41277829425602
H            1.97254071073273        4.72866895121108        1.48931022351179
H           -1.06827980488022        4.93896784413255        1.38556746924949
H           -0.14971141873505        3.73996586696394        2.29837705211130
H           -2.06715778643581        2.81076576245981        1.98520521091987
H           -3.76428432221310        1.09687079334981        1.80004371247665
H           -1.83009568644138       -1.73875622364396       -0.23080841397256
H           -1.26355551653736       -3.83051587109945       -1.38202859975148

          :  Hamiltonian                  GFN2-xTB          :
         :: gradient norm              0.000056562169 Eh/a0 ::
         :: HOMO-LUMO gap              0.120857919860 eV    ::
         :: SCC energy              -130.083761368017 Eh    ::
         :: -> dispersion             -0.120482169434 Eh    ::
         :: -> Gsolv                  -0.050243652406 Eh    ::
         :: repulsion energy           2.275766464372 Eh    ::

    * Orbital Energies and Occupations

         #    Occupation            Energy/Eh            Energy/eV
      -------------------------------------------------------------
         1        2.0000           -0.6636561             -18.0590
       ...           ...                  ...                  ...
       109        2.0000           -0.4045728             -11.0090
       110        2.0000           -0.4024484             -10.9512
       111        2.0000           -0.4020770             -10.9411
       112        2.0000           -0.3973337             -10.8120
       113        2.0000           -0.3953368             -10.7577
       114        2.0000           -0.3936241             -10.7111
       115        2.0000           -0.3922870             -10.6747
       116        2.0000           -0.3919413             -10.6653
       117        2.0000           -0.3890823             -10.5875
       118        2.0000           -0.3791153             -10.3163
       119        1.9693           -0.3446452              -9.3783
       120        1.0307           -0.3380861              -9.1998
       121        0.8802           -0.2311788              -6.2907 (HOMO)
       122        0.0642           -0.2267379              -6.1699 (LUMO)
       123        0.0547           -0.2265770              -6.1655
       124        0.0004           -0.2219533              -6.0397
       125        0.0004           -0.2217907              -6.0352
       126        0.0000           -0.2190227              -5.9599
       127        0.0000           -0.2177555              -5.9254
       128        0.0000           -0.2173227              -5.9137
       129                         -0.2088762              -5.6838
       130                         -0.2062051              -5.6111
       131                         -0.1926858              -5.2432
       132                         -0.1842012              -5.0124
       ...                                ...                  ...
       238                          0.6678181              18.1723
      -------------------------------------------------------------
                  HL-Gap            0.0044409 Eh            0.1208 eV

     #   Z          covCN         q      C6AA      α(0)
     1   6 C        3.757    -0.109    22.635     6.783
     2   6 C        2.964     0.008    27.840     8.655
     3   6 C        2.922    -0.042    29.048     8.838
     4   6 C        2.918    -0.047    29.168     8.856
     5   6 C        2.926     0.053    26.810     8.491
     6   7 N        2.750    -0.039    21.986     6.964
     7   6 C        2.926     0.053    26.810     8.491
     8   6 C        2.918    -0.046    29.132     8.851
     9   6 C        2.922    -0.042    29.033     8.836
    10   6 C        2.964     0.008    27.829     8.653
    11   6 C        3.757    -0.109    22.640     6.784
    12   6 C        2.922    -0.041    29.011     8.833
    13   6 C        2.918    -0.048    29.193     8.860
    14   6 C        2.926     0.036    27.202     8.553
    15   6 C        2.913    -0.053    29.327     8.880
    16   6 C        2.918    -0.041    29.017     8.833
    17   6 C        3.019    -0.011    28.277     8.723
    18   6 C        3.910     0.017    20.235     6.394
    19   6 C        3.017    -0.004    28.103     8.696
    20   6 C        2.918    -0.040    29.006     8.832
    21   6 C        2.913    -0.053    29.323     8.880
    22   6 C        2.926     0.036    27.204     8.553
    23   7 N        2.750    -0.037    21.966     6.961
    24   6 C        2.926     0.053    26.822     8.493
    25   6 C        2.918    -0.047    29.167     8.856
    26   6 C        2.922    -0.042    29.040     8.837
    27   6 C        2.964     0.008    27.838     8.654
    28   6 C        3.757    -0.109    22.637     6.783
    29   6 C        2.921    -0.041    29.008     8.832
    30   6 C        2.918    -0.047    29.157     8.855
    31   6 C        2.927     0.052    26.825     8.494
    32   6 C        2.917    -0.047    29.161     8.855
    33   6 C        2.922    -0.042    29.052     8.839
    34   6 C        2.964     0.008    27.846     8.656
    35   6 C        3.757    -0.109    22.633     6.783
    36   6 C        2.921    -0.040    29.001     8.831
    37   6 C        2.918    -0.046    29.152     8.854
    38   6 C        2.913    -0.048    29.200     8.861
    39   6 C        2.917    -0.046    29.149     8.853
    40   6 C        3.811    -0.055    21.553     6.608
    41   6 C        3.805    -0.054    21.533     6.606
    42   6 C        3.806    -0.055    21.551     6.609
    43   6 C        3.806    -0.052    21.511     6.603
    44   6 C        3.812    -0.056    21.566     6.610
    45   6 C        2.917    -0.049    29.213     8.863
    46   6 C        2.913    -0.048    29.187     8.859
    47   6 C        2.918    -0.047    29.155     8.854
    48   6 C        2.921    -0.040    28.999     8.831
    49   1 H        0.925     0.043     2.408     2.427
    50   1 H        0.924     0.049     2.334     2.389
    51   1 H        0.925     0.048     2.345     2.395
    52   1 H        0.926     0.034     2.526     2.485
    53   1 H        0.926     0.032     2.562     2.503
    54   1 H        0.926     0.032     2.554     2.499
    55   1 H        0.926     0.034     2.529     2.487
    56   1 H        0.925     0.048     2.350     2.397
    57   1 H        0.924     0.049     2.330     2.387
    58   1 H        0.925     0.044     2.400     2.423
    59   1 H        0.926     0.033     2.539     2.492
    60   1 H        0.926     0.031     2.567     2.506
    61   1 H        0.926     0.021     2.720     2.579
    62   1 H        0.926     0.023     2.691     2.565
    63   1 H        0.926     0.022     2.703     2.571
    64   1 H        0.926     0.020     2.731     2.584
    65   1 H        0.926     0.031     2.567     2.506
    66   1 H        0.926     0.034     2.527     2.486
    67   1 H        0.924     0.049     2.334     2.389
    68   1 H        0.925     0.048     2.347     2.396
    69   1 H        0.925     0.043     2.406     2.426
    70   1 H        0.926     0.033     2.548     2.496
    71   1 H        0.926     0.032     2.564     2.504
    72   1 H        0.926     0.031     2.566     2.505
    73   1 H        0.926     0.034     2.529     2.487
    74   1 H        0.925     0.048     2.342     2.393
    75   1 H        0.925     0.043     2.409     2.427
    76   1 H        0.924     0.048     2.341     2.393
    77   1 H        0.926     0.032     2.557     2.501
    78   1 H        0.926     0.030     2.584     2.514
    79   1 H        0.925     0.021     2.711     2.575
    80   1 H        0.926     0.028     2.621     2.532
    81   1 H        0.924     0.030     2.591     2.517
    82   1 H        0.925     0.029     2.598     2.521
    83   1 H        0.924     0.026     2.650     2.546
    84   1 H        0.924     0.034     2.528     2.487
    85   1 H        0.924     0.025     2.658     2.550
    86   1 H        0.924     0.030     2.591     2.517
    87   1 H        0.924     0.026     2.651     2.546
    88   1 H        0.924     0.030     2.591     2.517
    89   1 H        0.924     0.032     2.562     2.503
    90   1 H        0.925     0.030     2.585     2.514
    91   1 H        0.926     0.026     2.642     2.542
    92   1 H        0.926     0.022     2.696     2.568
    93   1 H        0.926     0.030     2.583     2.513
    94   1 H        0.926     0.032     2.556     2.500

molecular dipole:
                 x           y           z       tot (Debye)
 q only:       -0.007      -0.827      -0.049
   full:       -0.008      -0.888      -0.044       2.261

 projected vibrational frequencies (cm⁻¹)
eigval :       -0.00    -0.00     0.00     0.00     0.00     0.00
eigval :      -64.44   -17.80     7.68    11.98    14.55    22.31
eigval :       29.85    33.43    36.31    42.03    43.02    47.34
eigval :       52.11    55.73    63.37    66.93    68.18    74.88
eigval :       99.91   102.36   107.63   123.15   137.30   140.44
eigval :      149.03   149.27   162.30   171.48   192.21   213.29
eigval :      226.75   243.70   257.76   259.02   264.44   277.34
eigval :      290.03   303.87   307.79   315.82   326.05   329.66
eigval :      335.49   347.25   356.13   359.73   364.77   375.64
eigval :      376.15   378.66   381.34   384.05   387.90   391.25
eigval :      406.31   413.06   427.92   436.60   442.70   448.70
eigval :      468.51   474.01   481.31   498.10   499.93   513.85
eigval :      533.75   535.73   540.43   573.50   598.41   600.04
eigval :      604.43   608.40   608.77   609.02   616.87   630.76
eigval :      637.50   650.05   650.60   651.37   653.21   658.40
eigval :      701.91   758.57   776.26   782.13   784.79   785.60
eigval :      792.42   793.01   794.60   796.48   809.40   815.37
eigval :      819.89   823.71   828.23   855.63   855.83   857.14
eigval :      859.68   882.63   891.57   892.08   896.93   898.72
eigval :      902.38   903.08   905.41   906.14   907.81   909.49
eigval :      910.39   911.97   912.99   918.69   919.33   920.56
eigval :      921.49   939.75   954.32   973.05   981.02   982.73
eigval :      998.68   999.47  1001.09  1001.90  1002.61  1005.70
eigval :     1009.43  1010.90  1012.21  1027.91  1028.49  1028.72
eigval :     1029.05  1060.12  1090.98  1094.85  1117.68  1123.35
eigval :     1139.78  1141.57  1142.04  1143.86  1146.79  1150.62
eigval :     1155.48  1173.45  1176.52  1178.33  1179.68  1186.38
eigval :     1195.90  1199.44  1212.74  1215.13  1219.86  1223.16
eigval :     1226.11  1235.50  1237.25  1239.22  1250.91  1254.26
eigval :     1256.98  1262.51  1263.89  1265.49  1268.58  1289.01
eigval :     1302.76  1304.30  1309.17  1314.59  1318.99  1323.63
eigval :     1325.82  1326.91  1332.85  1334.62  1335.09  1340.21
eigval :     1342.55  1345.21  1349.39  1358.88  1360.05  1380.87
eigval :     1383.35  1389.61  1389.85  1399.00  1401.21  1401.52
eigval :     1401.97  1410.50  1426.06  1426.96  1427.91  1430.42
eigval :     1441.40  1448.49  1450.71  1455.36  1459.87  1460.57
eigval :     1468.13  1473.74  1474.25  1474.70  1476.20  1478.36
eigval :     1479.09  1483.30  1483.67  1484.64  1484.79  1488.18
eigval :     1492.90  1496.28  1504.65  1511.62  1519.24  1526.42
eigval :     1527.79  1602.46  2950.30  2952.26  2955.31  2957.68
eigval :     2961.78  2971.97  2974.68  2985.70  2988.17  2990.42
eigval :     2991.87  2992.49  2999.40  3000.84  3007.26  3007.97
eigval :     3010.95  3013.48  3041.20  3041.85  3042.54  3043.52
eigval :     3064.75  3065.66  3065.86  3066.26  3066.69  3067.00
eigval :     3068.75  3069.38  3069.79  3070.23  3070.79  3070.89
eigval :     3081.43  3081.64  3082.42  3082.76  3084.32  3084.75
eigval :     3084.94  3085.06  3085.42  3086.53  3099.85  3102.23

   temp. (K)  partition function   enthalpy   heat capacity  entropy
                                   cal/mol     cal/K/mol   cal/K/mol   J/K/mol
 298.15  VIB  0.559E+22            26229.794    159.541    166.087
         ROT  0.963E+08              888.752      2.981     39.513
         INT  0.538E+30            27118.546    162.522    205.600
         TR   0.152E+29             1481.254      4.968     45.169
         TOT                       28599.7998   167.4901   250.7692  1049.2183

       T/K    H(0)-H(T)+PV         H(T)/Eh          T*S/Eh         G(T)/Eh
   ------------------------------------------------------------------------
    298.15    0.455767E-01    0.814084E+00    0.119149E+00    0.694935E+00
   ------------------------------------------------------------------------

         :::::::::::::::::::::::::::::::::::::::::::::::::::::
         ::                  THERMODYNAMIC                  ::
         :::::::::::::::::::::::::::::::::::::::::::::::::::::
         :: total free energy        -127.113059792480 Eh   ::
         ::.................................................::
         :: total energy             -127.807994902669 Eh   ::
         :: zero point energy           0.768506966498 Eh   ::
         :: G(RRHO) w/o ZPVE           -0.073571856308 Eh   ::
         :: G(RRHO) contrib.            0.694935110189 Eh   ::
         :::::::::::::::::::::::::::::::::::::::::::::::::::::

           -------------------------------------------------
          | TOTAL ENERGY             -127.807994902669 Eh   |
          | TOTAL ENTHALPY           -126.993911254148 Eh   |
          | TOTAL FREE ENERGY        -127.113059792480 Eh   |
          | GRADIENT NORM               0.000056471549 Eh/α |
          | HOMO-LUMO GAP               0.120841978881 eV   |
           -------------------------------------------------

 * finished run on 2025/09/04 at 21:19:02.653
