   * xtb version 6.7.1 (edcfbbe) compiled by 'albert@albert-system' on 2024-07-22

   ID    Z sym.   atoms
    1    6 C      1-9, 11-13, 15, 17-38
    2    7 N      10, 14, 16
    3    1 H      39-69

          program call               : xtb data2507/toluene/Pra-2DMAC/Pra-2DMAC_toluene_S0_crest.xyz --gfn 2 --gbsa toluene --ohess vtight --parallel 40 --molden --ceasefiles --namespace data2507/toluene/Pra-2DMAC/Pra-2DMAC_toluene_S0_finalOpt
      * Solvation model:               GBSA
        Solvent                        toluene
        Solvent mass                       9.2140E+01 g/mol
          :  Hamiltonian                  GFN2-xTB          :
 * total energy  :   -99.6323624 Eh     change       -0.4741565E-08 Eh
 * total energy  :   -99.6324124 Eh     change       -0.5001749E-04 Eh
 * total energy  :   -99.6324299 Eh     change       -0.1754490E-04 Eh
 * total energy  :   -99.6324375 Eh     change       -0.7539297E-05 Eh
 * total energy  :   -99.6324453 Eh     change       -0.7783078E-05 Eh
 * total energy  :   -99.6324501 Eh     change       -0.4861674E-05 Eh
 * total energy  :   -99.6324541 Eh     change       -0.3978473E-05 Eh
 * total energy  :   -99.6324587 Eh     change       -0.4592705E-05 Eh
 * total energy  :   -99.6324647 Eh     change       -0.6017970E-05 Eh
 * total energy  :   -99.6324718 Eh     change       -0.7088533E-05 Eh
 * total energy  :   -99.6325439 Eh     change       -0.2196760E-06 Eh
 * total energy  :   -99.6325441 Eh     change       -0.2281915E-06 Eh
 * total energy  :   -99.6325444 Eh     change       -0.3237240E-06 Eh
 * total energy  :   -99.6325448 Eh     change       -0.4230445E-06 Eh
 * total energy  :   -99.6325453 Eh     change       -0.4427425E-06 Eh
 * total energy  :   -99.6325457 Eh     change       -0.4237121E-06 Eh
 * total energy  :   -99.6325461 Eh     change       -0.3719168E-06 Eh
 * total energy  :   -99.6325464 Eh     change       -0.3188427E-06 Eh
 * total energy  :   -99.6325464 Eh     change       -0.1494257E-08 Eh
   *** GEOMETRY OPTIMIZATION CONVERGED AFTER 44 ITERATIONS ***

 final structure:
================
69
 xtb: 6.7.1 (edcfbbe)
C            6.30140949346943        0.00130614183243       -0.16576898291794
C            4.96838917961655        0.33347595328051        0.53103008733519
C            5.22672669330410        1.13466319093525        1.82110834788967
C            4.27170887722555       -0.96319331697321        0.89949233447582
C            4.89811852344207       -1.85345419882841        1.76155308941141
C            4.30294581772318       -3.03721743097086        2.15740552109798
C            3.03373418030672       -3.34081025417335        1.69902233985726
C            2.38892702336578       -2.47468590494126        0.84068685634970
C            3.00153639630937       -1.29253766791967        0.41397896425664
N            2.33409945095180       -0.44987322240578       -0.46381771616092
C            1.05860512824834       -0.83384842990117       -0.95436353128568
C            0.93952507948414       -1.84812917513435       -1.90785883031012
C           -0.33619390322628       -2.19092180090369       -2.31040570185598
N           -1.43364513720151       -1.59274210496996       -1.88274487393974
C           -1.32912709759402       -0.59864794946266       -1.00085890659844
N           -2.48311003124201       -0.00960966988395       -0.55013216024256
C           -2.47582255949506        1.21698557051911        0.14234006372060
C           -1.73397989722606        2.29338718816088       -0.33215710784079
C           -1.78232568877926        3.50925036899384        0.32216547918626
C           -2.59455835187814        3.65885909439609        1.43301957244265
C           -3.35792575772595        2.59586606765453        1.88591691329609
C           -3.30820964248384        1.36119117419780        1.25568097875039
C           -4.08867947105155        0.13661338300416        1.69486067073008
C           -5.18928152007069        0.47344280586108        2.70112072995931
C           -3.11412039184860       -0.85500168958609        2.36519052606926
C           -4.62604771998796       -0.50089956754656        0.42399266903773
C           -5.90665131916871       -1.01766922795892        0.30249392734472
C           -6.32398053241317       -1.62194796740343       -0.87176513336403
C           -5.46425952578275       -1.70289098156408       -1.95178297313661
C           -4.18850008602985       -1.17642361751778       -1.86103594393674
C           -3.76424308057152       -0.59153575441247       -0.67589108407813
C           -0.07938491840954       -0.20983811735323       -0.48367918589244
C            2.87974290113270        0.75710383720829       -0.87780738994779
C            2.18823611622929        1.55426143722552       -1.79495144075287
C            2.69574760519774        2.76732703462989       -2.21099010224748
C            3.91604855568656        3.20375754164879       -1.72792059637348
C            4.61816756324191        2.40202198381584       -0.84677253668373
C            4.12977516108880        1.17761509013030       -0.41050390023563
H            6.83942219909307        0.90863397976259       -0.42576952223044
H            6.11253818933916       -0.55971289101057       -1.07969444637213
H            6.93697271633035       -0.59861813356977        0.47953201799392
H            5.73623119880601        2.06875162084091        1.60189590452209
H            4.28128911403027        1.36502016767122        2.30973980874779
H            5.84112962021049        0.56647885621237        2.51381631274285
H            5.88170992606100       -1.62071040404845        2.14038831958094
H            4.82144906646279       -3.70900127803470        2.82475966430336
H            2.54016102803733       -4.25032936909442        2.00879557755496
H            1.39434769033521       -2.71569473364817        0.49702578011235
H            1.81151384644207       -2.34957408432957       -2.29492212800185
H           -0.50178839046884       -2.98560146985095       -3.02672253134115
H           -1.12892352602873        2.17526375987720       -1.21901817508415
H           -1.19641648348379        4.33854604579718       -0.04493046384806
H           -2.64125981542241        4.60833984134634        1.94495893885346
H           -3.99226993549647        2.74193556997736        2.74466902790060
H           -4.75481145017991        0.91255388802267        3.59556814794546
H           -5.90817660998015        1.16945505360189        2.27497860079503
H           -5.70782926971863       -0.43173045730286        3.00595452255062
H           -2.67135033945135       -0.40058276612698        3.24928631208110
H           -2.31276700236216       -1.14503044005636        1.69023210564429
H           -3.64941021268008       -1.75394233081021        2.66334407552722
H           -6.59615460053342       -0.96079624702779        1.12874929412904
H           -7.32336040957284       -2.02567838423564       -0.94001493964323
H           -5.78750146617472       -2.16370999875160       -2.87338007904875
H           -3.51499215170401       -1.22268775007322       -2.69919173830287
H           -0.00229908459905        0.55015554465721        0.27771358445023
H            1.24440999164573        1.21309398470706       -2.19230672575578
H            2.13789586929215        3.36600222927145       -2.91630885974089
H            4.32408325642042        4.15260219139539       -2.04213394203937
H            5.57832266790961        2.74544805236308       -0.49287470193341

          :  Hamiltonian                  GFN2-xTB          :
         :: gradient norm              0.000034479529 Eh/a0 ::
         :: HOMO-LUMO gap              2.638992098042 eV    ::
         :: SCC energy              -101.402885408911 Eh    ::
         :: -> dispersion             -0.095766568018 Eh    ::
         :: -> Gsolv                  -0.037694246250 Eh    ::
         :: repulsion energy           1.770339006165 Eh    ::

    * Orbital Energies and Occupations

         #    Occupation            Energy/Eh            Energy/eV
      -------------------------------------------------------------
         1        2.0000           -0.6782570             -18.4563
       ...           ...                  ...                  ...
        81        2.0000           -0.4171912             -11.3524
        82        2.0000           -0.4132516             -11.2451
        83        2.0000           -0.4109488             -11.1825
        84        2.0000           -0.4094952             -11.1429
        85        2.0000           -0.4053659             -11.0306
        86        2.0000           -0.4042776             -11.0010
        87        2.0000           -0.4011313             -10.9153
        88        2.0000           -0.3997697             -10.8783
        89        2.0000           -0.3968528             -10.7989
        90        2.0000           -0.3943657             -10.7312
        91        2.0000           -0.3757959             -10.2259
        92        2.0000           -0.3619841              -9.8501
        93        2.0000           -0.3489507              -9.4954 (HOMO)
        94                         -0.2519696              -6.8564 (LUMO)
        95                         -0.2420035              -6.5853
        96                         -0.2285536              -6.2193
        97                         -0.2262478              -6.1565
        98                         -0.2236340              -6.0854
        99                         -0.2211750              -6.0185
       100                         -0.2201746              -5.9913
       101                         -0.2187601              -5.9528
       102                         -0.2063186              -5.6142
       103                         -0.1914066              -5.2084
       104                         -0.1160502              -3.1579
       ...                                ...                  ...
       183                          0.6763864              18.4054
      -------------------------------------------------------------
                  HL-Gap            0.0969812 Eh            2.6390 eV

     #   Z          covCN         q      C6AA      α(0)
     1   6 C        3.761    -0.104    22.525     6.766
     2   6 C        3.909     0.021    20.164     6.383
     3   6 C        3.761    -0.104    22.530     6.767
     4   6 C        2.979    -0.014    28.362     8.736
     5   6 C        2.928    -0.038    28.939     8.822
     6   6 C        2.917    -0.046    29.144     8.853
     7   6 C        2.919    -0.035    28.872     8.811
     8   6 C        2.924    -0.059    29.475     8.903
     9   6 C        2.927     0.060    26.657     8.467
    10   7 N        2.754    -0.082    22.842     7.098
    11   6 C        2.935     0.086    26.080     8.375
    12   6 C        2.914    -0.069    29.724     8.940
    13   6 C        2.902     0.060    26.660     8.466
    14   7 N        1.843    -0.279    28.088     7.854
    15   6 C        2.897     0.158    24.593     8.131
    16   7 N        2.758    -0.072    22.640     7.067
    17   6 C        2.945     0.055    26.771     8.486
    18   6 C        2.921    -0.047    29.174     8.857
    19   6 C        2.919    -0.034    28.836     8.806
    20   6 C        2.919    -0.038    28.940     8.822
    21   6 C        2.923    -0.039    28.960     8.825
    22   6 C        2.986    -0.006    28.169     8.706
    23   6 C        3.911     0.022    20.145     6.380
    24   6 C        3.759    -0.110    22.650     6.785
    25   6 C        3.762    -0.098    22.424     6.750
    26   6 C        2.986    -0.009    28.232     8.716
    27   6 C        2.923    -0.041    29.010     8.833
    28   6 C        2.918    -0.039    28.961     8.825
    29   6 C        2.920    -0.034    28.845     8.807
    30   6 C        2.919    -0.047    29.158     8.855
    31   6 C        2.941     0.061    26.637     8.465
    32   6 C        2.920    -0.076    29.903     8.967
    33   6 C        2.927     0.060    26.657     8.467
    34   6 C        2.924    -0.059    29.463     8.901
    35   6 C        2.919    -0.035    28.870     8.811
    36   6 C        2.917    -0.046    29.147     8.853
    37   6 C        2.928    -0.038    28.936     8.822
    38   6 C        2.979    -0.014    28.360     8.736
    39   1 H        0.925     0.042     2.416     2.431
    40   1 H        0.925     0.029     2.596     2.520
    41   1 H        0.925     0.043     2.415     2.430
    42   1 H        0.925     0.043     2.413     2.429
    43   1 H        0.925     0.030     2.590     2.517
    44   1 H        0.925     0.043     2.415     2.430
    45   1 H        0.926     0.034     2.526     2.485
    46   1 H        0.926     0.028     2.620     2.531
    47   1 H        0.926     0.027     2.625     2.534
    48   1 H        0.926     0.019     2.756     2.596
    49   1 H        0.926     0.038     2.470     2.458
    50   1 H        0.925     0.038     2.471     2.458
    51   1 H        0.926     0.029     2.597     2.520
    52   1 H        0.926     0.037     2.494     2.470
    53   1 H        0.926     0.038     2.474     2.460
    54   1 H        0.926     0.049     2.336     2.390
    55   1 H        0.925     0.046     2.374     2.409
    56   1 H        0.925     0.042     2.423     2.434
    57   1 H        0.925     0.046     2.370     2.408
    58   1 H        0.925     0.042     2.423     2.434
    59   1 H        0.925     0.028     2.614     2.528
    60   1 H        0.925     0.043     2.412     2.429
    61   1 H        0.926     0.046     2.375     2.410
    62   1 H        0.926     0.035     2.511     2.478
    63   1 H        0.926     0.036     2.504     2.475
    64   1 H        0.926     0.055     2.260     2.351
    65   1 H        0.926     0.039     2.463     2.454
    66   1 H        0.926     0.016     2.789     2.611
    67   1 H        0.926     0.027     2.632     2.537
    68   1 H        0.926     0.028     2.620     2.531
    69   1 H        0.926     0.034     2.525     2.485

molecular dipole:
                 x           y           z       tot (Debye)
 q only:       -0.562       0.423       0.786
   full:       -0.160       0.437       0.753       2.250

 projected vibrational frequencies (cm⁻¹)
eigval :       -0.00    -0.00     0.00     0.00     0.00     0.00
eigval :        9.91    15.55    18.80    37.86    43.43    63.55
eigval :       68.49    71.86    97.17   102.66   124.37   127.10
eigval :      133.11   147.59   169.68   178.91   190.13   195.08
eigval :      211.41   219.46   222.05   238.24   256.67   273.05
eigval :      277.69   284.13   305.71   314.51   317.12   329.88
eigval :      342.15   345.53   361.13   369.26   384.92   396.95
eigval :      407.06   409.82   416.92   424.70   436.49   449.00
eigval :      452.58   490.80   492.93   503.73   514.09   542.07
eigval :      543.27   546.45   549.48   559.17   574.63   586.22
eigval :      598.91   617.03   622.24   645.87   667.29   682.82
eigval :      685.83   691.23   693.73   697.78   721.53   725.14
eigval :      765.04   772.42   775.53   776.72   780.94   806.48
eigval :      811.66   824.65   864.79   865.99   866.71   868.19
eigval :      884.58   896.82   905.80   906.32   910.86   911.73
eigval :      912.74   914.68   915.59   918.91   921.32   923.58
eigval :      928.86   937.77   942.88   956.20   966.75  1005.26
eigval :     1009.31  1011.96  1016.21  1073.41  1075.78  1082.98
eigval :     1088.58  1099.79  1106.76  1112.85  1118.56  1123.73
eigval :     1136.60  1139.13  1150.16  1158.35  1162.39  1173.14
eigval :     1179.67  1182.38  1185.47  1186.76  1188.32  1211.76
eigval :     1230.60  1234.28  1243.67  1249.18  1256.15  1267.29
eigval :     1269.13  1272.59  1288.58  1293.19  1296.95  1297.73
eigval :     1320.94  1323.65  1326.24  1330.92  1333.18  1340.21
eigval :     1396.01  1399.02  1413.45  1417.39  1420.70  1433.71
eigval :     1436.95  1438.15  1439.59  1451.96  1456.64  1476.89
eigval :     1478.02  1486.33  1487.23  1490.86  1491.78  1495.82
eigval :     1496.42  1502.47  1505.12  1521.11  1528.82  1570.64
eigval :     1574.06  1576.28  1584.99  1588.16  1589.35  1590.64
eigval :     1598.50  1601.44  3020.52  3023.05  3024.54  3028.73
eigval :     3032.82  3035.09  3039.26  3041.31  3044.69  3047.54
eigval :     3047.97  3050.43  3051.77  3071.56  3073.29  3075.03
eigval :     3077.12  3079.25  3080.28  3082.38  3085.90  3088.92
eigval :     3089.67  3093.19  3095.13  3096.64  3101.52  3108.26
eigval :     3113.95  3114.62  3133.07

   temp. (K)  partition function   enthalpy   heat capacity  entropy
                                   cal/mol     cal/K/mol   cal/K/mol   J/K/mol
 298.15  VIB  0.165E+14            18415.617    120.497    111.935
         ROT  0.331E+08              888.752      2.981     37.389
         INT  0.546E+21            19304.369    123.478    149.325
         TR   0.106E+29             1481.254      4.968     44.457
         TOT                       20785.6231   128.4459   193.7817   810.7827

       T/K    H(0)-H(T)+PV         H(T)/Eh          T*S/Eh         G(T)/Eh
   ------------------------------------------------------------------------
    298.15    0.331240E-01    0.588697E+00    0.920719E-01    0.496625E+00
   ------------------------------------------------------------------------

         :::::::::::::::::::::::::::::::::::::::::::::::::::::
         ::                  THERMODYNAMIC                  ::
         :::::::::::::::::::::::::::::::::::::::::::::::::::::
         :: total free energy         -99.135921749744 Eh   ::
         ::.................................................::
         :: total energy              -99.632546400654 Eh   ::
         :: zero point energy           0.555572595863 Eh   ::
         :: G(RRHO) w/o ZPVE           -0.058947944952 Eh   ::
         :: G(RRHO) contrib.            0.496624650911 Eh   ::
         :::::::::::::::::::::::::::::::::::::::::::::::::::::

           -------------------------------------------------
          | TOTAL ENERGY              -99.632546400654 Eh   |
          | TOTAL ENTHALPY            -99.043849806028 Eh   |
          | TOTAL FREE ENERGY         -99.135921749744 Eh   |
          | GRADIENT NORM               0.000034477783 Eh/α |
          | HOMO-LUMO GAP               2.638992229282 eV   |
           -------------------------------------------------

 * finished run on 2025/09/04 at 10:28:50.454
