   * xtb version 6.7.1 (edcfbbe) compiled by 'albert@albert-system' on 2024-07-22

   ID    Z sym.   atoms
    1    6 C      1-9, 11-13, 15, 17-38
    2    7 N      10, 14, 16
    3    1 H      39-69

          program call               : xtb data2507/toluene/Pra-2DMAC/Pra-2DMAC_toluene_S0_finalOpt.xtbopt.xyz --gfn 2 --uhf 2 --gbsa toluene --ohess vtight --parallel 40 --molden --ceasefiles --namespace data2507/toluene/Pra-2DMAC/Pra-2DMAC_toluene_T1_preOpt
      * Solvation model:               GBSA
        Solvent                        toluene
        Solvent mass                       9.2140E+01 g/mol
          :  Hamiltonian                  GFN2-xTB          :
 * total energy  :   -99.5173773 Eh     change       -0.9570428E-08 Eh
 * total energy  :   -99.5204783 Eh     change       -0.3100969E-02 Eh
 * total energy  :   -99.5212814 Eh     change       -0.8031274E-03 Eh
 * total energy  :   -99.5213645 Eh     change       -0.8306182E-04 Eh
 * total energy  :   -99.5214375 Eh     change       -0.7303024E-04 Eh
 * total energy  :   -99.5214710 Eh     change       -0.3353466E-04 Eh
 * total energy  :   -99.5215480 Eh     change       -0.7696256E-04 Eh
 * total energy  :   -99.5216168 Eh     change       -0.6877237E-04 Eh
 * total energy  :   -99.5216814 Eh     change       -0.6462452E-04 Eh
 * total energy  :   -99.5217468 Eh     change       -0.6542308E-04 Eh
 * total energy  :   -99.5233534 Eh     change       -0.5646584E-06 Eh
 * total energy  :   -99.5233540 Eh     change       -0.5960948E-06 Eh
 * total energy  :   -99.5233547 Eh     change       -0.7228106E-06 Eh
 * total energy  :   -99.5233556 Eh     change       -0.9403344E-06 Eh
 * total energy  :   -99.5233567 Eh     change       -0.1085023E-05 Eh
 * total energy  :   -99.5233577 Eh     change       -0.1035642E-05 Eh
 * total energy  :   -99.5233587 Eh     change       -0.9188752E-06 Eh
 * total energy  :   -99.5233595 Eh     change       -0.8467699E-06 Eh
 * total energy  :   -99.5233595 Eh     change       -0.1397760E-07 Eh
   *** GEOMETRY OPTIMIZATION CONVERGED AFTER 68 ITERATIONS ***

 final structure:
================
69
 xtb: 6.7.1 (edcfbbe)
C            6.27523376586248       -0.24856539142890        0.00053845767056
C            4.92098932398350        0.13257498284537        0.63114607190942
C            5.14531254127080        0.79570559237184        2.00478221692780
C            4.10593346371795       -1.12817781664267        0.82672345897809
C            4.59213977916466       -2.14677574773206        1.63224583491458
C            3.88679075258826       -3.31966233417882        1.84155716451894
C            2.65141340830045       -3.49289053171249        1.22909799294271
C            2.14257972967218       -2.50081834957268        0.42503165804123
C            2.85324287367520       -1.30847237213790        0.20990820865117
N            2.31055513413818       -0.33556581950388       -0.60084208757360
C            1.04610608354276       -0.56475951168499       -1.20833991654713
C            0.94403909923817       -1.20589391920920       -2.48594033655134
C           -0.30011379506613       -1.39271807569945       -3.01026542011905
N           -1.44802143461492       -1.01380530334166       -2.42571029262268
C           -1.35387192525878       -0.41503155903270       -1.19025507317762
N           -2.51978468735288       -0.02069716386039       -0.52370770952954
C           -2.57786329361324        1.26155382626704        0.00747562919463
C           -1.87197507438989        2.30604389467544       -0.60329846926558
C           -1.95664051788317        3.58811054530265       -0.11345436975819
C           -2.75663306668556        3.85326465908433        0.99425330639078
C           -3.46895463013508        2.82576131344646        1.59437212675344
C           -3.39822865425253        1.52644294008027        1.12356728753437
C           -4.08762113705922        0.34932943810974        1.77876479219226
C           -5.23532619281314        0.77329582213054        2.69668212336326
C           -3.03645172036917       -0.39622572832168        2.63564509136195
C           -4.52656064873691       -0.60155220804888        0.68272239489634
C           -5.70051530589531       -1.33439655949414        0.73321325328861
C           -5.99863206800652       -2.28829251549241       -0.22773522350893
C           -5.10206252742774       -2.53908340518566       -1.25469505296823
C           -3.93073505768430       -1.81651901397477       -1.33576342423788
C           -3.64726069112994       -0.82509485465869       -0.39426189549316
C           -0.13943121946151       -0.17458889025260       -0.57996440690488
C            2.96653989243619        0.85080379167447       -0.84933809261115
C            2.37071230458546        1.80460023247361       -1.69058895105524
C            2.99441963143182        2.99875217930975       -1.96235879158482
C            4.23467851403238        3.27315704881441       -1.39863607576845
C            4.82793701717004        2.33625380434853       -0.56984654450368
C            4.22404397667396        1.12245364302704       -0.27787207059407
H            6.89431157151688        0.63194131439330       -0.14468449425014
H            6.11419415174800       -0.72001952428657       -0.96747609331450
H            6.81433833098521       -0.94470503887589        0.63644124032357
H            5.74804056814516        1.69366946854591        1.90517006625549
H            4.18808820315713        1.07017032072780        2.44471459814848
H            5.65352886328086        0.11611458836256        2.68255548207855
H            5.55027621749902       -2.03069840996645        2.11526574646164
H            4.29554646610425       -4.09199168622685        2.47493130853992
H            2.08893912962640       -4.40213120267293        1.38074323877242
H            1.18433872945583       -2.63011766819973       -0.05443247587778
H            1.83462751341281       -1.50373540862304       -3.01606481723303
H           -0.43223366766996       -1.85292729153797       -3.98233181490003
H           -1.27839281602329        2.09143717947638       -1.47937729018900
H           -1.41065965989634        4.38544536340477       -0.59502219339804
H           -2.82703983195732        4.85675760178946        1.38502552259026
H           -4.08494069769077        3.05951300110686        2.44725485681622
H           -4.86368891764712        1.41776214708656        3.48846385392666
H           -6.00390795658760        1.30234551604922        2.13791998699372
H           -5.67598053518316       -0.09695248936918        3.17501780199109
H           -2.65692823571161        0.26282720606913        3.41359106738723
H           -2.20010209837596       -0.72850148455284        2.02468700860505
H           -3.48866760342820       -1.26927988681156        3.10115483377806
H           -6.40258363846479       -1.17747171585044        1.53539425325448
H           -6.91959383628949       -2.84781262172976       -0.15989669342936
H           -5.31590531324526       -3.29700248477759       -1.99353420565008
H           -3.22302700837222       -1.98138682185920       -2.13353119318196
H           -0.10774662487245        0.28848679781027        0.39676981733153
H            1.40972948956730        1.58337778612151       -2.12847973979604
H            2.51903713022076        3.71700947633352       -2.61367487433251
H            4.73405223110543        4.20739617499745       -1.60493105632006
H            5.79200113575566        2.56607900884981       -0.14255928843232

          :  Hamiltonian                  GFN2-xTB          :
         :: gradient norm              0.000080373005 Eh/a0 ::
         :: HOMO-LUMO gap              0.112044840233 eV    ::
         :: SCC energy              -101.271958616316 Eh    ::
         :: -> dispersion             -0.095173995680 Eh    ::
         :: -> Gsolv                  -0.039754543691 Eh    ::
         :: repulsion energy           1.748599090134 Eh    ::

    * Orbital Energies and Occupations

         #    Occupation            Energy/Eh            Energy/eV
      -------------------------------------------------------------
         1        2.0000           -0.6722623             -18.2932
       ...           ...                  ...                  ...
        82        2.0000           -0.4124343             -11.2229
        83        2.0000           -0.4096955             -11.1484
        84        2.0000           -0.4073534             -11.0847
        85        2.0000           -0.4056645             -11.0387
        86        2.0000           -0.4037672             -10.9871
        87        2.0000           -0.4000764             -10.8866
        88        2.0000           -0.4000458             -10.8858
        89        2.0000           -0.3994737             -10.8702
        90        2.0000           -0.3970705             -10.8048
        91        2.0000           -0.3636812              -9.8963
        92        1.6315           -0.3535034              -9.6193
        93        1.3685           -0.3524799              -9.5915
        94        0.8966           -0.2376943              -6.4680 (HOMO)
        95        0.1021           -0.2335760              -6.3559 (LUMO)
        96        0.0013           -0.2292985              -6.2395
        97        0.0000           -0.2255602              -6.1378
        98        0.0000           -0.2254884              -6.1359
        99        0.0000           -0.2247010              -6.1144
       100        0.0000           -0.2209344              -6.0119
       101                         -0.2191077              -5.9622
       102                         -0.1986818              -5.4064
       103                         -0.1973914              -5.3713
       104                         -0.1042969              -2.8381
       105                         -0.0998625              -2.7174
       ...                                ...                  ...
       183                          0.6702318              18.2379
      -------------------------------------------------------------
                  HL-Gap            0.0041183 Eh            0.1121 eV

     #   Z          covCN         q      C6AA      α(0)
     1   6 C        3.761    -0.104    22.542     6.768
     2   6 C        3.909     0.023    20.130     6.377
     3   6 C        3.761    -0.105    22.548     6.769
     4   6 C        2.977    -0.008    28.213     8.713
     5   6 C        2.924    -0.036    28.902     8.816
     6   6 C        2.917    -0.040    28.993     8.830
     7   6 C        2.917    -0.033    28.817     8.803
     8   6 C        2.922    -0.050    29.232     8.866
     9   6 C        2.930     0.058    26.694     8.473
    10   7 N        2.752    -0.033    21.885     6.948
    11   6 C        2.929     0.012    27.747     8.639
    12   6 C        2.906    -0.075    29.866     8.961
    13   6 C        2.878     0.049    26.900     8.503
    14   7 N        1.833    -0.330    29.401     8.035
    15   6 C        2.884     0.118    25.394     8.262
    16   7 N        2.756    -0.040    22.005     6.967
    17   6 C        2.944     0.053    26.818     8.493
    18   6 C        2.920    -0.045    29.109     8.848
    19   6 C        2.916    -0.036    28.887     8.814
    20   6 C        2.918    -0.042    29.038     8.837
    21   6 C        2.920    -0.039    28.973     8.827
    22   6 C        2.981    -0.009    28.243     8.717
    23   6 C        3.910     0.023    20.135     6.378
    24   6 C        3.758    -0.110    22.659     6.786
    25   6 C        3.764    -0.098    22.420     6.749
    26   6 C        2.983    -0.007    28.185     8.709
    27   6 C        2.922    -0.040    28.990     8.829
    28   6 C        2.918    -0.036    28.896     8.815
    29   6 C        2.918    -0.033    28.810     8.802
    30   6 C        2.920    -0.051    29.275     8.873
    31   6 C        2.934     0.063    26.593     8.457
    32   6 C        2.913    -0.061    29.526     8.910
    33   6 C        2.930     0.058    26.694     8.473
    34   6 C        2.922    -0.049    29.212     8.863
    35   6 C        2.917    -0.033    28.812     8.802
    36   6 C        2.917    -0.040    28.994     8.830
    37   6 C        2.924    -0.036    28.902     8.816
    38   6 C        2.977    -0.008    28.214     8.713
    39   1 H        0.925     0.047     2.351     2.398
    40   1 H        0.925     0.033     2.548     2.496
    41   1 H        0.925     0.048     2.350     2.397
    42   1 H        0.925     0.048     2.349     2.397
    43   1 H        0.925     0.033     2.540     2.492
    44   1 H        0.925     0.048     2.349     2.397
    45   1 H        0.926     0.041     2.438     2.442
    46   1 H        0.926     0.035     2.519     2.482
    47   1 H        0.926     0.033     2.542     2.493
    48   1 H        0.926     0.032     2.559     2.501
    49   1 H        0.926     0.013     2.849     2.639
    50   1 H        0.925     0.015     2.813     2.623
    51   1 H        0.926     0.028     2.622     2.532
    52   1 H        0.926     0.034     2.536     2.490
    53   1 H        0.926     0.035     2.515     2.480
    54   1 H        0.926     0.046     2.368     2.406
    55   1 H        0.925     0.047     2.354     2.399
    56   1 H        0.925     0.042     2.421     2.433
    57   1 H        0.925     0.047     2.352     2.398
    58   1 H        0.925     0.045     2.389     2.417
    59   1 H        0.925     0.030     2.590     2.517
    60   1 H        0.925     0.045     2.389     2.417
    61   1 H        0.926     0.048     2.342     2.393
    62   1 H        0.926     0.038     2.473     2.459
    63   1 H        0.926     0.037     2.495     2.470
    64   1 H        0.926     0.068     2.105     2.269
    65   1 H        0.925     0.016     2.795     2.614
    66   1 H        0.926     0.031     2.576     2.510
    67   1 H        0.926     0.033     2.546     2.495
    68   1 H        0.926     0.035     2.521     2.483
    69   1 H        0.926     0.041     2.439     2.442

molecular dipole:
                 x           y           z       tot (Debye)
 q only:        0.378       0.413       1.743
   full:        0.699       0.389       1.685       4.741

 projected vibrational frequencies (cm⁻¹)
eigval :       -0.00    -0.00    -0.00     0.00     0.00     0.00
eigval :        2.28    13.47    13.80    28.77    41.50    53.53
eigval :       63.66    70.98    88.11    97.99   100.55   113.54
eigval :      134.90   142.08   167.64   176.89   197.27   199.26
eigval :      199.63   210.18   216.52   233.57   255.18   261.96
eigval :      266.98   281.23   295.44   303.71   312.36   324.96
eigval :      336.82   348.60   362.15   365.22   369.47   382.76
eigval :      384.96   403.98   405.86   412.44   419.66   435.58
eigval :      442.43   463.69   492.82   500.36   502.06   516.02
eigval :      528.81   538.96   540.35   550.05   554.91   576.46
eigval :      583.00   595.17   599.90   605.25   614.57   657.03
eigval :      667.26   678.64   680.69   687.44   706.66   713.17
eigval :      740.02   748.37   760.80   763.15   766.96   773.89
eigval :      811.14   815.73   823.36   850.57   860.58   860.92
eigval :      862.07   867.44   873.06   876.43   895.32   900.26
eigval :      901.20   907.27   907.34   909.81   912.08   914.98
eigval :      915.15   925.54   933.06   933.88   956.35   961.93
eigval :      968.20   970.33  1005.56  1011.56  1060.49  1066.54
eigval :     1068.38  1069.38  1082.26  1094.56  1102.33  1104.07
eigval :     1114.94  1132.75  1134.32  1138.12  1142.78  1146.68
eigval :     1167.30  1173.39  1176.48  1176.78  1178.00  1181.99
eigval :     1194.58  1222.04  1228.93  1231.82  1234.84  1248.28
eigval :     1250.79  1264.53  1271.42  1284.07  1288.34  1291.01
eigval :     1295.48  1309.56  1317.19  1325.86  1333.39  1337.77
eigval :     1340.34  1379.47  1390.25  1396.25  1399.48  1407.63
eigval :     1412.72  1413.34  1414.42  1425.95  1427.33  1433.21
eigval :     1433.99  1443.32  1460.12  1470.60  1472.50  1476.62
eigval :     1482.79  1484.40  1485.05  1488.07  1493.08  1498.58
eigval :     1498.94  1500.14  1505.16  1523.41  1538.86  1555.60
eigval :     1559.08  1580.23  3023.77  3025.89  3026.53  3027.90
eigval :     3029.35  3035.64  3036.43  3036.89  3043.80  3045.79
eigval :     3051.10  3053.27  3054.81  3058.61  3076.65  3078.17
eigval :     3078.45  3078.73  3083.94  3084.00  3084.98  3086.25
eigval :     3088.49  3090.41  3094.03  3094.32  3094.41  3099.35
eigval :     3100.06  3112.16  3114.53

   temp. (K)  partition function   enthalpy   heat capacity  entropy
                                   cal/mol     cal/K/mol   cal/K/mol   J/K/mol
 298.15  VIB  0.408E+15            18947.528    122.922    117.190
         ROT  0.334E+08              888.752      2.981     37.408
         INT  0.136E+23            19836.280    125.903    154.598
         TR   0.106E+29             1481.254      4.968     44.457
         TOT                       21317.5338   130.8710   199.0552   832.8470

       T/K    H(0)-H(T)+PV         H(T)/Eh          T*S/Eh         G(T)/Eh
   ------------------------------------------------------------------------
    298.15    0.339717E-01    0.582319E+00    0.945776E-01    0.487741E+00
   ------------------------------------------------------------------------

         :::::::::::::::::::::::::::::::::::::::::::::::::::::
         ::                  THERMODYNAMIC                  ::
         :::::::::::::::::::::::::::::::::::::::::::::::::::::
         :: total free energy         -99.035618408246 Eh   ::
         ::.................................................::
         :: total energy              -99.523359527329 Eh   ::
         :: zero point energy           0.548347021963 Eh   ::
         :: G(RRHO) w/o ZPVE           -0.060605902881 Eh   ::
         :: G(RRHO) contrib.            0.487741119082 Eh   ::
         :::::::::::::::::::::::::::::::::::::::::::::::::::::

           -------------------------------------------------
          | TOTAL ENERGY              -99.523359527329 Eh   |
          | TOTAL ENTHALPY            -98.941040852892 Eh   |
          | TOTAL FREE ENERGY         -99.035618408246 Eh   |
          | GRADIENT NORM               0.000081046877 Eh/α |
          | HOMO-LUMO GAP               0.112065589651 eV   |
           -------------------------------------------------

 * finished run on 2025/09/04 at 10:28:58.922
