   * xtb version 6.7.1 (edcfbbe) compiled by 'albert@albert-system' on 2024-07-22

   ID    Z sym.   atoms
    1    6 C      1-9, 11-13, 15, 17-38
    2    7 N      10, 14, 16
    3    1 H      39-69

          program call               : xtb data2507/toluene/Pra-2DMAC/Pra-2DMAC.xyz --gfn 2 --gbsa toluene --ohess vtight --parallel 40 --molden --ceasefiles --namespace data2507/toluene/Pra-2DMAC/Pra-2DMAC_toluene_S0_preOpt
      * Solvation model:               GBSA
        Solvent                        toluene
        Solvent mass                       9.2140E+01 g/mol
          :  Hamiltonian                  GFN2-xTB          :
 * total energy  :   -99.6022500 Eh     change       -0.2395083E-08 Eh
 * total energy  :   -99.6193957 Eh     change       -0.1714569E-01 Eh
 * total energy  :   -99.6251064 Eh     change       -0.5710643E-02 Eh
 * total energy  :   -99.6259842 Eh     change       -0.8778401E-03 Eh
 * total energy  :   -99.6263434 Eh     change       -0.3592283E-03 Eh
 * total energy  :   -99.6264259 Eh     change       -0.8245019E-04 Eh
 * total energy  :   -99.6264606 Eh     change       -0.3473556E-04 Eh
 * total energy  :   -99.6264914 Eh     change       -0.3083759E-04 Eh
 * total energy  :   -99.6265112 Eh     change       -0.1972678E-04 Eh
 * total energy  :   -99.6265372 Eh     change       -0.2606618E-04 Eh
 * total energy  :   -99.6324644 Eh     change       -0.6893382E-06 Eh
 * total energy  :   -99.6324651 Eh     change       -0.6815924E-06 Eh
 * total energy  :   -99.6324658 Eh     change       -0.6718109E-06 Eh
 * total energy  :   -99.6324664 Eh     change       -0.6294224E-06 Eh
 * total energy  :   -99.6324671 Eh     change       -0.6379546E-06 Eh
 * total energy  :   -99.6324677 Eh     change       -0.6691605E-06 Eh
 * total energy  :   -99.6324685 Eh     change       -0.7237297E-06 Eh
 * total energy  :   -99.6324692 Eh     change       -0.7666532E-06 Eh
 * total energy  :   -99.6324692 Eh     change       -0.5675275E-08 Eh
   *** GEOMETRY OPTIMIZATION CONVERGED AFTER 185 ITERATIONS ***

 final structure:
================
69
 xtb: 6.7.1 (edcfbbe)
C            6.17893766793658        0.38149139544395        0.36454560693503
C            4.75676547545791        0.54906511340949        0.93201781033115
C            4.81322567543504        1.20317273923117        2.32547157744670
C            4.11940862768391       -0.82121632783079        1.06732430193096
C            4.70934545191522       -1.76985876950223        1.89189503156512
C            4.16042989162990       -3.02495543389991        2.08063064750154
C            2.97577663256037       -3.34620167458527        1.44304287988437
C            2.36966971751405       -2.42347136512590        0.61604848951744
C            2.93844313114186       -1.16454991953275        0.40034506303805
N            2.31286035765240       -0.26340665514629       -0.44983444550369
C            1.13894734914276       -0.66792602619373       -1.13773254823056
C            1.21709513601168       -1.56369847089384       -2.20736851604062
C            0.03046987216028       -1.94476018732107       -2.80183083995801
N           -1.15662617947936       -1.48702463092175       -2.44558539483136
C           -1.23933680120212       -0.60472756795315       -1.45022266595018
N           -2.48344203528240       -0.16475107664773       -1.07368460777754
C           -2.65688312606112        0.98307049867833       -0.27645677364330
C           -1.97152638427070        2.15690683281698       -0.57048593587871
C           -2.19784796334010        3.29618280027713        0.17743692822455
C           -3.12932402758454        3.27111979094918        1.20118694322371
C           -3.83277550607784        2.10998397775917        1.47459350866546
C           -3.60596933098140        0.94997227456296        0.74870472790783
C           -4.30757286766710       -0.37235640239832        0.99365681753115
C           -5.52833179755895       -0.22777359664699        1.90249696960650
C           -3.31465266727109       -1.33711109109395        1.67618194506151
C           -4.65462430677839       -0.92850688524558       -0.37767650585154
C           -5.86174479017156       -1.54067166452833       -0.67732161688907
C           -6.10335014083309       -2.06468173803525       -1.93640164364369
C           -5.13879963526465       -1.96849930581497       -2.92243556299335
C           -3.93430240481564       -1.34417112229704       -2.65317630360301
C           -3.68535962093083       -0.83863032832093       -1.38455091618835
C           -0.09455083857263       -0.18819049600997       -0.74543021952738
C            2.81044849714228        1.01553372020850       -0.65579425389317
C            2.16585681776108        1.87650789987223       -1.54891390153865
C            2.62699885737896        3.15855644016233       -1.76293916970994
C            3.75309938486850        3.60414897541604       -1.09488783835161
C            4.41077173437600        2.74461850209823       -0.23416091189373
C            3.96766801954450        1.44969249028618        0.00005093165747
H            6.67234758831524        1.34423372364291        0.26494524174349
H            6.13353989019850       -0.08462292416615       -0.61850989569960
H            6.78342292052549       -0.24567179959482        1.01383031869997
H            5.28172123900140        2.18203161582251        2.27535732063660
H            3.80531910902171        1.32378133901396        2.71938887236975
H            5.38121683593019        0.58942201732064        3.01887702413175
H            5.62571530273969       -1.52661372274228        2.40787819811876
H            4.64864020888620       -3.73966208083409        2.72586451910396
H            2.51770351568261       -4.31357883628813        1.58852249932078
H            1.44009474349169       -2.68059401378851        0.13110528979839
H            2.16765149633209       -1.95086470480455       -2.53648051060193
H            0.01731842980669       -2.65296558902790       -3.62052611390698
H           -1.27055280007194        2.17329574590384       -1.39207332296826
H           -1.65705230538553        4.20263912320740       -0.04993693127210
H           -3.31569372756781        4.16018678014253        1.78475160139512
H           -4.56087740890041        2.11993322320456        2.26894477932699
H           -5.22697721252310        0.16116975155660        2.87177893883727
H           -6.26505953409607        0.44087542246427        1.46320380389919
H           -5.98541258173106       -1.19892055283658        2.07290662353630
H           -3.00607135264720       -0.93294919321819        2.63826095508927
H           -2.42675406779068       -1.49194744274175        1.06835457951951
H           -3.78950778958097       -2.30264888411715        1.83681645038170
H           -6.63020725110107       -1.62328951767605        0.07369602257534
H           -7.04827106110861       -2.54494150683211       -2.14364371108600
H           -5.32461216692400       -2.36730095598389       -3.90863858550816
H           -3.18071827232144       -1.25393695323040       -3.41615533475328
H           -0.17188506640313        0.47870968018734        0.09884844441890
H            1.29682377469396        1.53143672339672       -2.08810158112508
H            2.10672934660072        3.80451287804531       -2.45515323673541
H            4.12333656229808        4.60638450701897       -1.24955153082108
H            5.29887276145248        3.09901343168928        0.26670166343888

          :  Hamiltonian                  GFN2-xTB          :
         :: gradient norm              0.000058021884 Eh/a0 ::
         :: HOMO-LUMO gap              2.632645575570 eV    ::
         :: SCC energy              -101.402882639973 Eh    ::
         :: -> dispersion             -0.095753276935 Eh    ::
         :: -> Gsolv                  -0.037642054391 Eh    ::
         :: repulsion energy           1.770413406139 Eh    ::

    * Orbital Energies and Occupations

         #    Occupation            Energy/Eh            Energy/eV
      -------------------------------------------------------------
         1        2.0000           -0.6784629             -18.4619
       ...           ...                  ...                  ...
        81        2.0000           -0.4171236             -11.3505
        82        2.0000           -0.4133027             -11.2465
        83        2.0000           -0.4109788             -11.1833
        84        2.0000           -0.4095183             -11.1436
        85        2.0000           -0.4053939             -11.0313
        86        2.0000           -0.4042659             -11.0006
        87        2.0000           -0.4011029             -10.9146
        88        2.0000           -0.3997862             -10.8787
        89        2.0000           -0.3968039             -10.7976
        90        2.0000           -0.3943880             -10.7318
        91        2.0000           -0.3760664             -10.2333
        92        2.0000           -0.3619193              -9.8483
        93        2.0000           -0.3489931              -9.4966 (HOMO)
        94                         -0.2522452              -6.8639 (LUMO)
        95                         -0.2422046              -6.5907
        96                         -0.2284630              -6.2168
        97                         -0.2262560              -6.1567
        98                         -0.2236572              -6.0860
        99                         -0.2211840              -6.0187
       100                         -0.2201905              -5.9917
       101                         -0.2187135              -5.9515
       102                         -0.2063824              -5.6160
       103                         -0.1914494              -5.2096
       104                         -0.1164020              -3.1675
       ...                                ...                  ...
       183                          0.6764173              18.4063
      -------------------------------------------------------------
                  HL-Gap            0.0967479 Eh            2.6326 eV

     #   Z          covCN         q      C6AA      α(0)
     1   6 C        3.761    -0.104    22.525     6.766
     2   6 C        3.909     0.021    20.164     6.383
     3   6 C        3.761    -0.104    22.531     6.767
     4   6 C        2.979    -0.014    28.361     8.736
     5   6 C        2.928    -0.038    28.939     8.822
     6   6 C        2.917    -0.046    29.144     8.853
     7   6 C        2.919    -0.035    28.872     8.811
     8   6 C        2.924    -0.059    29.474     8.903
     9   6 C        2.927     0.060    26.658     8.467
    10   7 N        2.754    -0.082    22.842     7.098
    11   6 C        2.935     0.086    26.078     8.375
    12   6 C        2.914    -0.069    29.716     8.939
    13   6 C        2.902     0.060    26.660     8.466
    14   7 N        1.843    -0.279    28.076     7.853
    15   6 C        2.897     0.158    24.592     8.131
    16   7 N        2.758    -0.073    22.646     7.068
    17   6 C        2.945     0.055    26.770     8.486
    18   6 C        2.921    -0.047    29.173     8.857
    19   6 C        2.919    -0.034    28.835     8.806
    20   6 C        2.919    -0.038    28.943     8.822
    21   6 C        2.923    -0.039    28.961     8.825
    22   6 C        2.986    -0.006    28.172     8.707
    23   6 C        3.911     0.022    20.146     6.380
    24   6 C        3.759    -0.110    22.649     6.785
    25   6 C        3.762    -0.098    22.423     6.750
    26   6 C        2.986    -0.009    28.235     8.716
    27   6 C        2.923    -0.041    29.011     8.833
    28   6 C        2.918    -0.039    28.964     8.825
    29   6 C        2.920    -0.034    28.845     8.807
    30   6 C        2.919    -0.047    29.175     8.858
    31   6 C        2.941     0.061    26.641     8.465
    32   6 C        2.920    -0.076    29.891     8.966
    33   6 C        2.927     0.060    26.657     8.467
    34   6 C        2.924    -0.059    29.463     8.901
    35   6 C        2.919    -0.035    28.869     8.811
    36   6 C        2.917    -0.046    29.147     8.853
    37   6 C        2.928    -0.038    28.935     8.822
    38   6 C        2.979    -0.014    28.361     8.736
    39   1 H        0.925     0.042     2.416     2.431
    40   1 H        0.925     0.029     2.596     2.519
    41   1 H        0.925     0.043     2.414     2.430
    42   1 H        0.925     0.043     2.413     2.429
    43   1 H        0.925     0.030     2.590     2.517
    44   1 H        0.925     0.043     2.415     2.430
    45   1 H        0.926     0.034     2.525     2.485
    46   1 H        0.926     0.028     2.619     2.531
    47   1 H        0.926     0.027     2.625     2.534
    48   1 H        0.926     0.018     2.759     2.597
    49   1 H        0.926     0.039     2.467     2.456
    50   1 H        0.925     0.039     2.467     2.456
    51   1 H        0.926     0.029     2.605     2.524
    52   1 H        0.926     0.037     2.494     2.470
    53   1 H        0.926     0.038     2.475     2.460
    54   1 H        0.926     0.049     2.337     2.391
    55   1 H        0.925     0.046     2.374     2.409
    56   1 H        0.925     0.042     2.423     2.434
    57   1 H        0.925     0.046     2.371     2.408
    58   1 H        0.925     0.042     2.424     2.434
    59   1 H        0.925     0.028     2.615     2.529
    60   1 H        0.925     0.043     2.412     2.429
    61   1 H        0.926     0.045     2.377     2.411
    62   1 H        0.926     0.035     2.513     2.479
    63   1 H        0.926     0.036     2.506     2.475
    64   1 H        0.926     0.056     2.249     2.345
    65   1 H        0.926     0.039     2.462     2.454
    66   1 H        0.926     0.016     2.787     2.611
    67   1 H        0.926     0.027     2.631     2.536
    68   1 H        0.926     0.028     2.620     2.531
    69   1 H        0.926     0.034     2.525     2.485

molecular dipole:
                 x           y           z       tot (Debye)
 q only:       -0.654       0.278       0.756
   full:       -0.256       0.326       0.773       2.230

 projected vibrational frequencies (cm⁻¹)
eigval :       -0.00    -0.00    -0.00     0.00     0.00     0.00
eigval :        6.13    14.54    17.40    36.94    42.28    64.10
eigval :       70.16    73.29    97.07   100.87   123.63   125.76
eigval :      129.44   147.73   169.62   179.20   190.07   190.14
eigval :      211.57   218.91   221.85   238.20   257.01   272.78
eigval :      277.03   283.41   306.26   312.92   316.94   330.53
eigval :      341.94   345.49   360.08   369.72   384.85   397.15
eigval :      407.24   409.97   417.19   425.37   438.58   449.08
eigval :      451.57   490.62   492.75   503.44   515.36   541.79
eigval :      543.65   547.26   549.32   558.74   574.12   586.39
eigval :      598.56   617.17   622.28   646.43   667.38   682.95
eigval :      685.61   690.77   693.90   698.25   720.78   725.24
eigval :      765.16   774.86   775.36   776.85   783.06   806.93
eigval :      811.08   825.58   861.81   864.20   865.31   871.75
eigval :      884.06   897.15   908.28   911.09   912.37   913.23
eigval :      915.21   915.91   918.84   919.82   921.23   925.67
eigval :      929.60   937.55   941.51   956.30   965.61  1005.22
eigval :     1008.12  1014.12  1016.25  1072.91  1076.44  1082.49
eigval :     1088.56  1099.64  1106.74  1113.08  1118.74  1122.99
eigval :     1136.78  1140.04  1149.57  1158.20  1162.20  1173.48
eigval :     1179.93  1182.67  1185.57  1188.04  1188.67  1211.84
eigval :     1231.13  1234.48  1243.85  1249.38  1256.72  1267.51
eigval :     1269.14  1272.70  1288.94  1293.33  1296.67  1297.94
eigval :     1320.96  1323.81  1326.35  1330.72  1333.25  1340.18
eigval :     1394.10  1399.72  1411.13  1418.31  1420.08  1433.79
eigval :     1437.16  1438.45  1439.67  1452.12  1456.76  1476.92
eigval :     1478.08  1486.36  1486.98  1489.98  1492.11  1495.88
eigval :     1496.50  1502.39  1503.60  1519.68  1528.77  1570.29
eigval :     1574.13  1576.38  1585.07  1588.16  1589.42  1590.75
eigval :     1598.55  1601.53  3020.25  3022.64  3024.27  3028.29
eigval :     3032.35  3034.28  3040.14  3042.01  3045.01  3047.26
eigval :     3048.46  3051.37  3052.56  3072.11  3072.49  3075.97
eigval :     3076.48  3079.66  3080.14  3082.70  3087.14  3088.91
eigval :     3089.38  3092.46  3094.96  3096.35  3099.55  3106.66
eigval :     3112.25  3114.05  3134.00

   temp. (K)  partition function   enthalpy   heat capacity  entropy
                                   cal/mol     cal/K/mol   cal/K/mol   J/K/mol
 298.15  VIB  0.325E+14            18433.708    120.452    112.638
         ROT  0.331E+08              888.752      2.981     37.390
         INT  0.107E+22            19322.461    123.433    150.028
         TR   0.106E+29             1481.254      4.968     44.457
         TOT                       20803.7145   128.4014   194.4850   813.7252

       T/K    H(0)-H(T)+PV         H(T)/Eh          T*S/Eh         G(T)/Eh
   ------------------------------------------------------------------------
    298.15    0.331528E-01    0.588726E+00    0.924061E-01    0.496320E+00
   ------------------------------------------------------------------------

         :::::::::::::::::::::::::::::::::::::::::::::::::::::
         ::                  THERMODYNAMIC                  ::
         :::::::::::::::::::::::::::::::::::::::::::::::::::::
         :: total free energy         -99.136149012229 Eh   ::
         ::.................................................::
         :: total energy              -99.632469231418 Eh   ::
         :: zero point energy           0.555573488549 Eh   ::
         :: G(RRHO) w/o ZPVE           -0.059253269360 Eh   ::
         :: G(RRHO) contrib.            0.496320219189 Eh   ::
         :::::::::::::::::::::::::::::::::::::::::::::::::::::

           -------------------------------------------------
          | TOTAL ENERGY              -99.632469231418 Eh   |
          | TOTAL ENTHALPY            -99.043742913528 Eh   |
          | TOTAL FREE ENERGY         -99.136149012229 Eh   |
          | GRADIENT NORM               0.000058028062 Eh/α |
          | HOMO-LUMO GAP               2.632645627949 eV   |
           -------------------------------------------------

 * finished run on 2025/09/04 at 10:26:26.223
