   * xtb version 6.7.1 (edcfbbe) compiled by 'albert@albert-system' on 2024-07-22

   ID    Z sym.   atoms
    1    6 C      1-9, 11-13, 15, 17-38
    2    7 N      10, 14, 16
    3    1 H      39-69

          program call               : xtb data2507/toluene/Pra-2DMAC/Pra-2DMAC_toluene_T1_crest.xyz --gfn 2 --uhf 2 --gbsa toluene --ohess vtight --parallel 40 --molden --ceasefiles --namespace data2507/toluene/Pra-2DMAC/Pra-2DMAC_toluene_T1_finalOpt
      * Solvation model:               GBSA
        Solvent                        toluene
        Solvent mass                       9.2140E+01 g/mol
          :  Hamiltonian                  GFN2-xTB          :
 * total energy  :   -99.5243608 Eh     change       -0.7285456E-07 Eh
 * total energy  :   -99.5244470 Eh     change       -0.8614745E-04 Eh
 * total energy  :   -99.5244982 Eh     change       -0.5122199E-04 Eh
 * total energy  :   -99.5245241 Eh     change       -0.2590746E-04 Eh
 * total energy  :   -99.5245474 Eh     change       -0.2330435E-04 Eh
 * total energy  :   -99.5245751 Eh     change       -0.2774273E-04 Eh
 * total energy  :   -99.5245957 Eh     change       -0.2054306E-04 Eh
 * total energy  :   -99.5246121 Eh     change       -0.1641209E-04 Eh
 * total energy  :   -99.5246390 Eh     change       -0.2689737E-04 Eh
 * total energy  :   -99.5246688 Eh     change       -0.2976040E-04 Eh
 * total energy  :   -99.5249030 Eh     change       -0.1030776E-05 Eh
 * total energy  :   -99.5249038 Eh     change       -0.7888389E-06 Eh
 * total energy  :   -99.5249044 Eh     change       -0.5283485E-06 Eh
 * total energy  :   -99.5249047 Eh     change       -0.2944138E-06 Eh
 * total energy  :   -99.5249051 Eh     change       -0.4163524E-06 Eh
 * total energy  :   -99.5249055 Eh     change       -0.3964225E-06 Eh
 * total energy  :   -99.5249057 Eh     change       -0.2190539E-06 Eh
 * total energy  :   -99.5249059 Eh     change       -0.1697281E-06 Eh
 * total energy  :   -99.5249059 Eh     change       -0.1269356E-07 Eh
   *** GEOMETRY OPTIMIZATION CONVERGED AFTER 44 ITERATIONS ***

 final structure:
================
69
 xtb: 6.7.1 (edcfbbe)
C            6.28167117830143        0.53936813204564        0.22581205280919
C            4.91690407349231        0.35136479436394        0.91726478059781
C            5.07425750382948        0.48433704009796        2.44510498780806
C            4.39693466829482       -1.03575358833700        0.60602026909278
C            5.13786613306268       -2.14677314384102        0.98137171948607
C            4.69567922460418       -3.43846922965905        0.74983461214144
C            3.46444427879594       -3.63760542300376        0.14121767548386
C            2.70803116849190       -2.55520416855396       -0.24345142880866
C            3.16469456037597       -1.24226847415835       -0.03870407069155
N            2.39262575002299       -0.18103278228297       -0.46774332301905
C            1.17672655930513       -0.44018520106339       -1.14579029202215
C            1.15314506531065       -0.95696894879205       -2.47559842816777
C           -0.05053383276551       -1.18052149825268       -3.07152824839137
N           -1.25147928737642       -0.94272050028983       -2.49402444623540
C           -1.21990828174355       -0.44859541840746       -1.22386225573976
N           -2.46506467188375       -0.17994925792224       -0.59469219771328
C           -2.88491606603398        1.12712531811432       -0.49491898681191
C           -2.21884907205935        2.12365127745517       -1.22571347689051
C           -2.58223990433644        3.44404221920662       -1.11652539794686
C           -3.62280166545626        3.80430909260943       -0.26397400308484
C           -4.30335307258370        2.82292606515200        0.43455781158866
C           -3.97140813411371        1.47980697671685        0.33107165972592
C           -4.76700189511210        0.43909910983380        1.08839361690139
C           -6.24414524828298        0.54181190914840        0.65854668532104
C           -4.63664938053589        0.71509754720643        2.59974630957173
C           -4.27597405558421       -0.96529272227068        0.80927395780250
C           -4.91877918926233       -2.05250009340955        1.38570996284966
C           -4.50272642074823       -3.35285736645314        1.16419026748807
C           -3.40483134777794       -3.59293834292078        0.34487431354629
C           -2.73856478892455       -2.53580375116346       -0.22965049880605
C           -3.16091881125389       -1.21574929109205       -0.01341654466023
C           -0.06856750015996       -0.19059944151028       -0.52885425833084
C            2.78277498419560        1.12663585157727       -0.25318504790258
C            1.98318289118772        2.17531561735445       -0.73667255336617
C            2.32750206407073        3.48927049355726       -0.52182425903557
C            3.48917642068684        3.79322829973874        0.17398296039777
C            4.29686706079826        2.76481936192946        0.62838729534482
C            3.97467578756704        1.43023572329437        0.42762292992260
H            6.69019326991294        1.52278951801621        0.43912883615402
H            6.16808877133136        0.44022680411157       -0.85240145340492
H            6.99281332141233       -0.20739229046220        0.56660282864246
H            5.46491832459925        1.46282983548592        2.70869866432780
H            4.10783793514644        0.35681960616287        2.92979260478642
H            5.75384308665350       -0.27041558815268        2.82991914820674
H            6.08805691826162       -2.00975057102301        1.47417258473595
H            5.30000884398170       -4.28020712599655        1.05160330801576
H            3.09410203857076       -4.63749165159772       -0.02989610139476
H            1.74573830409072       -2.70864662887463       -0.70559157814249
H            2.07978584775924       -1.14971476203324       -2.99413748896175
H           -0.11662848418876       -1.56506602791314       -4.08138538084833
H           -1.42082876398083        1.83184882935876       -1.89102188435829
H           -2.06175977801471        4.19585588268506       -1.69046296028477
H           -3.90546677231654        4.84029901985049       -0.15736284921563
H           -5.11783041602594        3.12044739971939        1.07707103712747
H           -6.63307993035586        1.53769051700885        0.84840927193513
H           -6.33437101815668        0.33294271559123       -0.40586017703391
H           -6.85485944258821       -0.17210613210573        1.20288601299980
H           -4.99791458447613        1.71075223002571        2.84033087735195
H           -3.59330500140875        0.64382866701026        2.90213333721097
H           -5.21103817123301       -0.00725682355654        3.17245895683433
H           -5.76894505353924       -1.88688358201517        2.02929753637664
H           -5.02732410870155       -4.17488381726970        1.62675285427948
H           -3.07134082367106       -4.60311546740917        0.16089303637628
H           -1.88938831319338       -2.71269819072839       -0.86962671214529
H           -0.11287985270693        0.19660411775079        0.47927902850279
H            1.08968591209713        1.93870541406299       -1.29165523628334
H            1.69341111855733        4.27738773082886       -0.89961643926985
H            3.76832296099630        4.82050229388706        0.35151273164867
H            5.20666130070817        3.01834467486319        1.15044661147943

          :  Hamiltonian                  GFN2-xTB          :
         :: gradient norm              0.000064947113 Eh/a0 ::
         :: HOMO-LUMO gap              0.123945871732 eV    ::
         :: SCC energy              -101.274872951308 Eh    ::
         :: -> dispersion             -0.095320871239 Eh    ::
         :: -> Gsolv                  -0.040679649134 Eh    ::
         :: repulsion energy           1.749967071001 Eh    ::

    * Orbital Energies and Occupations

         #    Occupation            Energy/Eh            Energy/eV
      -------------------------------------------------------------
         1        2.0000           -0.6742032             -18.3460
       ...           ...                  ...                  ...
        82        2.0000           -0.4112628             -11.1910
        83        2.0000           -0.4101785             -11.1615
        84        2.0000           -0.4098233             -11.1519
        85        2.0000           -0.4059539             -11.0466
        86        2.0000           -0.4055794             -11.0364
        87        2.0000           -0.4020899             -10.9414
        88        2.0000           -0.4003090             -10.8930
        89        2.0000           -0.3995630             -10.8727
        90        2.0000           -0.3964569             -10.7881
        91        2.0000           -0.3646831              -9.9235
        92        1.7091           -0.3537526              -9.6261
        93        1.2909           -0.3520597              -9.5800
        94        0.8878           -0.2383093              -6.4847 (HOMO)
        95        0.0615           -0.2337546              -6.3608 (LUMO)
        96        0.0506           -0.2335586              -6.3555
        97        0.0000           -0.2259144              -6.1474
        98        0.0000           -0.2256794              -6.1410
        99        0.0000           -0.2251427              -6.1264
       100        0.0000           -0.2244792              -6.1084
       101                         -0.2153813              -5.8608
       102                         -0.1993314              -5.4241
       103                         -0.1968194              -5.3557
       104                         -0.1036549              -2.8206
       105                         -0.1003308              -2.7301
       ...                                ...                  ...
       183                          0.6717343              18.2788
      -------------------------------------------------------------
                  HL-Gap            0.0045547 Eh            0.1239 eV

     #   Z          covCN         q      C6AA      α(0)
     1   6 C        3.761    -0.105    22.549     6.769
     2   6 C        3.909     0.023    20.133     6.378
     3   6 C        3.761    -0.105    22.549     6.769
     4   6 C        2.978    -0.007    28.196     8.710
     5   6 C        2.925    -0.037    28.923     8.819
     6   6 C        2.917    -0.039    28.979     8.828
     7   6 C        2.917    -0.032    28.804     8.801
     8   6 C        2.922    -0.050    29.248     8.869
     9   6 C        2.930     0.059    26.686     8.472
    10   7 N        2.751    -0.033    21.876     6.947
    11   6 C        2.930     0.008    27.836     8.653
    12   6 C        2.905    -0.069    29.730     8.940
    13   6 C        2.884     0.042    27.058     8.528
    14   7 N        1.834    -0.334    29.522     8.052
    15   6 C        2.897     0.131    25.141     8.221
    16   7 N        2.758    -0.035    21.910     6.952
    17   6 C        2.932     0.059    26.680     8.471
    18   6 C        2.922    -0.046    29.145     8.853
    19   6 C        2.916    -0.034    28.843     8.807
    20   6 C        2.917    -0.040    28.986     8.829
    21   6 C        2.923    -0.036    28.891     8.815
    22   6 C        2.977    -0.008    28.225     8.715
    23   6 C        3.908     0.023    20.129     6.377
    24   6 C        3.761    -0.106    22.579     6.774
    25   6 C        3.761    -0.105    22.551     6.770
    26   6 C        2.977    -0.008    28.209     8.712
    27   6 C        2.924    -0.036    28.899     8.816
    28   6 C        2.917    -0.037    28.930     8.820
    29   6 C        2.917    -0.034    28.840     8.806
    30   6 C        2.922    -0.047    29.155     8.855
    31   6 C        2.931     0.064    26.577     8.455
    32   6 C        2.912    -0.067    29.672     8.932
    33   6 C        2.929     0.059    26.687     8.472
    34   6 C        2.923    -0.050    29.247     8.869
    35   6 C        2.917    -0.032    28.800     8.800
    36   6 C        2.917    -0.039    28.975     8.827
    37   6 C        2.925    -0.037    28.918     8.819
    38   6 C        2.978    -0.007    28.197     8.710
    39   1 H        0.925     0.047     2.352     2.398
    40   1 H        0.925     0.033     2.548     2.496
    41   1 H        0.925     0.048     2.349     2.397
    42   1 H        0.925     0.048     2.346     2.395
    43   1 H        0.925     0.033     2.544     2.494
    44   1 H        0.925     0.048     2.350     2.397
    45   1 H        0.926     0.041     2.437     2.441
    46   1 H        0.926     0.035     2.517     2.481
    47   1 H        0.926     0.033     2.540     2.493
    48   1 H        0.926     0.033     2.538     2.491
    49   1 H        0.926     0.014     2.826     2.629
    50   1 H        0.925     0.013     2.838     2.635
    51   1 H        0.926     0.029     2.598     2.520
    52   1 H        0.926     0.035     2.522     2.484
    53   1 H        0.926     0.037     2.485     2.465
    54   1 H        0.926     0.044     2.401     2.423
    55   1 H        0.925     0.050     2.324     2.384
    56   1 H        0.925     0.035     2.516     2.480
    57   1 H        0.925     0.050     2.322     2.383
    58   1 H        0.925     0.050     2.322     2.383
    59   1 H        0.925     0.033     2.544     2.494
    60   1 H        0.925     0.050     2.325     2.384
    61   1 H        0.926     0.045     2.389     2.417
    62   1 H        0.926     0.039     2.468     2.457
    63   1 H        0.926     0.035     2.510     2.477
    64   1 H        0.926     0.038     2.473     2.459
    65   1 H        0.926     0.013     2.837     2.634
    66   1 H        0.926     0.032     2.555     2.500
    67   1 H        0.926     0.034     2.534     2.489
    68   1 H        0.926     0.035     2.512     2.478
    69   1 H        0.926     0.041     2.434     2.439

molecular dipole:
                 x           y           z       tot (Debye)
 q only:        0.150       0.630       1.863
   full:        0.480       0.617       1.838       5.076

 projected vibrational frequencies (cm⁻¹)
eigval :       -0.00    -0.00    -0.00    -0.00     0.00     0.00
eigval :        6.11    13.54    17.16    25.75    46.09    51.73
eigval :       62.92    66.56    91.67    95.12   101.95   106.01
eigval :      137.86   141.93   144.62   186.26   197.67   201.55
eigval :      206.83   209.31   217.50   217.97   230.15   239.66
eigval :      246.07   261.43   300.80   305.19   325.28   327.01
eigval :      332.02   342.12   358.12   360.51   364.42   370.75
eigval :      383.98   385.37   404.74   412.81   414.77   439.52
eigval :      446.82   486.70   495.70   502.22   504.69   521.93
eigval :      534.76   540.60   542.72   544.75   552.22   581.32
eigval :      584.05   593.63   601.08   610.33   628.53   657.83
eigval :      661.62   675.73   681.88   691.43   692.25   715.47
eigval :      750.54   761.21   763.40   764.22   765.62   769.76
eigval :      820.36   822.03   823.84   842.41   857.02   861.16
eigval :      862.26   865.08   866.97   876.55   900.70   903.41
eigval :      904.62   907.87   909.19   909.73   910.03   911.01
eigval :      916.23   916.98   926.41   935.31   957.72   959.77
eigval :      960.43   967.22  1011.70  1012.13  1014.09  1067.74
eigval :     1068.59  1069.85  1075.93  1097.96  1102.70  1107.70
eigval :     1112.57  1133.19  1135.06  1136.01  1145.65  1148.16
eigval :     1166.15  1172.62  1175.59  1176.33  1177.09  1179.69
eigval :     1190.52  1212.72  1224.05  1227.89  1231.35  1237.48
eigval :     1242.78  1252.13  1279.24  1286.72  1290.12  1290.46
eigval :     1300.17  1312.59  1318.33  1330.80  1335.36  1338.37
eigval :     1341.33  1358.00  1372.79  1396.71  1397.11  1407.40
eigval :     1412.75  1414.28  1415.41  1421.12  1429.21  1436.75
eigval :     1440.57  1446.96  1457.28  1468.55  1479.38  1482.41
eigval :     1482.99  1483.19  1484.08  1485.09  1486.09  1490.00
eigval :     1493.05  1494.70  1496.98  1499.13  1529.35  1533.76
eigval :     1534.41  1574.77  3023.90  3024.65  3026.24  3028.69
eigval :     3040.82  3044.43  3044.69  3046.45  3047.93  3050.98
eigval :     3051.78  3055.32  3056.55  3064.42  3078.07  3079.26
eigval :     3080.41  3080.77  3081.18  3084.93  3085.17  3085.53
eigval :     3087.03  3094.40  3095.59  3095.93  3097.07  3100.18
eigval :     3105.97  3110.07  3114.46

   temp. (K)  partition function   enthalpy   heat capacity  entropy
                                   cal/mol     cal/K/mol   cal/K/mol   J/K/mol
 298.15  VIB  0.180E+15            19044.281    123.124    117.022
         ROT  0.343E+08              888.752      2.981     37.461
         INT  0.617E+22            19933.033    126.105    154.483
         TR   0.106E+29             1481.254      4.968     44.457
         TOT                       21414.2871   131.0729   198.9397   832.3637

       T/K    H(0)-H(T)+PV         H(T)/Eh          T*S/Eh         G(T)/Eh
   ------------------------------------------------------------------------
    298.15    0.341258E-01    0.581944E+00    0.945227E-01    0.487421E+00
   ------------------------------------------------------------------------

         :::::::::::::::::::::::::::::::::::::::::::::::::::::
         ::                  THERMODYNAMIC                  ::
         :::::::::::::::::::::::::::::::::::::::::::::::::::::
         :: total free energy         -99.037484820173 Eh   ::
         ::.................................................::
         :: total energy              -99.524905880609 Eh   ::
         :: zero point energy           0.547817887786 Eh   ::
         :: G(RRHO) w/o ZPVE           -0.060396827350 Eh   ::
         :: G(RRHO) contrib.            0.487421060436 Eh   ::
         :::::::::::::::::::::::::::::::::::::::::::::::::::::

           -------------------------------------------------
          | TOTAL ENERGY              -99.524905880609 Eh   |
          | TOTAL ENTHALPY            -98.942962154126 Eh   |
          | TOTAL FREE ENERGY         -99.037484820173 Eh   |
          | GRADIENT NORM               0.000064867762 Eh/α |
          | HOMO-LUMO GAP               0.123938626332 eV   |
           -------------------------------------------------

 * finished run on 2025/09/04 at 10:33:30.606
