   * xtb version 6.7.1 (edcfbbe) compiled by 'albert@albert-system' on 2024-07-22

   ID    Z sym.   atoms
    1    6 C      1-35
    2    1 H      36-57

          program call               : xtb data2507/gas/1SBFN/1SBFN_gas_T1_crest.xyz --gfn 2 --spinpol --tblite --uhf 2 --ohess vtight --parallel 40 --molden --ceasefiles --namespace data2507/gas/1SBFN/1SBFN_gas_T1_finalOpt
 * total energy  :   -86.1025503 Eh     change        0.4030284E-08 Eh
 * total energy  :   -86.1026000 Eh     change       -0.4969860E-04 Eh
 * total energy  :   -86.1026264 Eh     change       -0.2634796E-04 Eh
 * total energy  :   -86.1026291 Eh     change       -0.2722109E-05 Eh
 * total energy  :   -86.1026303 Eh     change       -0.1246878E-05 Eh
 * total energy  :   -86.1026302 Eh     change        0.1912003E-06 Eh
 * total energy  :   -86.1026312 Eh     change       -0.1002123E-05 Eh
 * total energy  :   -86.1026320 Eh     change       -0.8441136E-06 Eh
 * total energy  :   -86.1026327 Eh     change       -0.7412946E-06 Eh
 * total energy  :   -86.1026335 Eh     change       -0.7201050E-06 Eh
 * total energy  :   -86.1026339 Eh     change       -0.4548288E-06 Eh
 * total energy  :   -86.1026342 Eh     change       -0.2852822E-06 Eh
 * total energy  :   -86.1026345 Eh     change       -0.2859765E-06 Eh
 * total energy  :   -86.1026347 Eh     change       -0.2500244E-06 Eh
 * total energy  :   -86.1026348 Eh     change       -0.1131129E-06 Eh
 * total energy  :   -86.1026349 Eh     change       -0.5547939E-07 Eh
   *** GEOMETRY OPTIMIZATION CONVERGED AFTER 16 ITERATIONS ***

 final structure:
================
57
 xtb: 6.7.1 (edcfbbe)
C           -1.07734577604277        3.52863848915460       -2.29574960694598
C           -1.11340943959746        2.32029278764097       -2.97535684026087
C           -1.34603583275838        1.13068215030527       -2.29815458567723
C           -1.54281637932996        1.17940189715014       -0.93555022697181
C           -1.50764768355378        2.39831294723276       -0.24306656964645
C           -1.27455094671478        3.58103243320882       -0.92511175495419
C           -1.73734411571551        2.13264107423166        1.16830466081651
C           -1.81584841836459        2.98423163465856        2.25777989986050
C           -2.05591129511948        2.43975390769680        3.50920092111792
C           -2.21383683979302        1.07171916226535        3.67275369479461
C           -2.13461406116934        0.21167051528289        2.58565741558251
C           -1.89711437450445        0.74994597620805        1.34019055208635
C           -1.76718582353406        0.03205837343476        0.01911319759320
C           -2.94547975758109       -0.84999395505023       -0.30980819805035
C           -4.26798227581499       -0.49754597359684       -0.42815383435512
C           -5.19671058989484       -1.48972319988028       -0.72817920464880
C           -4.79620130425542       -2.80953953592935       -0.90179321034207
C           -3.46884512054884       -3.17372922595915       -0.78341480282269
C           -2.52804360728866       -2.18844879697431       -0.48604041540705
C           -1.10923376196457       -2.25534036298908       -0.31411423369481
C           -0.19919309283722       -3.32101899161656       -0.36400891157056
C            1.13230124621622       -3.08108422992201       -0.16843610173024
C            1.64792082141250       -1.76495918952182        0.04064158156924
C            3.03657707603009       -1.51283332081991        0.11968732789803
C            3.93118030862788       -2.50686698388776        0.65451293853766
C            5.18928852337099       -2.17760397170671        1.05661653832542
C            5.68206039870190       -0.87036426637281        0.89243568021197
C            4.91085015517714        0.10430718785643        0.22897443108670
C            5.42659176289105        1.38111372032289       -0.04460877671144
C            4.71484695280910        2.29274303460257       -0.81441255774540
C            3.49694475990474        1.93032642246423       -1.34901380199042
C            2.95585652618240        0.67053494349923       -1.07301408939784
C            3.60273998579199       -0.22795281210430       -0.23059559520948
C            0.69878006700525       -0.70455302193769        0.16097397954402
C           -0.62310360181121       -0.95468921434013       -0.02081299313938
H           -0.89213369512480        4.44132612368240       -2.84362320233577
H           -0.95589231544287        2.30392955215020       -4.04391917338534
H           -1.37056787532511        0.18828031780810       -2.82641687725002
H           -1.24371058110201        4.52449260177710       -0.40045422416054
H           -1.69450292026735        4.05040704890344        2.13562204083944
H           -2.12194306965475        3.08922392227402        4.37007704513850
H           -2.40103981443513        0.67032637480106        4.65790551968836
H           -2.25778797072864       -0.85421734126400        2.71233225241507
H           -4.58057306962578        0.52759312571060       -0.29097507649934
H           -6.24060828850220       -1.23152276649021       -0.82601842489543
H           -5.53748879662343       -3.56089063330593       -1.13319046032992
H           -3.16260679283567       -4.20021838287032       -0.91993729785482
H           -0.54981523115164       -4.32202608211204       -0.56963299713759
H            1.82724953424201       -3.90184629495102       -0.25643436176452
H            3.55876118611184       -3.50343412334663        0.82944299116512
H            5.82355048721625       -2.92252777264800        1.51497507732838
H            6.68387278674934       -0.62557434003186        1.21035415650708
H            6.39601395909537        1.64652244507964        0.35164793843799
H            5.12769012972905        3.27204241900376       -1.00689466518417
H            2.94776762845668        2.61263098031119       -1.98058088721391
H            2.02965660102859        0.38822975260623       -1.55132834683738
H            1.03573137336352        0.28025092290500        0.44894638537672

 projected vibrational frequencies (cm⁻¹)
eigval :       -0.00    -0.00    -0.00     0.00     0.00     0.00
eigval :       15.26    19.47    27.85    44.72    48.30    58.66
eigval :       79.80    85.44   116.49   127.32   135.24   151.46
eigval :      166.57   192.37   212.20   225.53   244.26   260.22
eigval :      274.46   286.41   304.87   342.22   356.68   386.84
eigval :      392.26   411.60   414.52   418.34   441.89   449.14
eigval :      452.41   460.51   467.16   475.25   491.72   503.93
eigval :      506.34   524.14   538.49   551.70   574.22   576.49
eigval :      590.92   601.38   620.11   630.03   660.01   676.54
eigval :      687.05   689.30   698.61   711.95   718.76   733.82
eigval :      747.83   752.30   758.63   765.24   769.74   773.00
eigval :      786.24   799.92   807.26   836.74   838.56   865.93
eigval :      869.84   878.79   879.69   892.64   893.27   895.99
eigval :      900.78   905.80   907.80   910.47   911.67   920.66
eigval :      921.97   927.24   928.20   930.84   957.25  1006.24
eigval :     1009.06  1063.67  1069.69  1073.94  1076.49  1079.31
eigval :     1088.55  1098.02  1124.71  1128.16  1143.70  1151.28
eigval :     1157.16  1172.41  1178.07  1178.44  1180.81  1182.99
eigval :     1193.38  1202.72  1210.25  1221.81  1227.76  1243.70
eigval :     1251.84  1255.35  1261.55  1262.26  1272.51  1286.26
eigval :     1300.29  1326.22  1327.76  1344.36  1360.10  1366.93
eigval :     1368.13  1378.69  1397.19  1408.59  1422.53  1428.81
eigval :     1431.47  1442.29  1450.96  1462.34  1462.75  1472.47
eigval :     1486.66  1499.11  1517.57  1527.58  1566.30  1585.17
eigval :     1585.35  1595.64  1596.37  1603.10  1604.38  3071.68
eigval :     3072.32  3072.67  3072.87  3073.63  3074.74  3075.54
eigval :     3076.88  3077.11  3077.21  3081.88  3083.13  3084.38
eigval :     3085.45  3085.66  3089.89  3090.54  3092.34  3092.66
eigval :     3093.61  3093.72  3104.03

   temp. (K)  partition function   enthalpy   heat capacity  entropy
                                   cal/mol     cal/K/mol   cal/K/mol   J/K/mol
 298.15  VIB  0.307E+11            14791.315     99.726     89.179
         ROT  0.232E+08              888.752      2.981     36.681
         INT  0.711E+18            15680.068    102.707    125.860
         TR   0.901E+28             1481.254      4.968     44.132
         TOT                       17161.3217   107.6748   169.9915   711.2446

       T/K    H(0)-H(T)+PV         H(T)/Eh          T*S/Eh         G(T)/Eh
   ------------------------------------------------------------------------
    298.15    0.273483E-01    0.464662E+00    0.807685E-01    0.383894E+00
   ------------------------------------------------------------------------

         :::::::::::::::::::::::::::::::::::::::::::::::::::::
         ::                  THERMODYNAMIC                  ::
         :::::::::::::::::::::::::::::::::::::::::::::::::::::
         :: total free energy         -85.718741035174 Eh   ::
         ::.................................................::
         :: total energy              -86.102634876979 Eh   ::
         :: zero point energy           0.437313998096 Eh   ::
         :: G(RRHO) w/o ZPVE           -0.053420156290 Eh   ::
         :: G(RRHO) contrib.            0.383893841805 Eh   ::
         :::::::::::::::::::::::::::::::::::::::::::::::::::::

           -------------------------------------------------
          | TOTAL ENERGY              -86.102634876979 Eh   |
          | TOTAL ENTHALPY            -85.637972571917 Eh   |
          | TOTAL FREE ENERGY         -85.718741035174 Eh   |
          | GRADIENT NORM               0.000080290938 Eh/α |
           -------------------------------------------------

 * finished run on 2025/09/10 at 08:43:08.455
