   * xtb version 6.7.1 (edcfbbe) compiled by 'albert@albert-system' on 2024-07-22

   ID    Z sym.   atoms
    1    6 C      1-35
    2    1 H      36-57

          program call               : xtb data2507/gas/1SBFN/1SBFN.xyz --gfn 2 --ohess vtight --parallel 40 --molden --ceasefiles --namespace data2507/gas/1SBFN/1SBFN_gas_S0_preOpt
          :  Hamiltonian                  GFN2-xTB          :
 * total energy  :   -86.1776274 Eh     change       -0.9875549E-09 Eh
 * total energy  :   -86.1851836 Eh     change       -0.7556220E-02 Eh
 * total energy  :   -86.1864620 Eh     change       -0.1278394E-02 Eh
 * total energy  :   -86.1866855 Eh     change       -0.2234142E-03 Eh
 * total energy  :   -86.1867985 Eh     change       -0.1130295E-03 Eh
 * total energy  :   -86.1868294 Eh     change       -0.3093596E-04 Eh
 * total energy  :   -86.1868713 Eh     change       -0.4184842E-04 Eh
 * total energy  :   -86.1868858 Eh     change       -0.1451808E-04 Eh
 * total energy  :   -86.1869151 Eh     change       -0.2928709E-04 Eh
 * total energy  :   -86.1869312 Eh     change       -0.1613417E-04 Eh
 * total energy  :   -86.1884841 Eh     change       -0.4302458E-06 Eh
 * total energy  :   -86.1884846 Eh     change       -0.5527393E-06 Eh
 * total energy  :   -86.1884851 Eh     change       -0.5222764E-06 Eh
 * total energy  :   -86.1884855 Eh     change       -0.3744655E-06 Eh
 * total energy  :   -86.1884859 Eh     change       -0.3888692E-06 Eh
 * total energy  :   -86.1884863 Eh     change       -0.3515536E-06 Eh
 * total energy  :   -86.1884865 Eh     change       -0.2464849E-06 Eh
 * total energy  :   -86.1884866 Eh     change       -0.1095332E-06 Eh
 * total energy  :   -86.1884866 Eh     change       -0.2265168E-08 Eh
   *** GEOMETRY OPTIMIZATION CONVERGED AFTER 56 ITERATIONS ***

 final structure:
================
57
 xtb: 6.7.1 (edcfbbe)
C           -1.33815158962171        3.34282654664893       -2.50445087457880
C           -1.15815031279886        2.10329917682987       -3.09966220158991
C           -1.31038946165274        0.93393792912814       -2.36663283950323
C           -1.64539076552220        1.03476433846439       -1.03434149938112
C           -1.82663834166995        2.28513587883158       -0.42618895273674
C           -1.67398653271426        3.44729119375288       -1.16408175380166
C           -2.15990499478139        2.07228431822123        0.97356400025142
C           -2.44139847641708        2.96715608672577        1.99251501998797
C           -2.73269430176226        2.46799888047652        3.25197163774213
C           -2.74257982974786        1.10228565935832        3.49246294802169
C           -2.46098428756477        0.19910161599665        2.47616073020349
C           -2.17177196786752        0.69221314286232        1.22298655119789
C           -1.84226584258767       -0.07727509005759       -0.03230227599936
C           -2.90266694278407       -1.07781110180908       -0.42205008607061
C           -4.23838161112532       -0.85342340248568       -0.67177199349280
C           -5.03775750110627       -1.93628301903709       -1.01341276122937
C           -4.50436549006989       -3.21337149958309       -1.10112750324205
C           -3.16091322568207       -3.44268234691042       -0.85093885800162
C           -2.35719316805245       -2.36749909188318       -0.50930456379919
C           -0.93949962097825       -2.29014130306499       -0.19846685091159
C            0.04956177395499       -3.25946052902963       -0.16115466283479
C            1.34425191560080       -2.87782061314349        0.14493947433014
C            1.66758365455696       -1.54817384286615        0.41211056497509
C            3.05791700669103       -1.17587235295598        0.72321146146924
C            3.71763360292499       -1.82265807944806        1.74168537864193
C            5.02497646990070       -1.47154664473199        2.09932089518092
C            5.67385016695968       -0.47017204365878        1.43387979137099
C            5.04689604441836        0.20463394276880        0.36598216267950
C            5.71040490527731        1.22525888117389       -0.34741548634053
C            5.10574845151501        1.85477216902917       -1.39794389351535
C            3.81371136253408        1.47696725888424       -1.79215020936003
C            3.14164968622628        0.49534401394776       -1.11878385821277
C            3.72412401696723       -0.15409919239077       -0.00882655498845
C            0.66418738606714       -0.57682200574267        0.39885316847334
C           -0.62075654403630       -0.95527048546457        0.09047618599797
H           -1.21386499017681        4.23912202776739       -3.09478554514246
H           -0.89547152906993        2.04659346010485       -4.14589358740405
H           -1.16925929919663       -0.03247117275396       -2.82917550001278
H           -1.81139762715473        4.41514737088023       -0.70508683984430
H           -2.43536524052567        4.03163221188799        1.81025435775832
H           -2.95582225376159        3.15148665641713        4.05839702320424
H           -2.97288180466836        0.73655406157258        4.48234153619790
H           -2.46961885394646       -0.86511997008613        2.66241930291379
H           -4.65332762005851        0.14174601371837       -0.60270546073207
H           -6.08799140945498       -1.78191099071730       -1.21286430294621
H           -5.14616381220976       -4.04041548926978       -1.36825439293924
H           -2.75005828934685       -4.43905574835204       -0.92049908721657
H           -0.18029899935663       -4.29261999139131       -0.37595350666298
H            2.13199899272999       -3.61751778168048        0.15791511196736
H            3.20760858822237       -2.59962080263493        2.29340398861888
H            5.50922134221897       -1.99361751683896        2.91178462367802
H            6.67819123119975       -0.18322218764923        1.71121805168746
H            6.71343218099803        1.49484082559408       -0.04762291238509
H            5.62045458391735        2.63595386039344       -1.93824251836303
H            3.35186108536486        1.96532636536418       -2.63793871131911
H            2.15494130619886        0.20082731628327       -1.44409483592369
H            0.89715478307263        0.45145809255848        0.63626791394074

          :  Hamiltonian                  GFN2-xTB          :
         :: gradient norm              0.000083244744 Eh/a0 ::
         :: HOMO-LUMO gap              2.862737934622 eV    ::
         :: SCC energy               -87.888783510762 Eh    ::
         :: -> dispersion             -0.081300838855 Eh    ::
         :: repulsion energy           1.700296899582 Eh    ::

    * Orbital Energies and Occupations

         #    Occupation            Energy/Eh            Energy/eV
      -------------------------------------------------------------
         1        2.0000           -0.6617971             -18.0084
       ...           ...                  ...                  ...
        69        2.0000           -0.4195782             -11.4173
        70        2.0000           -0.4177281             -11.3670
        71        2.0000           -0.4134931             -11.2517
        72        2.0000           -0.4115970             -11.2001
        73        2.0000           -0.4105418             -11.1714
        74        2.0000           -0.4071356             -11.0787
        75        2.0000           -0.3997007             -10.8764
        76        2.0000           -0.3980510             -10.8315
        77        2.0000           -0.3943607             -10.7311
        78        2.0000           -0.3937845             -10.7154
        79        2.0000           -0.3837344             -10.4419
        80        2.0000           -0.3784017             -10.2968
        81        2.0000           -0.3684447             -10.0259 (HOMO)
        82                         -0.2632411              -7.1632 (LUMO)
        83                         -0.2513025              -6.8383
        84                         -0.2458739              -6.6906
        85                         -0.2259583              -6.1486
        86                         -0.2249314              -6.1207
        87                         -0.2242702              -6.1027
        88                         -0.2239259              -6.0933
        89                         -0.2152516              -5.8573
        90                         -0.1972969              -5.3687
        91                         -0.1888225              -5.1381
        92                         -0.1767973              -4.8109
       ...                                ...                  ...
       162                          0.7334087              19.9571
      -------------------------------------------------------------
                  HL-Gap            0.1052037 Eh            2.8627 eV

     #   Z          covCN         q      C6AA      α(0)
     1   6 C        2.921    -0.032    28.805     8.801
     2   6 C        2.923    -0.032    28.786     8.798
     3   6 C        2.914    -0.033    28.815     8.802
     4   6 C        3.058     0.007    27.819     8.650
     5   6 C        3.036     0.001    27.962     8.673
     6   6 C        2.915    -0.033    28.833     8.805
     7   6 C        3.037     0.001    27.968     8.674
     8   6 C        2.915    -0.034    28.837     8.806
     9   6 C        2.921    -0.032    28.807     8.802
    10   6 C        2.923    -0.031    28.783     8.798
    11   6 C        2.914    -0.033    28.810     8.802
    12   6 C        3.056     0.006    27.821     8.650
    13   6 C        3.979     0.009    20.346     6.408
    14   6 C        3.057     0.006    27.826     8.651
    15   6 C        2.914    -0.033    28.811     8.802
    16   6 C        2.923    -0.032    28.788     8.799
    17   6 C        2.921    -0.032    28.808     8.802
    18   6 C        2.915    -0.034    28.846     8.807
    19   6 C        3.037     0.001    27.961     8.673
    20   6 C        3.036    -0.002    28.029     8.684
    21   6 C        2.913    -0.035    28.860     8.809
    22   6 C        2.926    -0.038    28.935     8.821
    23   6 C        2.981     0.010    27.788     8.647
    24   6 C        2.975     0.004    27.922     8.668
    25   6 C        2.923    -0.036    28.895     8.815
    26   6 C        2.913    -0.031    28.778     8.797
    27   6 C        2.919    -0.038    28.942     8.822
    28   6 C        2.987     0.012    27.730     8.638
    29   6 C        2.920    -0.036    28.885     8.813
    30   6 C        2.915    -0.030    28.750     8.793
    31   6 C        2.916    -0.031    28.767     8.795
    32   6 C        2.917    -0.034    28.847     8.807
    33   6 C        2.987     0.009    27.804     8.650
    34   6 C        2.918    -0.036    28.903     8.816
    35   6 C        3.057     0.006    27.844     8.654
    36   1 H        0.926     0.030     2.581     2.512
    37   1 H        0.926     0.030     2.580     2.512
    38   1 H        0.926     0.027     2.630     2.536
    39   1 H        0.926     0.031     2.568     2.506
    40   1 H        0.926     0.031     2.569     2.506
    41   1 H        0.926     0.030     2.580     2.512
    42   1 H        0.926     0.031     2.576     2.510
    43   1 H        0.926     0.028     2.615     2.529
    44   1 H        0.926     0.028     2.617     2.530
    45   1 H        0.926     0.031     2.578     2.511
    46   1 H        0.926     0.030     2.582     2.513
    47   1 H        0.926     0.031     2.571     2.507
    48   1 H        0.926     0.032     2.561     2.502
    49   1 H        0.926     0.032     2.563     2.503
    50   1 H        0.926     0.030     2.592     2.518
    51   1 H        0.926     0.029     2.595     2.519
    52   1 H        0.926     0.030     2.585     2.514
    53   1 H        0.926     0.030     2.585     2.514
    54   1 H        0.926     0.029     2.602     2.522
    55   1 H        0.926     0.028     2.612     2.527
    56   1 H        0.926     0.033     2.550     2.497
    57   1 H        0.926     0.030     2.583     2.513

molecular dipole:
                 x           y           z       tot (Debye)
 q only:       -0.000       0.011       0.001
   full:       -0.010       0.016       0.002       0.048

 projected vibrational frequencies (cm⁻¹)
eigval :       -0.00    -0.00    -0.00    -0.00     0.00     0.00
eigval :       16.44    18.49    27.62    44.53    46.76    52.72
eigval :       81.99    86.19   119.39   126.57   139.64   156.01
eigval :      167.30   196.55   213.42   232.40   239.69   251.73
eigval :      284.55   285.89   326.28   343.98   383.57   387.25
eigval :      406.36   414.30   416.90   424.57   434.87   449.28
eigval :      453.82   472.81   481.06   498.21   504.29   508.98
eigval :      518.70   538.77   548.14   575.54   587.76   591.86
eigval :      603.67   609.03   633.54   644.49   666.97   688.76
eigval :      690.72   706.85   714.34   727.32   739.63   754.11
eigval :      762.68   765.64   773.47   776.34   781.24   786.32
eigval :      814.14   832.41   846.29   875.99   878.84   879.09
eigval :      879.94   893.35   896.18   900.48   904.52   910.55
eigval :      911.73   913.02   915.83   920.82   926.04   927.28
eigval :      927.71   928.11   934.12   935.26   994.42  1008.97
eigval :     1012.49  1073.91  1075.11  1077.51  1079.21  1083.76
eigval :     1111.72  1125.05  1134.43  1143.81  1154.00  1168.79
eigval :     1174.65  1178.31  1178.99  1181.61  1181.98  1194.28
eigval :     1206.29  1210.64  1223.48  1224.53  1228.45  1245.55
eigval :     1252.05  1261.67  1262.29  1274.83  1285.40  1299.84
eigval :     1324.21  1327.59  1338.15  1361.90  1366.84  1374.18
eigval :     1392.32  1416.22  1423.76  1429.20  1431.99  1435.63
eigval :     1447.80  1459.01  1462.47  1472.40  1478.19  1509.38
eigval :     1565.26  1574.83  1585.62  1593.57  1596.51  1597.06
eigval :     1598.61  1604.38  1604.82  1605.40  1610.74  3066.88
eigval :     3069.65  3071.99  3072.80  3072.97  3073.78  3074.78
eigval :     3075.78  3076.09  3077.20  3077.26  3078.89  3083.27
eigval :     3084.15  3084.37  3085.29  3086.50  3087.28  3091.14
eigval :     3092.02  3092.71  3092.81

   temp. (K)  partition function   enthalpy   heat capacity  entropy
                                   cal/mol     cal/K/mol   cal/K/mol   J/K/mol
 298.15  VIB  0.248E+11            14526.253     97.725     87.661
         ROT  0.240E+08              888.752      2.981     36.755
         INT  0.595E+18            15415.005    100.706    124.417
         TR   0.901E+28             1481.254      4.968     44.132
         TOT                       16896.2593   105.6737   168.5483   705.2059

       T/K    H(0)-H(T)+PV         H(T)/Eh          T*S/Eh         G(T)/Eh
   ------------------------------------------------------------------------
    298.15    0.269259E-01    0.468197E+00    0.800827E-01    0.388114E+00
   ------------------------------------------------------------------------

         :::::::::::::::::::::::::::::::::::::::::::::::::::::
         ::                  THERMODYNAMIC                  ::
         :::::::::::::::::::::::::::::::::::::::::::::::::::::
         :: total free energy         -85.800372117994 Eh   ::
         ::.................................................::
         :: total energy              -86.188486611178 Eh   ::
         :: zero point energy           0.441271303833 Eh   ::
         :: G(RRHO) w/o ZPVE           -0.053156810649 Eh   ::
         :: G(RRHO) contrib.            0.388114493184 Eh   ::
         :::::::::::::::::::::::::::::::::::::::::::::::::::::

           -------------------------------------------------
          | TOTAL ENERGY              -86.188486611178 Eh   |
          | TOTAL ENTHALPY            -85.720289404175 Eh   |
          | TOTAL FREE ENERGY         -85.800372117994 Eh   |
          | GRADIENT NORM               0.000083242152 Eh/α |
          | HOMO-LUMO GAP               2.862737900493 eV   |
           -------------------------------------------------

 * finished run on 2025/09/10 at 08:38:21.004
