   * xtb version 6.7.1 (edcfbbe) compiled by 'albert@albert-system' on 2024-07-22

   ID    Z sym.   atoms
    1    6 C      1-35
    2    1 H      36-57

          program call               : xtb data2507/gas/1SBFN/1SBFN_gas_S0_finalOpt.xtbopt.xyz --gfn 2 --spinpol --tblite --uhf 2 --ohess vtight --parallel 40 --molden --ceasefiles --namespace data2507/gas/1SBFN/1SBFN_gas_T1_preOpt
 * total energy  :   -86.0871681 Eh     change       -0.4631517E-08 Eh
 * total energy  :   -86.0959299 Eh     change       -0.8761751E-02 Eh
 * total energy  :   -86.0984895 Eh     change       -0.2559598E-02 Eh
 * total energy  :   -86.0990501 Eh     change       -0.5606381E-03 Eh
 * total energy  :   -86.0997010 Eh     change       -0.6508473E-03 Eh
 * total energy  :   -86.1001735 Eh     change       -0.4724823E-03 Eh
 * total energy  :   -86.1006524 Eh     change       -0.4789065E-03 Eh
 * total energy  :   -86.1010348 Eh     change       -0.3824242E-03 Eh
 * total energy  :   -86.1012966 Eh     change       -0.2617816E-03 Eh
 * total energy  :   -86.1014894 Eh     change       -0.1928215E-03 Eh
 * total energy  :   -86.1026254 Eh     change       -0.1521893E-05 Eh
 * total energy  :   -86.1026271 Eh     change       -0.1713200E-05 Eh
 * total energy  :   -86.1026292 Eh     change       -0.2081307E-05 Eh
 * total energy  :   -86.1026315 Eh     change       -0.2314950E-05 Eh
 * total energy  :   -86.1026331 Eh     change       -0.1650401E-05 Eh
 * total energy  :   -86.1026339 Eh     change       -0.7873046E-06 Eh
 * total energy  :   -86.1026343 Eh     change       -0.3781060E-06 Eh
 * total energy  :   -86.1026346 Eh     change       -0.2721952E-06 Eh
 * total energy  :   -86.1026346 Eh     change       -0.5260205E-07 Eh
   *** GEOMETRY OPTIMIZATION CONVERGED AFTER 60 ITERATIONS ***

 final structure:
================
57
 xtb: 6.7.1 (edcfbbe)
C           -1.12725528292958        3.57142686921519       -2.22122556575974
C           -1.11783533086842        2.38555556536967       -2.94018429396577
C           -1.33068396864386        1.16855530306949       -2.30657818121117
C           -1.55405569193970        1.16717377111935       -0.94721857621899
C           -1.56510271660332        2.36318366885430       -0.21510614284195
C           -1.35138787257979        3.57345605531318       -0.85374322297418
C           -1.81591052905218        2.04546595061348        1.18181766491360
C           -1.93760942727498        2.85850506332601        2.29648902520066
C           -2.18938078730145        2.26739399210539        3.52420793013054
C           -2.31671190149777        0.89130423687932        3.63977943016567
C           -2.19390809260725        0.06974151766513        2.52724472463171
C           -1.94441321851982        0.65436277040455        1.30524462718901
C           -1.76765572291171       -0.01627431493839       -0.03514277933911
C           -2.91463855407127       -0.91681625224735       -0.41981190770635
C           -4.24271697259202       -0.59429637830099       -0.55917880463197
C           -5.13785890195395       -1.59933334522051       -0.91356948616447
C           -4.69907713400032       -2.90221372235557       -1.11961315654455
C           -3.36584487910517       -3.23633117065026       -0.98056943735609
C           -2.45839600628878       -2.23773138320000       -0.62893671345443
C           -1.04273370207878       -2.27426403220420       -0.42513659225178
C           -0.10475093368443       -3.31478538638351       -0.48636563536832
C            1.21475857143527       -3.04856673629529       -0.24825899853883
C            1.69097251425786       -1.72781916607754        0.01712664705364
C            3.07011874494377       -1.44540337479802        0.14557104126133
C            3.97236065386846       -2.43411070649483        0.67738674574175
C            5.20922089697247       -2.08765107120865        1.12800341543151
C            5.67437287577662       -0.76461535383050        1.01863109789316
C            4.89973432727842        0.21156554590117        0.36142395959235
C            5.39173466166119        1.50811193342328        0.14242745374792
C            4.68109055361025        2.42584842391920       -0.62113010807782
C            3.48901860729834        2.05135583129172       -1.20348205166165
C            2.97110848278059        0.77115595334114       -0.98226352240834
C            3.61465806689393       -0.13729155455230       -0.14801759943887
C            0.71265375654942       -0.69511369744990        0.14430663354456
C           -0.59749193051837       -0.97189336536198       -0.07916915846083
H           -0.95770735260000        4.50634712718916       -2.73570876782470
H           -0.94102368085460        2.40863310255844       -4.00560089251902
H           -1.32000519821864        0.24375445919347       -2.86549836950939
H           -1.35635290819156        4.49965587001225       -0.29834800649399
H           -1.84059755997976        3.93077287489658        2.21154901648047
H           -2.28924579572246        2.88633077908734        4.40409216418759
H           -2.51407381137663        0.45322858856445        4.60716475977588
H           -2.29248667068424       -1.00245929414971        2.61676494305347
H           -4.58515000422888        0.41755903960258       -0.39693547918326
H           -6.18548123639005       -1.36453187651290       -1.02889179802627
H           -5.41482021853260       -3.66410222704416       -1.39313457100932
H           -3.02968206002240       -4.24967146708572       -1.14251593963646
H           -0.42447301619490       -4.31683752730529       -0.73310413598473
H            1.93265283973278       -3.84843935893460       -0.34413158588840
H            3.61942349595451       -3.44417924401035        0.81037784065197
H            5.84749027392497       -2.83110114898629        1.58319290676239
H            6.65974839485498       -0.50606978803756        1.37473038195587
H            6.34207192567691        1.78410241977227        0.57589628396716
H            5.07547960238553        3.41995009845250       -0.77178795815810
H            2.94252587209555        2.73960566878180       -1.83090795151065
H            2.06644358188826        0.48189511497647       -1.49627718722419
H            1.01719923093617        0.28810134358467        0.47115681480093

 projected vibrational frequencies (cm⁻¹)
eigval :       -0.00    -0.00    -0.00     0.00     0.00     0.00
eigval :       15.13    18.84    27.79    44.68    48.59    58.64
eigval :       79.72    85.37   116.55   127.44   135.17   151.63
eigval :      166.42   192.32   212.15   225.50   244.05   260.09
eigval :      274.63   286.21   304.88   342.08   356.97   386.78
eigval :      392.26   411.53   414.51   418.22   441.77   449.03
eigval :      452.32   460.47   467.08   475.15   491.67   503.94
eigval :      506.12   524.01   538.46   551.79   574.34   576.52
eigval :      590.91   601.40   620.13   629.96   660.03   676.53
eigval :      687.09   689.25   698.59   711.37   718.69   733.82
eigval :      747.64   752.29   758.65   765.19   769.75   773.01
eigval :      786.18   799.72   807.41   837.29   838.32   865.87
eigval :      869.80   878.76   879.63   892.56   893.31   895.93
eigval :      900.81   905.57   907.70   910.43   911.61   920.60
eigval :      922.01   927.13   928.12   930.34   957.45  1006.27
eigval :     1009.09  1064.04  1069.83  1074.07  1076.59  1079.32
eigval :     1088.64  1097.72  1124.62  1127.98  1143.71  1151.23
eigval :     1157.00  1172.37  1177.95  1178.36  1180.68  1182.86
eigval :     1193.28  1202.51  1210.27  1221.86  1227.56  1243.46
eigval :     1252.02  1255.16  1261.61  1262.17  1272.29  1286.20
eigval :     1300.27  1326.13  1327.80  1344.27  1360.09  1366.96
eigval :     1368.12  1378.55  1396.85  1408.36  1422.31  1428.90
eigval :     1431.38  1442.11  1451.02  1462.38  1462.68  1472.49
eigval :     1486.77  1498.80  1517.39  1527.26  1566.37  1585.29
eigval :     1585.40  1595.63  1596.46  1603.23  1604.53  3071.71
eigval :     3072.39  3072.84  3072.98  3073.62  3074.89  3075.59
eigval :     3076.97  3077.22  3077.36  3082.00  3083.23  3084.64
eigval :     3085.56  3085.88  3089.93  3090.55  3092.58  3092.81
eigval :     3093.66  3093.83  3103.86

   temp. (K)  partition function   enthalpy   heat capacity  entropy
                                   cal/mol     cal/K/mol   cal/K/mol   J/K/mol
 298.15  VIB  0.320E+11            14793.437     99.733     89.223
         ROT  0.232E+08              888.752      2.981     36.682
         INT  0.741E+18            15682.190    102.714    125.905
         TR   0.901E+28             1481.254      4.968     44.132
         TOT                       17163.4434   107.6822   170.0367   711.4334

       T/K    H(0)-H(T)+PV         H(T)/Eh          T*S/Eh         G(T)/Eh
   ------------------------------------------------------------------------
    298.15    0.273517E-01    0.464656E+00    0.807899E-01    0.383866E+00
   ------------------------------------------------------------------------

         :::::::::::::::::::::::::::::::::::::::::::::::::::::
         ::                  THERMODYNAMIC                  ::
         :::::::::::::::::::::::::::::::::::::::::::::::::::::
         :: total free energy         -85.718768691772 Eh   ::
         ::.................................................::
         :: total energy              -86.102634639059 Eh   ::
         :: zero point energy           0.437304160663 Eh   ::
         :: G(RRHO) w/o ZPVE           -0.053438213376 Eh   ::
         :: G(RRHO) contrib.            0.383865947288 Eh   ::
         :::::::::::::::::::::::::::::::::::::::::::::::::::::

           -------------------------------------------------
          | TOTAL ENERGY              -86.102634639059 Eh   |
          | TOTAL ENTHALPY            -85.637978790275 Eh   |
          | TOTAL FREE ENERGY         -85.718768691772 Eh   |
          | GRADIENT NORM               0.000163871675 Eh/α |
           -------------------------------------------------

 * finished run on 2025/09/10 at 08:40:46.338
