   * xtb version 6.7.1 (edcfbbe) compiled by 'albert@albert-system' on 2024-07-22

   ID    Z sym.   atoms
    1    6 C      1-35
    2    1 H      36-57

          program call               : xtb data2507/gas/1SBFN/1SBFN_gas_S0_crest.xyz --gfn 2 --ohess vtight --parallel 40 --molden --ceasefiles --namespace data2507/gas/1SBFN/1SBFN_gas_S0_finalOpt
          :  Hamiltonian                  GFN2-xTB          :
 * total energy  :   -86.1884829 Eh     change       -0.8718075E-09 Eh
 * total energy  :   -86.1884834 Eh     change       -0.5013265E-06 Eh
 * total energy  :   -86.1884838 Eh     change       -0.3784854E-06 Eh
 * total energy  :   -86.1884843 Eh     change       -0.5692789E-06 Eh
 * total energy  :   -86.1884849 Eh     change       -0.5697929E-06 Eh
 * total energy  :   -86.1884854 Eh     change       -0.5012243E-06 Eh
 * total energy  :   -86.1884856 Eh     change       -0.2179780E-06 Eh
 * total energy  :   -86.1884858 Eh     change       -0.1895417E-06 Eh
 * total energy  :   -86.1884861 Eh     change       -0.3201611E-06 Eh
 * total energy  :   -86.1884865 Eh     change       -0.3636374E-06 Eh
 * total energy  :   -86.1884867 Eh     change       -0.2240445E-06 Eh
 * total energy  :   -86.1884869 Eh     change       -0.1306661E-06 Eh
 * total energy  :   -86.1884869 Eh     change       -0.9258957E-07 Eh
   *** GEOMETRY OPTIMIZATION CONVERGED AFTER 13 ITERATIONS ***

 final structure:
================
57
 xtb: 6.7.1 (edcfbbe)
C           -1.32919902630434        3.68831346725729       -2.03192445731091
C           -1.19947078167550        2.52869331617434       -2.78129128084840
C           -1.34626575945524        1.28064037834582       -2.19077255462051
C           -1.62465862975228        1.22221845590376       -0.84301344400059
C           -1.75476581008920        2.39098624039029       -0.07939351626507
C           -1.60793235816551        3.63248595283726       -0.67564783377364
C           -2.03560138377220        2.01285863482934        1.29677340489466
C           -2.25561309578432        2.77997100838013        2.42877136389275
C           -2.50623398863298        2.13441271589005        3.62905513693469
C           -2.53642412527577        0.74983793812728        3.70076187777031
C           -2.31640271827084       -0.02585317994429        2.57035996729964
C           -2.06763153015634        0.61294327763556        1.37565706966268
C           -1.80526854839303       -0.00140644214311        0.02290565817433
C           -2.90121123838484       -0.92809160645913       -0.44351759164059
C           -4.24058283379183       -0.65253461687831       -0.60779166289349
C           -5.07533485378496       -1.67059635691742       -1.04942062065026
C           -4.57280574675039       -2.93471973994921       -1.31888047626156
C           -3.22577858876597       -3.21533234615353       -1.15510095349123
C           -2.38685889907529       -2.20498783330376       -0.71450805388241
C           -0.95682736471995       -2.19024367986757       -0.45512462849738
C            0.01221779416540       -3.17239087233021       -0.57992359948026
C            1.32548893894854       -2.85342093967572       -0.28133040587660
C            1.68692276702390       -1.57354268318773        0.13721465882866
C            3.09554117429399       -1.26580747889554        0.43624137433723
C            3.78035070103037       -2.04715068935012        1.33701688156121
C            5.10708327367254       -1.76423173562560        1.68352476348808
C            5.75006165596552       -0.69576792337363        1.12535994175526
C            5.09683600824466        0.11891428629271        0.17750834213438
C            5.75316411659011        1.21205150808062       -0.42676529023036
C            5.12215785542529        1.97888695063473       -1.36448193543518
C            3.80912495932028        1.67335965323543       -1.75189666620101
C            3.14345467639544        0.62426943913349       -1.18184752656329
C            3.75407327416157       -0.16946338397138       -0.18676603086991
C            0.70454598565844       -0.59210974346082        0.28644130221439
C           -0.59895125458681       -0.90771737646424       -0.01465190470335
H           -1.21029463052979        4.64831330561726       -2.51312773474407
H           -0.98102085926528        2.59690392039283       -3.83696148494946
H           -1.24467754657976        0.37631717200869       -2.77360731703424
H           -1.70613427985145        4.53862311339926       -0.09635271519927
H           -2.23350487206108        3.85853775056603        2.37809330064676
H           -2.68111510206695        2.71699445803944        4.52195997089852
H           -2.73416871299715        0.26886306455327        4.64745046614764
H           -2.34069906436708       -1.10461819073657        2.62519224286054
H           -4.63139674985865        0.33247935232930       -0.39725745591650
H           -6.12903559490521       -1.47542817247997       -1.18443888642509
H           -5.24179497465978       -3.71091268460130       -1.66128741485058
H           -2.83905074753836       -4.20134448918639       -1.36633689022777
H           -0.24752128801226       -4.16638102354114       -0.91296178005583
H            2.09730372477086       -3.60150228403908       -0.39332239630997
H            3.27620373023000       -2.88041282282033        1.80573651601026
H            5.61131705380794       -2.39308921975690        2.40285252788458
H            6.76966013371225       -0.46155315571181        1.39649484837411
H            6.77179510108348        1.42649789363174       -0.13518495957550
H            5.63166856598930        2.81453966991349       -1.82182734294407
H            3.32587898049437        2.27165574463559       -2.51062524807118
H            2.13962938530373        0.38818895925737       -1.50241267546753
H            0.96806147209211        0.39406146123246        0.64143582919591

          :  Hamiltonian                  GFN2-xTB          :
         :: gradient norm              0.000026140893 Eh/a0 ::
         :: HOMO-LUMO gap              2.861832460964 eV    ::
         :: SCC energy               -87.888787774095 Eh    ::
         :: -> dispersion             -0.081298536040 Eh    ::
         :: repulsion energy           1.700300825209 Eh    ::

    * Orbital Energies and Occupations

         #    Occupation            Energy/Eh            Energy/eV
      -------------------------------------------------------------
         1        2.0000           -0.6617976             -18.0084
       ...           ...                  ...                  ...
        69        2.0000           -0.4195775             -11.4173
        70        2.0000           -0.4177232             -11.3668
        71        2.0000           -0.4134963             -11.2518
        72        2.0000           -0.4115935             -11.2000
        73        2.0000           -0.4105396             -11.1714
        74        2.0000           -0.4071388             -11.0788
        75        2.0000           -0.3997002             -10.8764
        76        2.0000           -0.3980479             -10.8314
        77        2.0000           -0.3943428             -10.7306
        78        2.0000           -0.3937983             -10.7158
        79        2.0000           -0.3837421             -10.4422
        80        2.0000           -0.3784046             -10.2969
        81        2.0000           -0.3684295             -10.0255 (HOMO)
        82                         -0.2632591              -7.1636 (LUMO)
        83                         -0.2512998              -6.8382
        84                         -0.2458613              -6.6902
        85                         -0.2259546              -6.1485
        86                         -0.2249252              -6.1205
        87                         -0.2242799              -6.1030
        88                         -0.2239189              -6.0931
        89                         -0.2152491              -5.8572
        90                         -0.1973140              -5.3692
        91                         -0.1888213              -5.1381
        92                         -0.1767742              -4.8103
       ...                                ...                  ...
       162                          0.7334168              19.9573
      -------------------------------------------------------------
                  HL-Gap            0.1051704 Eh            2.8618 eV

     #   Z          covCN         q      C6AA      α(0)
     1   6 C        2.921    -0.032    28.805     8.801
     2   6 C        2.923    -0.032    28.786     8.798
     3   6 C        2.914    -0.033    28.815     8.802
     4   6 C        3.058     0.007    27.819     8.650
     5   6 C        3.036     0.001    27.962     8.673
     6   6 C        2.915    -0.033    28.833     8.805
     7   6 C        3.037     0.001    27.968     8.674
     8   6 C        2.915    -0.034    28.837     8.806
     9   6 C        2.921    -0.032    28.807     8.802
    10   6 C        2.923    -0.031    28.783     8.798
    11   6 C        2.914    -0.033    28.810     8.802
    12   6 C        3.056     0.006    27.822     8.650
    13   6 C        3.979     0.009    20.346     6.408
    14   6 C        3.057     0.006    27.826     8.651
    15   6 C        2.914    -0.033    28.811     8.802
    16   6 C        2.923    -0.032    28.788     8.799
    17   6 C        2.921    -0.032    28.808     8.802
    18   6 C        2.915    -0.034    28.846     8.807
    19   6 C        3.037     0.001    27.961     8.673
    20   6 C        3.036    -0.002    28.029     8.684
    21   6 C        2.913    -0.035    28.860     8.809
    22   6 C        2.926    -0.038    28.935     8.821
    23   6 C        2.981     0.010    27.788     8.647
    24   6 C        2.975     0.004    27.922     8.668
    25   6 C        2.923    -0.036    28.895     8.815
    26   6 C        2.913    -0.031    28.778     8.797
    27   6 C        2.919    -0.038    28.942     8.822
    28   6 C        2.987     0.012    27.730     8.638
    29   6 C        2.920    -0.036    28.885     8.813
    30   6 C        2.915    -0.030    28.750     8.793
    31   6 C        2.916    -0.031    28.767     8.795
    32   6 C        2.917    -0.034    28.847     8.807
    33   6 C        2.987     0.009    27.805     8.650
    34   6 C        2.918    -0.036    28.903     8.816
    35   6 C        3.057     0.006    27.844     8.654
    36   1 H        0.926     0.030     2.581     2.512
    37   1 H        0.926     0.030     2.580     2.512
    38   1 H        0.926     0.027     2.630     2.536
    39   1 H        0.926     0.031     2.568     2.506
    40   1 H        0.926     0.031     2.569     2.506
    41   1 H        0.926     0.030     2.580     2.512
    42   1 H        0.926     0.031     2.576     2.510
    43   1 H        0.926     0.028     2.615     2.529
    44   1 H        0.926     0.028     2.617     2.530
    45   1 H        0.926     0.031     2.578     2.511
    46   1 H        0.926     0.030     2.582     2.513
    47   1 H        0.926     0.031     2.571     2.507
    48   1 H        0.926     0.032     2.561     2.502
    49   1 H        0.926     0.032     2.563     2.503
    50   1 H        0.926     0.030     2.592     2.518
    51   1 H        0.926     0.029     2.595     2.519
    52   1 H        0.926     0.030     2.585     2.514
    53   1 H        0.926     0.030     2.585     2.514
    54   1 H        0.926     0.029     2.602     2.522
    55   1 H        0.926     0.028     2.612     2.527
    56   1 H        0.926     0.033     2.550     2.497
    57   1 H        0.926     0.030     2.583     2.513

molecular dipole:
                 x           y           z       tot (Debye)
 q only:       -0.000       0.010       0.002
   full:       -0.010       0.015       0.004       0.048

 projected vibrational frequencies (cm⁻¹)
eigval :       -0.00    -0.00    -0.00    -0.00     0.00     0.00
eigval :       16.43    18.47    27.61    44.53    46.78    52.75
eigval :       81.99    86.22   119.41   126.58   139.62   156.01
eigval :      167.34   196.58   213.44   232.38   239.74   251.80
eigval :      284.55   285.90   326.29   344.01   383.58   387.25
eigval :      406.37   414.32   416.90   424.59   434.86   449.30
eigval :      453.78   472.82   481.06   498.20   504.30   509.00
eigval :      518.71   538.77   548.14   575.54   587.76   591.86
eigval :      603.68   608.98   633.58   644.47   666.97   688.80
eigval :      690.67   706.84   714.34   727.33   739.63   754.11
eigval :      762.68   765.64   773.47   776.33   781.24   786.32
eigval :      814.12   832.41   846.28   875.99   878.84   879.09
eigval :      879.95   893.35   896.18   900.49   904.53   910.56
eigval :      911.73   913.02   915.83   920.83   926.05   927.29
eigval :      927.71   928.12   934.16   935.26   994.41  1008.98
eigval :     1012.50  1073.92  1075.10  1077.51  1079.22  1083.77
eigval :     1111.72  1125.08  1134.43  1143.81  1154.00  1168.79
eigval :     1174.64  1178.32  1178.99  1181.62  1181.98  1194.24
eigval :     1206.31  1210.63  1223.47  1224.53  1228.45  1245.53
eigval :     1252.05  1261.60  1262.38  1274.86  1285.43  1299.84
eigval :     1324.21  1327.60  1338.16  1361.91  1366.82  1374.21
eigval :     1392.34  1416.19  1423.76  1429.28  1431.96  1435.65
eigval :     1447.80  1459.00  1462.51  1472.45  1478.17  1509.37
eigval :     1565.27  1574.81  1585.64  1593.57  1596.54  1597.06
eigval :     1598.61  1604.37  1604.83  1605.40  1610.74  3066.90
eigval :     3069.67  3071.98  3072.79  3072.98  3073.78  3074.76
eigval :     3075.75  3076.10  3077.21  3077.27  3078.90  3083.24
eigval :     3084.15  3084.43  3085.29  3086.50  3087.29  3091.13
eigval :     3092.01  3092.70  3092.78

   temp. (K)  partition function   enthalpy   heat capacity  entropy
                                   cal/mol     cal/K/mol   cal/K/mol   J/K/mol
 298.15  VIB  0.248E+11            14525.971     97.725     87.661
         ROT  0.240E+08              888.752      2.981     36.755
         INT  0.596E+18            15414.723    100.706    124.415
         TR   0.901E+28             1481.254      4.968     44.132
         TOT                       16895.9771   105.6738   168.5469   705.2003

       T/K    H(0)-H(T)+PV         H(T)/Eh          T*S/Eh         G(T)/Eh
   ------------------------------------------------------------------------
    298.15    0.269255E-01    0.468198E+00    0.800821E-01    0.388116E+00
   ------------------------------------------------------------------------

         :::::::::::::::::::::::::::::::::::::::::::::::::::::
         ::                  THERMODYNAMIC                  ::
         :::::::::::::::::::::::::::::::::::::::::::::::::::::
         :: total free energy         -85.800370645325 Eh   ::
         ::.................................................::
         :: total energy              -86.188486948885 Eh   ::
         :: zero point energy           0.441272929849 Eh   ::
         :: G(RRHO) w/o ZPVE           -0.053156626288 Eh   ::
         :: G(RRHO) contrib.            0.388116303561 Eh   ::
         :::::::::::::::::::::::::::::::::::::::::::::::::::::

           -------------------------------------------------
          | TOTAL ENERGY              -86.188486948885 Eh   |
          | TOTAL ENTHALPY            -85.720288565587 Eh   |
          | TOTAL FREE ENERGY         -85.800370645325 Eh   |
          | GRADIENT NORM               0.000026148460 Eh/α |
          | HOMO-LUMO GAP               2.861832468017 eV   |
           -------------------------------------------------

 * finished run on 2025/09/10 at 08:40:40.798
