   * xtb version 6.7.1 (edcfbbe) compiled by 'albert@albert-system' on 2024-07-22

   ID    Z sym.   atoms
    1    8 O      1, 5, 17, 37
    2    6 C      2-4, 6-9, 11-16, 18-29, 31-36, 38-45
    3    7 N      10, 30
    4    1 H      46-71

          program call               : xtb data2507/toluene/PXZPDO/PXZPDO_toluene_S0_crest.xyz --gfn 2 --gbsa toluene --ohess vtight --parallel 40 --molden --ceasefiles --namespace data2507/toluene/PXZPDO/PXZPDO_toluene_S0_finalOpt
      * Solvation model:               GBSA
        Solvent                        toluene
        Solvent mass                       9.2140E+01 g/mol
          :  Hamiltonian                  GFN2-xTB          :
 * total energy  :  -118.9490844 Eh     change       -0.9050709E-08 Eh
 * total energy  :  -118.9492270 Eh     change       -0.1425758E-03 Eh
 * total energy  :  -118.9492880 Eh     change       -0.6094464E-04 Eh
 * total energy  :  -118.9493045 Eh     change       -0.1650921E-04 Eh
 * total energy  :  -118.9493183 Eh     change       -0.1383666E-04 Eh
 * total energy  :  -118.9493308 Eh     change       -0.1252052E-04 Eh
 * total energy  :  -118.9493363 Eh     change       -0.5478341E-05 Eh
 * total energy  :  -118.9493470 Eh     change       -0.1072458E-04 Eh
 * total energy  :  -118.9493521 Eh     change       -0.5088855E-05 Eh
 * total energy  :  -118.9493573 Eh     change       -0.5192052E-05 Eh
 * total energy  :  -118.9493618 Eh     change       -0.1479143E-05 Eh
 * total energy  :  -118.9493630 Eh     change       -0.1156307E-05 Eh
 * total energy  :  -118.9493636 Eh     change       -0.6409615E-06 Eh
 * total energy  :  -118.9493637 Eh     change       -0.4382440E-07 Eh
 * total energy  :  -118.9493640 Eh     change       -0.3681221E-06 Eh
 * total energy  :  -118.9493644 Eh     change       -0.4016505E-06 Eh
 * total energy  :  -118.9493648 Eh     change       -0.3356866E-06 Eh
 * total energy  :  -118.9493651 Eh     change       -0.3391710E-06 Eh
 * total energy  :  -118.9493651 Eh     change       -0.3833611E-07 Eh
   *** GEOMETRY OPTIMIZATION CONVERGED AFTER 20 ITERATIONS ***

 final structure:
================
71
 xtb: 6.7.1 (edcfbbe)
O            1.49034969491857       -4.12396197208100        1.66146072879114
C            1.29871006020714       -3.00232390119279        1.20116902367244
C           -0.04761231003245       -2.51182777358932        0.94920369502384
C           -0.44884536925236       -1.21931567556332        0.92288747357635
O            0.42108719760870       -0.20627183231327        1.10503119436731
C           -1.85790992934072       -0.86581499494833        0.68740599014778
C           -2.90141972655722       -1.65325429125479        1.17623377836435
C           -4.21505775056743       -1.31186168665912        0.93005863206285
C           -4.52035033370563       -0.17679445921859        0.18050503456581
N           -5.86247407672296        0.16133490505490       -0.08490958003887
C           -6.40275460133911        1.36109765337575        0.38783358977740
C           -5.67983984862916        2.23756090120185        1.18819343703140
C           -6.24578351236133        3.41986583265412        1.64110418881101
C           -7.54703038274808        3.74212046066497        1.31220744339851
C           -8.29415279091914        2.86193579271243        0.54279653224701
C           -7.73469486670991        1.68048231512031        0.09189620034145
O           -8.55075968416197        0.84444842340353       -0.63401863644936
C           -8.00882251520783       -0.33929117426442       -1.07830200456767
C           -8.83864390047167       -1.16951760077489       -1.80919738870504
C           -8.35729639367759       -2.36477200080798       -2.32344129600801
C           -7.03708230188966       -2.71010936037245       -2.11584848604865
C           -6.20221776121321       -1.88194382996609       -1.38074934629312
C           -6.67721395238418       -0.69783241639904       -0.82949237924212
C           -3.48505842145249        0.61764232675939       -0.30587177331027
C           -2.17197850339524        0.28123279864171       -0.04681180137661
C            2.44441831686440       -2.11860513293990        0.85659703987210
C            3.52911729827458       -2.02574875513706        1.72339586708375
C            4.61676873963514       -1.23652416807953        1.40407528026610
C            4.64498770502093       -0.55189391225721        0.19316845197290
N            5.75394604968688        0.25979840193039       -0.14216259822034
C            5.60830236279623        1.64402891978175       -0.24540630349964
C            4.40492079075485        2.28409783810718        0.02528142249700
C            4.29446111994512        3.66269672229550       -0.08092595289640
C            5.38483834280897        4.42449662787378       -0.44936520748638
C            6.60046176662160        3.80258600699012       -0.69871498192776
C            6.71601401002227        2.42916305216161       -0.59279711847427
O            7.95940417796038        1.88743119442861       -0.82897440197804
C            8.08647606536437        0.52141035169023       -0.71185036804472
C            9.33733808802064       -0.01376600357262       -0.95529197681144
C            9.53834686703462       -1.38530525516189       -0.88306983727243
C            8.47619605340459       -2.21293726597324       -0.57994059456101
C            7.21947243201428       -1.68041262587881       -0.33315997829074
C            7.00687939592929       -0.30793179341974       -0.37780522614552
C            3.57696103179173       -0.66921891935918       -0.69255640135310
C            2.48379295438013       -1.44325679238290       -0.36088935044168
H           -0.79794887719490       -3.28223751283616        0.85988208199203
H           -0.05212459861982        0.63867935251460        1.13792645265121
H           -2.68041228070584       -2.52028807815211        1.77845158851937
H           -5.01673729085028       -1.91874648816777        1.32337611127866
H           -4.66804602702277        1.99108532012379        1.46806285190445
H           -5.65848350989487        4.08377305407761        2.25672953911621
H           -7.99123564627533        4.66273455823713        1.65657104943759
H           -9.32055546980459        3.07113820563195        0.28492871421237
H           -9.85890755444769       -0.85800714492445       -1.96984130303473
H           -9.01318575155173       -3.00723669238885       -2.88955965531540
H           -6.64109867755807       -3.62614900443150       -2.52668127134012
H           -5.16915317611308       -2.15870846624500       -1.24227225434434
H           -3.71626820164521        1.49261407781528       -0.89463539418636
H           -1.38545529398713        0.89246671006393       -0.46789847876523
H            3.50054073370301       -2.56661474099283        2.65803338298680
H            5.44932620136630       -1.14890914677405        2.08649483280270
H            3.55165748084407        1.69825867614837        0.32803533048694
H            3.34726564202722        4.13425983528085        0.13188067041792
H            5.30530590777626        5.49673885199041       -0.53673243548369
H            7.47623688368739        4.36961096693548       -0.97330795216855
H           10.14232061678711        0.65985444505470       -1.20484090858936
H           10.51857858817698       -1.79328665946386       -1.07344651311818
H            8.61270534567304       -3.28266528295926       -0.53493197700894
H            6.39429473466375       -2.33842437080525       -0.10992408987039
H            3.61477677775305       -0.15124130021924       -1.63963417622518
H            1.66414710748680       -1.54462243659433       -1.05619305928346

          :  Hamiltonian                  GFN2-xTB          :
         :: gradient norm              0.000127212767 Eh/a0 ::
         :: HOMO-LUMO gap              1.351120661328 eV    ::
         :: SCC energy              -120.925064570841 Eh    ::
         :: -> dispersion             -0.095108847925 Eh    ::
         :: -> Gsolv                  -0.054317059542 Eh    ::
         :: repulsion energy           1.975699429408 Eh    ::

    * Orbital Energies and Occupations

         #    Occupation            Energy/Eh            Energy/eV
      -------------------------------------------------------------
         1        2.0000           -0.7354719             -20.0132
       ...           ...                  ...                  ...
        96        2.0000           -0.4254560             -11.5772
        97        2.0000           -0.4187628             -11.3951
        98        2.0000           -0.4181512             -11.3785
        99        2.0000           -0.4158676             -11.3163
       100        2.0000           -0.4152745             -11.3002
       101        2.0000           -0.4133358             -11.2474
       102        2.0000           -0.4120786             -11.2132
       103        2.0000           -0.4008869             -10.9087
       104        2.0000           -0.3934718             -10.7069
       105        2.0000           -0.3917329             -10.6596
       106        2.0000           -0.3901261             -10.6159
       107        2.0000           -0.3473995              -9.4532
       108        2.0000           -0.3427616              -9.3270 (HOMO)
       109                         -0.2931088              -7.9759 (LUMO)
       110                         -0.2551170              -6.9421
       111                         -0.2472832              -6.7289
       112                         -0.2414921              -6.5713
       113                         -0.2383554              -6.4860
       114                         -0.2366485              -6.4395
       115                         -0.2329142              -6.3379
       116                         -0.2292064              -6.2370
       117                         -0.2272077              -6.1826
       118                         -0.2173284              -5.9138
       119                         -0.2134218              -5.8075
       ...                                ...                  ...
       206                          0.6746780              18.3589
      -------------------------------------------------------------
                  HL-Gap            0.0496528 Eh            1.3511 eV

     #   Z          covCN         q      C6AA      α(0)
     1   8 O        0.858    -0.443    22.561     6.368
     2   6 C        2.824     0.234    23.112     7.877
     3   6 C        2.898    -0.106    30.666     9.080
     4   6 C        2.825     0.158    24.568     8.122
     5   8 O        1.660    -0.376    20.391     6.096
     6   6 C        2.974    -0.010    28.256     8.719
     7   6 C        2.921    -0.028    28.696     8.785
     8   6 C        2.920    -0.036    28.901     8.816
     9   6 C        2.920     0.069    26.448     8.433
    10   7 N        2.751    -0.069    22.587     7.059
    11   6 C        2.921     0.042    27.069     8.532
    12   6 C        2.924    -0.061    29.520     8.910
    13   6 C        2.919    -0.039    28.972     8.827
    14   6 C        2.919    -0.041    29.008     8.832
    15   6 C        2.919    -0.058    29.431     8.896
    16   6 C        2.882     0.123    25.301     8.246
    17   8 O        1.708    -0.272    18.512     5.809
    18   6 C        2.882     0.123    25.303     8.247
    19   6 C        2.919    -0.058    29.432     8.896
    20   6 C        2.919    -0.040    29.005     8.832
    21   6 C        2.919    -0.039    28.966     8.826
    22   6 C        2.924    -0.061    29.511     8.909
    23   6 C        2.921     0.042    27.070     8.532
    24   6 C        2.919    -0.039    28.961     8.825
    25   6 C        2.923    -0.032    28.808     8.802
    26   6 C        2.973    -0.005    28.154     8.704
    27   6 C        2.923    -0.018    28.460     8.749
    28   6 C        2.920    -0.038    28.951     8.823
    29   6 C        2.921     0.069    26.450     8.434
    30   7 N        2.751    -0.074    22.669     7.071
    31   6 C        2.922     0.043    27.038     8.527
    32   6 C        2.923    -0.062    29.547     8.914
    33   6 C        2.919    -0.040    28.987     8.829
    34   6 C        2.919    -0.042    29.049     8.838
    35   6 C        2.919    -0.059    29.455     8.900
    36   6 C        2.881     0.122    25.321     8.249
    37   8 O        1.708    -0.275    18.554     5.816
    38   6 C        2.882     0.122    25.326     8.250
    39   6 C        2.919    -0.059    29.455     8.900
    40   6 C        2.919    -0.042    29.042     8.837
    41   6 C        2.919    -0.039    28.973     8.827
    42   6 C        2.923    -0.061    29.518     8.910
    43   6 C        2.922     0.043    27.036     8.527
    44   6 C        2.921    -0.038    28.955     8.824
    45   6 C        2.922    -0.021    28.522     8.758
    46   1 H        0.926     0.064     2.150     2.293
    47   1 H        0.805     0.333     0.629     1.246
    48   1 H        0.926     0.055     2.264     2.353
    49   1 H        0.926     0.053     2.279     2.361
    50   1 H        0.926     0.042     2.427     2.436
    51   1 H        0.926     0.042     2.419     2.432
    52   1 H        0.926     0.042     2.424     2.435
    53   1 H        0.926     0.047     2.354     2.399
    54   1 H        0.926     0.048     2.351     2.398
    55   1 H        0.926     0.042     2.424     2.434
    56   1 H        0.926     0.042     2.426     2.436
    57   1 H        0.926     0.041     2.429     2.437
    58   1 H        0.926     0.054     2.269     2.356
    59   1 H        0.925     0.056     2.250     2.346
    60   1 H        0.926     0.047     2.361     2.403
    61   1 H        0.926     0.049     2.337     2.390
    62   1 H        0.926     0.042     2.418     2.432
    63   1 H        0.926     0.042     2.425     2.435
    64   1 H        0.926     0.041     2.437     2.441
    65   1 H        0.926     0.046     2.372     2.409
    66   1 H        0.926     0.047     2.362     2.403
    67   1 H        0.926     0.041     2.438     2.442
    68   1 H        0.926     0.040     2.451     2.448
    69   1 H        0.926     0.038     2.480     2.462
    70   1 H        0.926     0.051     2.307     2.375
    71   1 H        0.926     0.048     2.344     2.394

molecular dipole:
                 x           y           z       tot (Debye)
 q only:       -1.414       1.615      -0.319
   full:       -1.600       1.732      -0.334       6.052

 projected vibrational frequencies (cm⁻¹)
eigval :       -0.00    -0.00    -0.00     0.00     0.00     0.00
eigval :        5.09    10.08    11.22    22.46    23.82    33.56
eigval :       36.81    42.79    46.54    53.52    59.64    79.43
eigval :       91.36   113.56   115.08   117.48   132.43   146.70
eigval :      169.03   178.01   185.38   202.15   221.45   245.86
eigval :      251.56   252.33   270.44   273.94   275.49   284.37
eigval :      296.26   350.67   372.22   376.56   378.95   379.47
eigval :      382.34   395.80   398.03   416.64   421.79   427.46
eigval :      430.28   441.66   444.80   449.26   451.13   461.86
eigval :      499.38   508.56   511.50   516.45   521.27   523.16
eigval :      545.72   548.13   574.67   586.02   586.53   594.32
eigval :      602.69   605.29   621.36   627.88   646.84   657.69
eigval :      659.24   660.20   661.95   668.17   674.33   690.92
eigval :      699.72   722.33   751.33   777.65   778.63   778.72
eigval :      779.03   791.64   801.35   811.21   820.19   831.09
eigval :      839.29   852.12   852.93   863.00   864.23   864.90
eigval :      865.65   872.74   876.97   895.71   897.50   897.62
eigval :      898.89   912.40   914.10   914.29   915.85   916.04
eigval :      916.27   917.28   920.03   921.46   927.12   927.93
eigval :      936.11  1003.22  1013.02  1046.78  1088.69  1089.54
eigval :     1090.89  1090.94  1104.58  1106.02  1115.80  1118.07
eigval :     1126.22  1131.53  1139.48  1167.94  1168.53  1172.78
eigval :     1174.08  1175.33  1178.88  1183.60  1185.75  1193.45
eigval :     1195.89  1198.33  1216.81  1221.09  1241.05  1241.14
eigval :     1247.02  1258.59  1259.36  1259.86  1261.43  1269.29
eigval :     1303.88  1304.80  1306.40  1309.30  1311.52  1312.57
eigval :     1325.08  1332.66  1334.68  1353.10  1353.89  1399.35
eigval :     1401.94  1421.99  1422.28  1440.88  1441.04  1474.47
eigval :     1475.90  1479.62  1481.41  1502.31  1503.98  1550.81
eigval :     1560.00  1565.87  1566.16  1572.70  1579.07  1579.10
eigval :     1581.12  1587.81  1588.75  1599.91  1602.11  1602.61
eigval :     1636.24  3065.90  3080.61  3082.17  3085.45  3086.54
eigval :     3087.60  3088.22  3090.70  3090.96  3093.55  3094.68
eigval :     3094.80  3095.42  3096.13  3096.21  3100.39  3103.11
eigval :     3104.53  3104.59  3104.62  3105.34  3108.36  3109.20
eigval :     3109.72  3110.07  3443.24

   temp. (K)  partition function   enthalpy   heat capacity  entropy
                                   cal/mol     cal/K/mol   cal/K/mol   J/K/mol
 298.15  VIB  0.280E+18            21076.328    131.862    132.083
         ROT  0.970E+08              888.752      2.981     39.528
         INT  0.272E+26            21965.081    134.843    171.611
         TR   0.137E+29             1481.254      4.968     44.971
         TOT                       23446.3345   139.8110   216.5823   906.1804

       T/K    H(0)-H(T)+PV         H(T)/Eh          T*S/Eh         G(T)/Eh
   ------------------------------------------------------------------------
    298.15    0.373641E-01    0.568120E+00    0.102905E+00    0.465215E+00
   ------------------------------------------------------------------------

         :::::::::::::::::::::::::::::::::::::::::::::::::::::
         ::                  THERMODYNAMIC                  ::
         :::::::::::::::::::::::::::::::::::::::::::::::::::::
         :: total free energy        -118.484150594900 Eh   ::
         ::.................................................::
         :: total energy             -118.949365134741 Eh   ::
         :: zero point energy           0.530755672479 Eh   ::
         :: G(RRHO) w/o ZPVE           -0.065541132638 Eh   ::
         :: G(RRHO) contrib.            0.465214539841 Eh   ::
         :::::::::::::::::::::::::::::::::::::::::::::::::::::

           -------------------------------------------------
          | TOTAL ENERGY             -118.949365134741 Eh   |
          | TOTAL ENTHALPY           -118.381245349927 Eh   |
          | TOTAL FREE ENERGY        -118.484150594900 Eh   |
          | GRADIENT NORM               0.000127097137 Eh/α |
          | HOMO-LUMO GAP               1.351121764374 eV   |
           -------------------------------------------------

 * finished run on 2025/09/14 at 06:19:12.645
