   * xtb version 6.7.1 (edcfbbe) compiled by 'albert@albert-system' on 2024-07-22

   ID    Z sym.   atoms
    1    8 O      1, 5, 17, 37
    2    6 C      2-4, 6-9, 11-16, 18-29, 31-36, 38-45
    3    7 N      10, 30
    4    1 H      46-71

          program call               : xtb data2507/toluene/PXZPDO/PXZPDO_toluene_S0_finalOpt.xtbopt.xyz --gfn 2 --uhf 2 --gbsa toluene --ohess vtight --parallel 40 --molden --ceasefiles --namespace data2507/toluene/PXZPDO/PXZPDO_toluene_T1_preOpt
      * Solvation model:               GBSA
        Solvent                        toluene
        Solvent mass                       9.2140E+01 g/mol
          :  Hamiltonian                  GFN2-xTB          :
 * total energy  :  -118.8725940 Eh     change       -0.1752886E-07 Eh
 * total energy  :  -118.8776426 Eh     change       -0.5048562E-02 Eh
 * total energy  :  -118.8798734 Eh     change       -0.2230793E-02 Eh
 * total energy  :  -118.8803915 Eh     change       -0.5181718E-03 Eh
 * total energy  :  -118.8809218 Eh     change       -0.5302260E-03 Eh
 * total energy  :  -118.8811893 Eh     change       -0.2675792E-03 Eh
 * total energy  :  -118.8813368 Eh     change       -0.1474807E-03 Eh
 * total energy  :  -118.8814229 Eh     change       -0.8606914E-04 Eh
 * total energy  :  -118.8814936 Eh     change       -0.7072265E-04 Eh
 * total energy  :  -118.8815622 Eh     change       -0.6858259E-04 Eh
 * total energy  :  -118.8820166 Eh     change       -0.4388171E-06 Eh
 * total energy  :  -118.8820170 Eh     change       -0.4198912E-06 Eh
 * total energy  :  -118.8820174 Eh     change       -0.3600711E-06 Eh
 * total energy  :  -118.8820177 Eh     change       -0.3388329E-06 Eh
 * total energy  :  -118.8820181 Eh     change       -0.3617946E-06 Eh
 * total energy  :  -118.8820185 Eh     change       -0.3569394E-06 Eh
 * total energy  :  -118.8820188 Eh     change       -0.3233418E-06 Eh
 * total energy  :  -118.8820191 Eh     change       -0.3094899E-06 Eh
 * total energy  :  -118.8820191 Eh     change       -0.4372964E-09 Eh
   *** GEOMETRY OPTIMIZATION CONVERGED AFTER 68 ITERATIONS ***

 final structure:
================
71
 xtb: 6.7.1 (edcfbbe)
O            1.53576279793586       -3.84594733656868        2.16038988369555
C            1.30272495724268       -2.76776535571985        1.54152598245966
C           -0.02214675661300       -2.35296291534909        1.27614967970132
C           -0.48505392948353       -1.09256872458779        0.89488918610923
O            0.44313056206906       -0.08037444672960        0.75860611497644
C           -1.85328316468998       -0.80143635943514        0.63357925588044
C           -2.91059476964806       -1.66704524269254        1.02518331147715
C           -4.22134433253842       -1.36194215061990        0.78181704058036
C           -4.57155407756402       -0.17163197989064        0.12847120023210
N           -5.92654903128332        0.14192726130542       -0.12185196272491
C           -6.50910667129977        1.25984985232715        0.45824705934699
C           -5.81543871651284        2.08582253912137        1.34311933364814
C           -6.42514617018438        3.19666123178118        1.89554756376355
C           -7.74074497812655        3.50462893311033        1.58674016580704
C           -8.45760302456911        2.67917079026431        0.73704160123116
C           -7.85487435573733        1.56195817306548        0.18144581692629
O           -8.62665438425555        0.76987167530624       -0.62145993156945
C           -8.04659403107612       -0.33913167868309       -1.17073825808686
C           -8.84082655430186       -1.13229162109791       -1.98316292758011
C           -8.30560921363896       -2.25181544100385       -2.59757224342452
C           -6.96769839131301       -2.56325436609856       -2.41294565740457
C           -6.16861697244402       -1.77802045057077       -1.60310233575297
C           -6.69630253243432       -0.66509849772224       -0.94783264106636
C           -3.55352178161907        0.69652617176397       -0.28066416309795
C           -2.24020843666028        0.39266162057359       -0.03905267405744
C            2.45613762839825       -1.95248635768097        1.09030007776743
C            3.53963790332110       -1.76121580922175        1.94787389232763
C            4.64373162033707       -1.04033236281402        1.54354210195318
C            4.68730314383594       -0.51506616770679        0.25596847095552
N            5.81160925483654        0.25102273241037       -0.16163987209356
C            5.71209770631064        1.62910811980433       -0.26594253506373
C            4.53383134986594        2.31087088922097        0.03268975320559
C            4.47368677045128        3.68827619409788       -0.07850839150942
C            5.58444928893710        4.41113752229563       -0.48347553536140
C            6.76772919825219        3.75172632658327       -0.77280658233144
C            6.83770946726054        2.37251356426721       -0.66412092006235
O            8.03655833572715        1.77821832623924       -0.94927744832600
C            8.11913254637772        0.41740202547394       -0.83433247537308
C            9.33736314644218       -0.17413785790541       -1.12479175752754
C            9.47847693697693       -1.54951362924974       -1.03906768054954
C            8.39608432536772       -2.33210632908727       -0.66960892213630
C            7.17610813610429       -1.75003139634543       -0.37655285343624
C            7.01829150912063       -0.36708433297061       -0.44490220715011
C            3.63336479415426       -0.73593743118188       -0.62489011693734
C            2.53038454902807       -1.45345061073719       -0.21140045336609
H           -0.76261975478370       -3.10633132872565        1.50025558618797
H           -0.02527910315767        0.76364932206005        0.71000767183869
H           -2.68099225002227       -2.57485831874356        1.55856680265835
H           -5.00326461808892       -2.02951567286608        1.11473962515391
H           -4.79730249300178        1.84282760533840        1.60067950595163
H           -5.86733888091336        3.82162728050283        2.57532460677841
H           -8.21372510194251        4.37425441853072        2.01420781111532
H           -9.48930952099296        2.87726822921078        0.49401810441362
H           -9.87199610450831       -0.84947738884180       -2.12292477202668
H           -8.92884195988836       -2.86748116623020       -3.22627615331975
H           -6.53746450497599       -3.42171116774800       -2.90468029611549
H           -5.12536041633748       -2.01846113835571       -1.47669365184569
H           -3.81174979921003        1.59971362346711       -0.81525897213529
H           -1.48777077029721        1.06463050532385       -0.42944075179734
H            3.49129455087357       -2.18081745517714        2.94251924786877
H            5.47104647657680       -0.87542377630136        2.21864938467772
H            3.67081227262278        1.75046886918054        0.35503286642701
H            3.55196921522127        4.19707591693851        0.15676230900658
H            5.53607719006315        5.48490388468100       -0.57012566063053
H            7.65135438640012        4.28685405659859       -1.08189586561259
H           10.15850434436498        0.46055781081079       -1.41740345236751
H           10.42944132136680       -2.00460644420516       -1.26561910056863
H            8.49680613812847       -3.40452284045955       -0.60907257067718
H            6.33376495513586       -2.36179591682627       -0.09472904939747
H            3.68946744054411       -0.34648585111147       -1.63130367280453
H            1.72045026316267       -1.64202358933711       -0.89933796944511

          :  Hamiltonian                  GFN2-xTB          :
         :: gradient norm              0.000042618399 Eh/a0 ::
         :: HOMO-LUMO gap              0.615893613903 eV    ::
         :: SCC energy              -120.841396096310 Eh    ::
         :: -> dispersion             -0.095033198192 Eh    ::
         :: -> Gsolv                  -0.064395154133 Eh    ::
         :: repulsion energy           1.959377006595 Eh    ::

    * Orbital Energies and Occupations

         #    Occupation            Energy/Eh            Energy/eV
      -------------------------------------------------------------
         1        2.0000           -0.7516986             -20.4548
       ...           ...                  ...                  ...
        97        2.0000           -0.4257887             -11.5863
        98        2.0000           -0.4221053             -11.4861
        99        2.0000           -0.4129456             -11.2368
       100        2.0000           -0.4098599             -11.1529
       101        2.0000           -0.4091270             -11.1329
       102        2.0000           -0.4050523             -11.0220
       103        2.0000           -0.4047279             -11.0132
       104        2.0000           -0.3993532             -10.8670
       105        2.0000           -0.3674682              -9.9993
       106        1.9787           -0.3593152              -9.7775
       107        1.6189           -0.3561374              -9.6910
       108        1.4024           -0.3553009              -9.6682
       109        1.0000           -0.2786398              -7.5822 (HOMO)
       110        0.0000           -0.2560063              -6.9663 (LUMO)
       111        0.0000           -0.2539500              -6.9103
       112                         -0.2442059              -6.6452
       113                         -0.2423040              -6.5934
       114                         -0.2404212              -6.5422
       115                         -0.2299845              -6.2582
       116                         -0.2271856              -6.1820
       117                         -0.2266424              -6.1673
       118                         -0.2235514              -6.0831
       119                         -0.2127921              -5.7904
       120                         -0.2094303              -5.6989
       ...                                ...                  ...
       206                          0.6755132              18.3817
      -------------------------------------------------------------
                  HL-Gap            0.0226335 Eh            0.6159 eV

     #   Z          covCN         q      C6AA      α(0)
     1   8 O        0.858    -0.551    24.937     6.695
     2   6 C        2.823     0.185    24.035     8.033
     3   6 C        2.897    -0.105    30.640     9.076
     4   6 C        2.824     0.108    25.598     8.290
     5   8 O        1.658    -0.430    21.445     6.251
     6   6 C        2.964    -0.023    28.572     8.768
     7   6 C        2.919    -0.044    29.091     8.845
     8   6 C        2.913    -0.041    29.021     8.834
     9   6 C        2.921     0.029    27.349     8.576
    10   7 N        2.751    -0.024    21.710     6.920
    11   6 C        2.925     0.045    26.983     8.519
    12   6 C        2.921    -0.051    29.272     8.872
    13   6 C        2.918    -0.031    28.780     8.797
    14   6 C        2.919    -0.031    28.774     8.796
    15   6 C        2.917    -0.053    29.312     8.878
    16   6 C        2.885     0.129    25.165     8.224
    17   8 O        1.709    -0.234    17.881     5.709
    18   6 C        2.885     0.129    25.167     8.225
    19   6 C        2.917    -0.053    29.313     8.878
    20   6 C        2.919    -0.031    28.769     8.796
    21   6 C        2.918    -0.031    28.774     8.796
    22   6 C        2.921    -0.051    29.263     8.871
    23   6 C        2.925     0.045    26.981     8.518
    24   6 C        2.913    -0.042    29.055     8.839
    25   6 C        2.920    -0.050    29.245     8.868
    26   6 C        2.971     0.001    28.005     8.680
    27   6 C        2.925    -0.024    28.594     8.769
    28   6 C        2.918    -0.041    29.014     8.833
    29   6 C        2.924     0.050    26.886     8.503
    30   7 N        2.753    -0.033    21.875     6.946
    31   6 C        2.926     0.047    26.950     8.513
    32   6 C        2.921    -0.052    29.290     8.875
    33   6 C        2.918    -0.031    28.773     8.796
    34   6 C        2.919    -0.032    28.794     8.800
    35   6 C        2.917    -0.053    29.312     8.878
    36   6 C        2.884     0.129    25.175     8.226
    37   8 O        1.709    -0.235    17.896     5.712
    38   6 C        2.884     0.129    25.177     8.226
    39   6 C        2.917    -0.053    29.310     8.878
    40   6 C        2.919    -0.032    28.786     8.798
    41   6 C        2.918    -0.031    28.763     8.795
    42   6 C        2.921    -0.051    29.271     8.872
    43   6 C        2.925     0.047    26.950     8.513
    44   6 C        2.919    -0.039    28.977     8.827
    45   6 C        2.922    -0.022    28.556     8.763
    46   1 H        0.926     0.027     2.623     2.533
    47   1 H        0.805     0.309     0.694     1.308
    48   1 H        0.926     0.028     2.621     2.532
    49   1 H        0.926     0.033     2.539     2.492
    50   1 H        0.926     0.055     2.258     2.350
    51   1 H        0.926     0.054     2.266     2.354
    52   1 H        0.926     0.056     2.242     2.341
    53   1 H        0.926     0.062     2.177     2.307
    54   1 H        0.926     0.062     2.174     2.306
    55   1 H        0.926     0.056     2.243     2.342
    56   1 H        0.926     0.054     2.274     2.358
    57   1 H        0.926     0.055     2.261     2.351
    58   1 H        0.926     0.035     2.516     2.480
    59   1 H        0.925     0.030     2.585     2.514
    60   1 H        0.926     0.036     2.500     2.473
    61   1 H        0.926     0.042     2.426     2.436
    62   1 H        0.926     0.053     2.277     2.360
    63   1 H        0.926     0.054     2.268     2.355
    64   1 H        0.926     0.057     2.239     2.340
    65   1 H        0.926     0.062     2.172     2.305
    66   1 H        0.926     0.063     2.166     2.302
    67   1 H        0.926     0.057     2.239     2.340
    68   1 H        0.926     0.053     2.278     2.360
    69   1 H        0.926     0.050     2.324     2.384
    70   1 H        0.926     0.044     2.392     2.419
    71   1 H        0.926     0.041     2.440     2.443

molecular dipole:
                 x           y           z       tot (Debye)
 q only:       -1.152       3.975      -2.177
   full:       -1.372       4.041      -2.159      12.157

 projected vibrational frequencies (cm⁻¹)
eigval :       -0.00    -0.00    -0.00     0.00     0.00     0.00
eigval :        8.18     9.02    14.86    21.52    27.28    38.56
eigval :       40.64    43.72    60.58    62.94    64.26    83.99
eigval :       97.17   112.93   116.05   122.11   145.19   155.03
eigval :      161.97   171.10   191.08   206.77   223.02   245.95
eigval :      247.60   256.90   265.56   276.76   279.83   287.61
eigval :      310.85   330.40   356.44   367.85   375.39   380.78
eigval :      387.79   392.33   396.23   400.37   413.59   419.93
eigval :      433.32   434.91   443.09   448.10   460.44   465.05
eigval :      477.84   498.62   501.34   508.09   523.44   528.44
eigval :      529.37   540.94   548.38   569.11   583.23   584.35
eigval :      587.73   597.83   607.32   613.77   623.71   640.94
eigval :      656.62   667.34   667.94   671.57   672.17   673.49
eigval :      686.59   703.00   745.93   764.16   775.44   778.33
eigval :      778.94   780.79   783.29   791.95   803.66   813.13
eigval :      823.40   825.93   854.76   855.22   863.93   867.76
eigval :      869.12   870.61   872.20   895.55   900.89   903.72
eigval :      903.90   904.96   905.10   909.62   910.41   912.82
eigval :      915.39   916.54   917.39   919.78   919.98   920.07
eigval :      923.02   985.04  1002.15  1012.23  1081.91  1083.72
eigval :     1084.83  1085.06  1111.49  1112.12  1116.54  1119.05
eigval :     1125.67  1127.86  1146.19  1159.41  1164.90  1168.56
eigval :     1170.49  1171.14  1175.67  1180.95  1187.08  1197.63
eigval :     1204.79  1207.37  1216.41  1228.61  1235.86  1236.48
eigval :     1251.96  1253.12  1258.84  1261.01  1270.23  1288.26
eigval :     1302.01  1302.57  1309.81  1311.28  1314.87  1315.81
eigval :     1321.62  1329.14  1337.41  1342.98  1349.12  1383.58
eigval :     1399.67  1413.18  1417.00  1426.68  1437.56  1438.23
eigval :     1438.67  1441.85  1455.53  1462.96  1465.87  1466.04
eigval :     1476.80  1495.40  1539.77  1551.92  1555.44  1559.28
eigval :     1562.85  1562.96  1566.80  1572.03  1581.19  1582.60
eigval :     1587.47  3051.51  3072.62  3073.83  3075.37  3075.46
eigval :     3084.98  3087.31  3091.56  3094.42  3095.14  3095.71
eigval :     3095.88  3102.37  3102.67  3103.14  3104.22  3107.14
eigval :     3109.63  3111.27  3112.13  3113.00  3114.01  3114.64
eigval :     3115.53  3116.23  3479.06

   temp. (K)  partition function   enthalpy   heat capacity  entropy
                                   cal/mol     cal/K/mol   cal/K/mol   J/K/mol
 298.15  VIB  0.650E+17            21145.600    133.768    131.472
         ROT  0.982E+08              888.752      2.981     39.550
         INT  0.638E+25            22034.352    136.749    171.023
         TR   0.137E+29             1481.254      4.968     44.971
         TOT                       23515.6063   141.7168   215.9941   903.7193

       T/K    H(0)-H(T)+PV         H(T)/Eh          T*S/Eh         G(T)/Eh
   ------------------------------------------------------------------------
    298.15    0.374745E-01    0.565498E+00    0.102626E+00    0.462872E+00
   ------------------------------------------------------------------------

         :::::::::::::::::::::::::::::::::::::::::::::::::::::
         ::                  THERMODYNAMIC                  ::
         :::::::::::::::::::::::::::::::::::::::::::::::::::::
         :: total free energy        -118.419147279932 Eh   ::
         ::.................................................::
         :: total energy             -118.882019090814 Eh   ::
         :: zero point energy           0.528023068082 Eh   ::
         :: G(RRHO) w/o ZPVE           -0.065151257199 Eh   ::
         :: G(RRHO) contrib.            0.462871810882 Eh   ::
         :::::::::::::::::::::::::::::::::::::::::::::::::::::

           -------------------------------------------------
          | TOTAL ENERGY             -118.882019090814 Eh   |
          | TOTAL ENTHALPY           -118.316521518778 Eh   |
          | TOTAL FREE ENERGY        -118.419147279932 Eh   |
          | GRADIENT NORM               0.000042420047 Eh/α |
          | HOMO-LUMO GAP               0.615889120120 eV   |
           -------------------------------------------------

 * finished run on 2025/09/14 at 06:19:21.229
