   * xtb version 6.7.1 (edcfbbe) compiled by 'albert@albert-system' on 2024-07-22

   ID    Z sym.   atoms
    1    8 O      1, 5, 17, 37
    2    6 C      2-4, 6-9, 11-16, 18-29, 31-36, 38-45
    3    7 N      10, 30
    4    1 H      46-71

          program call               : xtb data2507/toluene/PXZPDO/PXZPDO.xyz --gfn 2 --gbsa toluene --ohess vtight --parallel 40 --molden --ceasefiles --namespace data2507/toluene/PXZPDO/PXZPDO_toluene_S0_preOpt
      * Solvation model:               GBSA
        Solvent                        toluene
        Solvent mass                       9.2140E+01 g/mol
          :  Hamiltonian                  GFN2-xTB          :
 * total energy  :  -118.9296305 Eh     change       -0.9979999E-09 Eh
 * total energy  :  -118.9398519 Eh     change       -0.1022145E-01 Eh
 * total energy  :  -118.9431490 Eh     change       -0.3297025E-02 Eh
 * total energy  :  -118.9440403 Eh     change       -0.8913503E-03 Eh
 * total energy  :  -118.9447274 Eh     change       -0.6871422E-03 Eh
 * total energy  :  -118.9450931 Eh     change       -0.3656534E-03 Eh
 * total energy  :  -118.9453651 Eh     change       -0.2720077E-03 Eh
 * total energy  :  -118.9456382 Eh     change       -0.2730618E-03 Eh
 * total energy  :  -118.9459428 Eh     change       -0.3046805E-03 Eh
 * total energy  :  -118.9462871 Eh     change       -0.3442102E-03 Eh
 * total energy  :  -118.9496124 Eh     change       -0.2934171E-06 Eh
 * total energy  :  -118.9496127 Eh     change       -0.3040220E-06 Eh
 * total energy  :  -118.9496129 Eh     change       -0.2343276E-06 Eh
 * total energy  :  -118.9496131 Eh     change       -0.1959036E-06 Eh
 * total energy  :  -118.9496134 Eh     change       -0.2185199E-06 Eh
 * total energy  :  -118.9496136 Eh     change       -0.2404523E-06 Eh
 * total energy  :  -118.9496138 Eh     change       -0.1796761E-06 Eh
 * total energy  :  -118.9496139 Eh     change       -0.1119046E-06 Eh
 * total energy  :  -118.9496140 Eh     change       -0.8270926E-07 Eh
   *** GEOMETRY OPTIMIZATION CONVERGED AFTER 168 ITERATIONS ***

 final structure:
================
71
 xtb: 6.7.1 (edcfbbe)
O            1.39417252539230       -4.50169265039113        0.16387351463797
C            1.24002547394851       -3.28608081264331        0.08623257045120
C           -0.08586742179445       -2.70031034503935       -0.01942505896960
C           -0.44799186071155       -1.44276490447937        0.33134102318852
O            0.44041300388311       -0.57120665585142        0.84529386317779
C           -1.84607009440822       -0.99968301069267        0.21785681727681
C           -2.38898223961328       -0.12460709981508        1.16226839377308
C           -3.70137388701413        0.29130077288954        1.06704426040191
C           -4.50073737855139       -0.14612359550910        0.01357275522189
N           -5.84095657170401        0.27819486156259       -0.08392551469895
C           -6.14748230676978        1.63295685683794       -0.24431246709356
C           -5.16470253696937        2.60135222797309       -0.41118789151695
C           -5.50117365070490        3.93714917144021       -0.57108229131751
C           -6.82524661734168        4.32723272974375       -0.57932096196614
C           -7.81994453740584        3.36881412622330       -0.44870986843020
C           -7.48874926882640        2.03552351168905       -0.29093266630804
O           -8.53079500475480        1.14243857722842       -0.20119751015638
C           -8.21258075540199       -0.18905955580236       -0.06538388172332
C           -9.26943280599373       -1.07655618496883        0.02167564199186
C           -9.03339184468892       -2.43266998348303        0.19451592051891
C           -7.73409208873314       -2.88789274196268        0.29474260391446
C           -6.67109713229088       -2.00163730857721        0.20635961820765
C           -6.88891812811451       -0.64421324678702        0.00297444496694
C           -3.96174543322525       -1.00889609229851       -0.93993210404068
C           -2.65337612008539       -1.43267884450314       -0.83575194382507
C            2.41735245847256       -2.37562410920345        0.07511615252213
C            3.45227804306681       -2.58231858615032        0.98190732663300
C            4.56825221616891       -1.76854184715560        0.97076089067505
C            4.67701029948221       -0.75318623485400        0.02575702861490
N            5.81572128499371        0.08572063341896        0.00745434257392
C            5.69522500248226        1.44393224058680        0.30605072613970
C            4.48502604201563        2.01605414645022        0.67925398308790
C            4.39935923560024        3.36920987264945        0.97155434607965
C            5.52133102554525        4.17042402408316        0.90669047090982
C            6.74297889725559        3.60901659214829        0.56183275444206
C            6.83348137870974        2.26079426807660        0.27034854880181
O            8.08298775074053        1.77208893088652       -0.03790715627515
C            8.18475382776958        0.42763111316469       -0.31657308267626
C            9.44298887871858       -0.05270391064147       -0.62721575698657
C            9.62284360768927       -1.39196412813734       -0.94427940692716
C            8.53257285178892       -2.23814041103527       -0.96204596454806
C            7.26816678534025       -1.76086388627128       -0.65009179329655
C            7.07492211987167       -0.42850190337359       -0.30583674135764
C            3.65927960001387       -0.56507449388254       -0.90593246334082
C            2.53622646103597       -1.36672387881507       -0.87736858386064
H           -0.86285233601620       -3.39679220200644       -0.29533154767546
H            0.01375024641435        0.28264063769485        1.01297623822893
H           -1.80193047774247        0.19760183675308        2.01154188319217
H           -4.11834616880305        0.95053250739743        1.81351854695641
H           -4.12684990819938        2.30890359685986       -0.42460249692447
H           -4.71622680689747        4.66771155256352       -0.69289704667420
H           -7.09405333622775        5.36507496575934       -0.69795463421085
H           -8.86499719088870        3.63557014152571       -0.47141265937777
H          -10.27211257700874       -0.68358209160389       -0.04135323927749
H           -9.86422413273091       -3.11743821172802        0.25902353446864
H           -7.53327933389252       -3.93711059386524        0.44815925177779
H           -5.66298921060925       -2.37161031672660        0.30517779325365
H           -4.57528161793068       -1.33625821633934       -1.76577956341333
H           -2.23988641456168       -2.08236990886986       -1.59093378989391
H            3.36265710091188       -3.37806271465477        1.70692342077084
H            5.36068901304241       -1.91635076792478        1.68960425533794
H            3.60600768342069        1.39518551187673        0.74729559453461
H            3.44619628760237        3.78863075355327        1.25483221095369
H            5.46083462555977        5.22405072677551        1.12994090834958
H            7.64276918432325        4.20265488716880        0.51807765499331
H           10.27025554342793        0.63975411964998       -0.61925639692740
H           10.60902101840600       -1.75813984858969       -1.18291381043730
H            8.65306279410917       -3.27882170818562       -1.22173967745598
H            6.42213665492722       -2.42938495927499       -0.68094019750756
H            3.75831463100594        0.21213128661348       -1.64942632007217
H            1.75467364344045       -1.22464121911989       -1.60859680179335

          :  Hamiltonian                  GFN2-xTB          :
         :: gradient norm              0.000040035729 Eh/a0 ::
         :: HOMO-LUMO gap              1.314202750126 eV    ::
         :: SCC energy              -120.925136041365 Eh    ::
         :: -> dispersion             -0.095024470236 Eh    ::
         :: -> Gsolv                  -0.054630119807 Eh    ::
         :: repulsion energy           1.975522062285 Eh    ::

    * Orbital Energies and Occupations

         #    Occupation            Energy/Eh            Energy/eV
      -------------------------------------------------------------
         1        2.0000           -0.7361818             -20.0325
       ...           ...                  ...                  ...
        96        2.0000           -0.4256540             -11.5826
        97        2.0000           -0.4188605             -11.3978
        98        2.0000           -0.4177937             -11.3687
        99        2.0000           -0.4159837             -11.3195
       100        2.0000           -0.4152273             -11.2989
       101        2.0000           -0.4129342             -11.2365
       102        2.0000           -0.4119755             -11.2104
       103        2.0000           -0.4008541             -10.9078
       104        2.0000           -0.3934447             -10.7062
       105        2.0000           -0.3914467             -10.6518
       106        2.0000           -0.3900131             -10.6128
       107        2.0000           -0.3475773              -9.4581
       108        2.0000           -0.3426833              -9.3249 (HOMO)
       109                         -0.2943873              -8.0107 (LUMO)
       110                         -0.2540204              -6.9122
       111                         -0.2475952              -6.7374
       112                         -0.2415926              -6.5741
       113                         -0.2382165              -6.4822
       114                         -0.2364055              -6.4329
       115                         -0.2330145              -6.3406
       116                         -0.2291287              -6.2349
       117                         -0.2269044              -6.1744
       118                         -0.2172529              -5.9118
       119                         -0.2132287              -5.8022
       ...                                ...                  ...
       206                          0.6747108              18.3598
      -------------------------------------------------------------
                  HL-Gap            0.0482961 Eh            1.3142 eV

     #   Z          covCN         q      C6AA      α(0)
     1   8 O        0.858    -0.445    22.592     6.373
     2   6 C        2.823     0.233    23.122     7.879
     3   6 C        2.898    -0.106    30.670     9.080
     4   6 C        2.825     0.159    24.551     8.119
     5   8 O        1.660    -0.375    20.368     6.092
     6   6 C        2.974    -0.010    28.258     8.720
     7   6 C        2.922    -0.032    28.795     8.800
     8   6 C        2.919    -0.038    28.953     8.824
     9   6 C        2.920     0.070    26.439     8.432
    10   7 N        2.751    -0.069    22.583     7.058
    11   6 C        2.921     0.041    27.072     8.532
    12   6 C        2.924    -0.061    29.516     8.909
    13   6 C        2.919    -0.039    28.971     8.827
    14   6 C        2.919    -0.040    29.006     8.832
    15   6 C        2.919    -0.058    29.430     8.896
    16   6 C        2.882     0.123    25.299     8.246
    17   8 O        1.708    -0.272    18.509     5.809
    18   6 C        2.882     0.123    25.302     8.246
    19   6 C        2.920    -0.058    29.430     8.896
    20   6 C        2.919    -0.040    29.003     8.831
    21   6 C        2.919    -0.039    28.964     8.825
    22   6 C        2.924    -0.061    29.513     8.909
    23   6 C        2.921     0.041    27.070     8.532
    24   6 C        2.920    -0.036    28.901     8.816
    25   6 C        2.922    -0.028    28.695     8.784
    26   6 C        2.972    -0.005    28.144     8.702
    27   6 C        2.924    -0.018    28.469     8.750
    28   6 C        2.920    -0.038    28.954     8.824
    29   6 C        2.921     0.069    26.461     8.436
    30   7 N        2.751    -0.073    22.666     7.071
    31   6 C        2.922     0.043    27.039     8.527
    32   6 C        2.923    -0.062    29.548     8.914
    33   6 C        2.919    -0.040    28.988     8.829
    34   6 C        2.919    -0.042    29.049     8.838
    35   6 C        2.919    -0.059    29.455     8.900
    36   6 C        2.882     0.122    25.321     8.250
    37   8 O        1.708    -0.275    18.553     5.816
    38   6 C        2.882     0.122    25.326     8.250
    39   6 C        2.919    -0.059    29.455     8.900
    40   6 C        2.919    -0.042    29.041     8.837
    41   6 C        2.919    -0.039    28.974     8.827
    42   6 C        2.923    -0.061    29.518     8.910
    43   6 C        2.921     0.043    27.037     8.527
    44   6 C        2.921    -0.039    28.963     8.825
    45   6 C        2.922    -0.021    28.540     8.761
    46   1 H        0.926     0.063     2.161     2.299
    47   1 H        0.804     0.334     0.627     1.244
    48   1 H        0.925     0.054     2.265     2.354
    49   1 H        0.926     0.054     2.276     2.359
    50   1 H        0.926     0.042     2.426     2.436
    51   1 H        0.926     0.043     2.415     2.430
    52   1 H        0.926     0.042     2.422     2.434
    53   1 H        0.926     0.047     2.354     2.399
    54   1 H        0.926     0.048     2.349     2.397
    55   1 H        0.926     0.042     2.422     2.434
    56   1 H        0.926     0.042     2.426     2.436
    57   1 H        0.926     0.042     2.428     2.436
    58   1 H        0.926     0.054     2.265     2.354
    59   1 H        0.926     0.056     2.250     2.346
    60   1 H        0.926     0.046     2.376     2.410
    61   1 H        0.926     0.048     2.342     2.393
    62   1 H        0.926     0.042     2.416     2.431
    63   1 H        0.926     0.042     2.425     2.435
    64   1 H        0.926     0.041     2.437     2.441
    65   1 H        0.926     0.046     2.372     2.409
    66   1 H        0.926     0.047     2.362     2.403
    67   1 H        0.926     0.041     2.438     2.442
    68   1 H        0.926     0.040     2.451     2.448
    69   1 H        0.926     0.038     2.477     2.461
    70   1 H        0.926     0.051     2.309     2.376
    71   1 H        0.926     0.048     2.349     2.397

molecular dipole:
                 x           y           z       tot (Debye)
 q only:       -1.408       1.746       0.045
   full:       -1.587       1.867       0.087       6.233

 projected vibrational frequencies (cm⁻¹)
eigval :       -0.00    -0.00    -0.00     0.00     0.00     0.00
eigval :        9.75    11.08    12.69    25.12    29.94    34.06
eigval :       40.71    44.12    50.48    51.57    69.74    78.28
eigval :       88.43   110.26   115.50   119.74   136.52   145.72
eigval :      171.95   177.57   187.97   207.96   216.92   247.66
eigval :      249.94   257.07   271.37   273.79   275.20   288.11
eigval :      296.49   354.76   367.32   376.15   379.14   381.73
eigval :      385.41   396.82   401.42   415.53   419.98   429.30
eigval :      429.74   438.00   443.43   446.00   452.03   464.14
eigval :      498.30   509.69   510.58   517.56   521.79   523.19
eigval :      543.66   551.85   575.30   585.51   588.16   595.08
eigval :      602.36   605.21   621.61   628.49   648.37   658.51
eigval :      658.72   659.84   662.57   668.77   675.17   692.81
eigval :      701.68   721.96   753.39   775.99   778.15   778.38
eigval :      778.74   792.63   802.36   816.02   826.13   832.79
eigval :      838.09   852.10   853.04   863.35   864.40   864.47
eigval :      866.27   875.17   877.20   895.64   897.26   897.60
eigval :      898.74   911.35   913.65   913.74   915.15   915.80
eigval :      916.00   917.13   921.31   923.53   926.55   932.05
eigval :      937.38  1003.72  1012.98  1048.70  1089.29  1089.61
eigval :     1090.69  1091.26  1104.71  1105.83  1116.21  1117.82
eigval :     1128.01  1134.84  1138.80  1167.13  1168.82  1171.86
eigval :     1173.00  1175.01  1180.30  1181.74  1187.34  1193.14
eigval :     1196.45  1197.49  1217.69  1220.47  1241.17  1242.08
eigval :     1247.87  1258.94  1259.76  1261.73  1262.66  1269.22
eigval :     1303.67  1304.70  1306.91  1309.82  1311.90  1312.87
eigval :     1326.27  1332.36  1334.66  1353.00  1353.82  1399.49
eigval :     1402.07  1421.52  1422.20  1440.21  1440.96  1475.27
eigval :     1475.74  1479.54  1481.54  1502.15  1504.08  1550.33
eigval :     1559.93  1565.88  1566.13  1571.72  1578.92  1579.06
eigval :     1581.56  1587.73  1588.76  1599.19  1601.92  1602.56
eigval :     1634.31  3064.63  3081.00  3082.27  3085.45  3086.96
eigval :     3087.22  3088.26  3091.23  3092.05  3093.34  3094.52
eigval :     3095.22  3095.78  3096.16  3096.72  3099.67  3103.15
eigval :     3104.78  3105.07  3105.11  3105.56  3107.87  3109.38
eigval :     3110.19  3110.66  3440.02

   temp. (K)  partition function   enthalpy   heat capacity  entropy
                                   cal/mol     cal/K/mol   cal/K/mol   J/K/mol
 298.15  VIB  0.626E+17            21009.375    132.114    130.744
         ROT  0.958E+08              888.752      2.981     39.502
         INT  0.600E+25            21898.127    135.094    170.247
         TR   0.137E+29             1481.254      4.968     44.971
         TOT                       23379.3814   140.0626   215.2182   900.4728

       T/K    H(0)-H(T)+PV         H(T)/Eh          T*S/Eh         G(T)/Eh
   ------------------------------------------------------------------------
    298.15    0.372574E-01    0.568221E+00    0.102257E+00    0.465964E+00
   ------------------------------------------------------------------------

         :::::::::::::::::::::::::::::::::::::::::::::::::::::
         ::                  THERMODYNAMIC                  ::
         :::::::::::::::::::::::::::::::::::::::::::::::::::::
         :: total free energy        -118.483649589665 Eh   ::
         ::.................................................::
         :: total energy             -118.949613975935 Eh   ::
         :: zero point energy           0.530964070690 Eh   ::
         :: G(RRHO) w/o ZPVE           -0.064999684420 Eh   ::
         :: G(RRHO) contrib.            0.465964386270 Eh   ::
         :::::::::::::::::::::::::::::::::::::::::::::::::::::

           -------------------------------------------------
          | TOTAL ENERGY             -118.949613975935 Eh   |
          | TOTAL ENTHALPY           -118.381392489512 Eh   |
          | TOTAL FREE ENERGY        -118.483649589665 Eh   |
          | GRADIENT NORM               0.000040042910 Eh/α |
          | HOMO-LUMO GAP               1.314202507691 eV   |
           -------------------------------------------------

 * finished run on 2025/09/14 at 06:13:47.803
