   * xtb version 6.7.1 (edcfbbe) compiled by 'albert@albert-system' on 2024-07-22

   ID    Z sym.   atoms
    1    8 O      1, 5, 17, 37
    2    6 C      2-4, 6-9, 11-16, 18-29, 31-36, 38-45
    3    7 N      10, 30
    4    1 H      46-71

          program call               : xtb data2507/toluene/PXZPDO/PXZPDO_toluene_T1_crest.xyz --gfn 2 --uhf 2 --gbsa toluene --ohess vtight --parallel 40 --molden --ceasefiles --namespace data2507/toluene/PXZPDO/PXZPDO_toluene_T1_finalOpt
      * Solvation model:               GBSA
        Solvent                        toluene
        Solvent mass                       9.2140E+01 g/mol
          :  Hamiltonian                  GFN2-xTB          :
 * total energy  :  -118.8856074 Eh     change       -0.1188360E-07 Eh
 * total energy  :  -118.8858948 Eh     change       -0.2874693E-03 Eh
 * total energy  :  -118.8860318 Eh     change       -0.1370092E-03 Eh
 * total energy  :  -118.8860634 Eh     change       -0.3160346E-04 Eh
 * total energy  :  -118.8860979 Eh     change       -0.3447542E-04 Eh
 * total energy  :  -118.8861153 Eh     change       -0.1742659E-04 Eh
 * total energy  :  -118.8861240 Eh     change       -0.8628703E-05 Eh
 * total energy  :  -118.8861328 Eh     change       -0.8823025E-05 Eh
 * total energy  :  -118.8861415 Eh     change       -0.8678337E-05 Eh
 * total energy  :  -118.8861518 Eh     change       -0.1038308E-04 Eh
 * total energy  :  -118.8865882 Eh     change       -0.4492838E-06 Eh
 * total energy  :  -118.8865888 Eh     change       -0.5775162E-06 Eh
 * total energy  :  -118.8865894 Eh     change       -0.6228548E-06 Eh
 * total energy  :  -118.8865900 Eh     change       -0.5903658E-06 Eh
 * total energy  :  -118.8865905 Eh     change       -0.5102624E-06 Eh
 * total energy  :  -118.8865910 Eh     change       -0.4478373E-06 Eh
 * total energy  :  -118.8865914 Eh     change       -0.4614825E-06 Eh
 * total energy  :  -118.8865920 Eh     change       -0.6020636E-06 Eh
 * total energy  :  -118.8865920 Eh     change       -0.1390774E-08 Eh
   *** GEOMETRY OPTIMIZATION CONVERGED AFTER 94 ITERATIONS ***

 final structure:
================
71
 xtb: 6.7.1 (edcfbbe)
O            1.53442671883917        4.41944824731045        0.01255285404568
C            1.28884887917709        3.17707265394235       -0.01072784021083
C           -0.04945551676786        2.69991177927471        0.04675343198416
C           -0.56158888913210        1.49001374234991       -0.40867128213504
O            0.21947007526303        0.60369851556533       -1.12022353654326
C           -1.91731588444148        1.08216893519065       -0.24558881235214
C           -2.84343139450314        1.77791886216872        0.56886966926925
C           -4.14292473025745        1.35780954598912        0.68541702818210
C           -4.58329282540758        0.20923095120124        0.01804489549739
N           -5.92516074321461       -0.22114052156624        0.14482393959352
C           -6.96217947002756        0.56001743608691       -0.34225938673382
C           -6.73625671583364        1.76440619603665       -1.00971681447734
C           -7.79542749371414        2.51707194867868       -1.48056899315898
C           -9.10101767308728        2.08374877092661       -1.30616982605253
C           -9.34583297064370        0.87751813148797       -0.67269515385213
C           -8.28963950403539        0.11488590814787       -0.19959606187158
O           -8.59475897765160       -1.07966647379601        0.38796430979642
C           -7.56310338209566       -1.84676748568512        0.84913578600815
C           -7.88775834783485       -3.05630768526156        1.44296096454484
C           -6.88989108133087       -3.86615051261369        1.95751726406786
C           -5.56746847080624       -3.45426824500750        1.89302393989152
C           -5.23421485107288       -2.25093702582325        1.30054638325677
C           -6.22155399397750       -1.43332566643059        0.74942300816725
C           -3.67978753467568       -0.50980495008618       -0.77369933782542
C           -2.38548988395098       -0.08288320209581       -0.90358084340175
C            2.42932842389886        2.23697889714203       -0.05774363456351
C            3.60134356928585        2.61106068604453       -0.72917854260410
C            4.70632840953546        1.79033647485398       -0.74040361355597
C            4.67792272918619        0.57925587970023       -0.04935535167521
N            5.81387231961603       -0.27313794111533       -0.05903553034744
C            5.77355193872908       -1.48730951113244       -0.72935196196154
C            4.64325923676583       -1.91846231484691       -1.42151150954361
C            4.64150085000618       -3.13609138168094       -2.07760221948228
C            5.76640683089367       -3.94475289892248       -2.06360459489651
C            6.90568640935135       -3.52577996256712       -1.39674335721142
C            6.91607134676733       -2.30749911071876       -0.73735693847090
O            8.07754878379852       -1.94257073861954       -0.11378457145051
C            8.10088973192981       -0.74330592769178        0.54318608831595
C            9.28004306251097       -0.38977080351314        1.17832286738330
C            9.36178368610804        0.80386776818382        1.87606618511062
C            8.25615307935225        1.63593760630217        1.94772978491600
C            7.07507551409737        1.29086220362185        1.31605448122692
C            6.97964725603543        0.10450791917665        0.59065275636207
C            3.53686492100646        0.21220956420069        0.66193011373807
C            2.42868485531336        1.03039559968915        0.65956224118631
H           -0.76346456365566        3.45118750658219        0.35356866270976
H            1.07595196918323        1.01947222460827       -1.28646465279786
H           -2.52253378747291        2.64668521041237        1.12066389992920
H           -4.83372528501615        1.89910972550408        1.31624503139214
H           -5.72313527547183        2.10063043068041       -1.16054272947167
H           -7.59610912782953        3.44635910754239       -1.99095309012897
H           -9.92590432816547        2.67460741853449       -1.67102098340493
H          -10.34790158779364        0.50265475281646       -0.53839787915924
H           -8.92728717319456       -3.33819014915017        1.49419058620284
H           -7.14761995024716       -4.80718857725214        2.41661591330508
H           -4.78670225282946       -4.07084790498566        2.31007551836191
H           -4.20576911128021       -1.92990502625066        1.26616266943879
H           -4.01972890707767       -1.39145730784344       -1.29794265135310
H           -1.69563397147842       -0.62625019844052       -1.52945375796848
H            3.61079230906514        3.56003882841000       -1.24573640519550
H            5.59647714256103        2.07677840463705       -1.28135082627818
H            3.76645126910800       -1.29173124961909       -1.44380204632176
H            3.75342948348088       -3.44907833528178       -2.60397659943229
H            5.76352451011284       -4.89463126908928       -2.57390539521015
H            7.80154029234213       -4.12562866167678       -1.37673573395365
H           10.11796871219940       -1.06547661655688        1.11474697221435
H           10.28269873420110        1.07520514333989        2.36690916523161
H            8.30697297864574        2.56091472305710        2.50065304521099
H            6.21554087146643        1.93848301569272        1.38393206044756
H            3.53253719904964       -0.71037322854093        1.22375465559950
H            1.55527166111000        0.75300576234474        1.23115345419588

          :  Hamiltonian                  GFN2-xTB          :
         :: gradient norm              0.000043886394 Eh/a0 ::
         :: HOMO-LUMO gap              0.631054548437 eV    ::
         :: SCC energy              -120.844195857030 Eh    ::
         :: -> dispersion             -0.094969338074 Eh    ::
         :: -> Gsolv                  -0.063818589704 Eh    ::
         :: repulsion energy           1.957603820522 Eh    ::

    * Orbital Energies and Occupations

         #    Occupation            Energy/Eh            Energy/eV
      -------------------------------------------------------------
         1        2.0000           -0.7529410             -20.4886
       ...           ...                  ...                  ...
        97        2.0000           -0.4275408             -11.6340
        98        2.0000           -0.4198555             -11.4249
        99        2.0000           -0.4146869             -11.2842
       100        2.0000           -0.4123462             -11.2205
       101        2.0000           -0.4077984             -11.0968
       102        2.0000           -0.4072178             -11.0810
       103        2.0000           -0.4051306             -11.0242
       104        2.0000           -0.4023145             -10.9475
       105        2.0000           -0.3686573             -10.0317
       106        1.9784           -0.3604192              -9.8075
       107        1.6228           -0.3572747              -9.7219
       108        1.3989           -0.3564089              -9.6984
       109        1.0000           -0.2800285              -7.6200 (HOMO)
       110        0.0000           -0.2568376              -6.9889 (LUMO)
       111        0.0000           -0.2548643              -6.9352
       112                         -0.2469665              -6.7203
       113                         -0.2446417              -6.6570
       114                         -0.2433352              -6.6215
       115                         -0.2311045              -6.2887
       116                         -0.2306216              -6.2755
       117                         -0.2282304              -6.2105
       118                         -0.2215649              -6.0291
       119                         -0.2132486              -5.8028
       120                         -0.2103710              -5.7245
       ...                                ...                  ...
       206                          0.6765394              18.4096
      -------------------------------------------------------------
                  HL-Gap            0.0231909 Eh            0.6311 eV

     #   Z          covCN         q      C6AA      α(0)
     1   8 O        0.858    -0.563    25.233     6.735
     2   6 C        2.823     0.174    24.252     8.069
     3   6 C        2.895    -0.117    30.955     9.122
     4   6 C        2.826     0.110    25.559     8.284
     5   8 O        1.659    -0.422    21.273     6.226
     6   6 C        2.967    -0.007    28.192     8.709
     7   6 C        2.919    -0.045    29.110     8.848
     8   6 C        2.914    -0.041    29.010     8.832
     9   6 C        2.922     0.033    27.262     8.562
    10   7 N        2.751    -0.019    21.621     6.906
    11   6 C        2.925     0.046    26.973     8.517
    12   6 C        2.921    -0.050    29.238     8.867
    13   6 C        2.918    -0.030    28.749     8.793
    14   6 C        2.919    -0.030    28.741     8.791
    15   6 C        2.917    -0.052    29.294     8.875
    16   6 C        2.885     0.130    25.147     8.221
    17   8 O        1.709    -0.230    17.805     5.697
    18   6 C        2.885     0.130    25.146     8.221
    19   6 C        2.917    -0.052    29.293     8.875
    20   6 C        2.919    -0.030    28.742     8.791
    21   6 C        2.918    -0.030    28.750     8.793
    22   6 C        2.921    -0.050    29.238     8.867
    23   6 C        2.925     0.046    26.973     8.517
    24   6 C        2.914    -0.042    29.049     8.838
    25   6 C        2.923    -0.037    28.918     8.819
    26   6 C        2.968    -0.024    28.591     8.771
    27   6 C        2.923    -0.028    28.706     8.786
    28   6 C        2.916    -0.042    29.041     8.837
    29   6 C        2.923     0.046    26.967     8.516
    30   7 N        2.752    -0.033    21.890     6.949
    31   6 C        2.924     0.046    26.966     8.516
    32   6 C        2.921    -0.052    29.291     8.875
    33   6 C        2.918    -0.031    28.771     8.796
    34   6 C        2.919    -0.031    28.784     8.798
    35   6 C        2.917    -0.053    29.307     8.877
    36   6 C        2.884     0.129    25.176     8.226
    37   8 O        1.709    -0.235    17.900     5.712
    38   6 C        2.884     0.129    25.176     8.226
    39   6 C        2.917    -0.053    29.311     8.878
    40   6 C        2.919    -0.031    28.785     8.798
    41   6 C        2.918    -0.031    28.773     8.796
    42   6 C        2.921    -0.051    29.278     8.873
    43   6 C        2.924     0.046    26.961     8.515
    44   6 C        2.917    -0.041    29.017     8.833
    45   6 C        2.920    -0.036    28.902     8.816
    46   1 H        0.926     0.027     2.636     2.539
    47   1 H        0.805     0.298     0.726     1.339
    48   1 H        0.926     0.031     2.579     2.511
    49   1 H        0.926     0.036     2.497     2.471
    50   1 H        0.926     0.056     2.247     2.344
    51   1 H        0.926     0.055     2.257     2.349
    52   1 H        0.926     0.058     2.223     2.331
    53   1 H        0.926     0.064     2.152     2.294
    54   1 H        0.926     0.064     2.155     2.296
    55   1 H        0.926     0.058     2.220     2.330
    56   1 H        0.926     0.056     2.243     2.342
    57   1 H        0.926     0.057     2.231     2.336
    58   1 H        0.926     0.038     2.475     2.460
    59   1 H        0.926     0.047     2.356     2.400
    60   1 H        0.926     0.036     2.499     2.472
    61   1 H        0.926     0.040     2.448     2.447
    62   1 H        0.926     0.052     2.299     2.371
    63   1 H        0.926     0.055     2.260     2.351
    64   1 H        0.926     0.057     2.235     2.338
    65   1 H        0.926     0.062     2.170     2.304
    66   1 H        0.926     0.063     2.167     2.302
    67   1 H        0.926     0.056     2.241     2.341
    68   1 H        0.926     0.053     2.284     2.364
    69   1 H        0.926     0.049     2.327     2.386
    70   1 H        0.926     0.044     2.399     2.422
    71   1 H        0.926     0.040     2.451     2.448

molecular dipole:
                 x           y           z       tot (Debye)
 q only:       -1.488      -4.354       0.107
   full:       -1.325      -4.139       0.115      11.050

 projected vibrational frequencies (cm⁻¹)
eigval :       -0.00    -0.00     0.00     0.00     0.00     0.00
eigval :        8.53     8.82    14.13    24.19    27.15    34.75
eigval :       39.28    52.42    60.29    62.17    67.03    90.04
eigval :       94.21   112.26   113.36   123.11   144.21   150.23
eigval :      169.27   172.32   195.33   213.83   223.76   245.13
eigval :      245.70   262.83   269.11   277.29   280.79   298.78
eigval :      309.74   351.23   362.81   377.64   378.50   384.17
eigval :      385.57   398.72   400.47   403.20   416.09   423.16
eigval :      430.43   434.46   444.21   449.17   457.10   462.99
eigval :      478.21   497.43   500.12   507.93   521.99   527.46
eigval :      530.44   540.95   549.95   566.35   582.27   584.04
eigval :      585.60   598.08   606.34   612.54   618.70   642.52
eigval :      662.37   665.21   667.67   669.27   672.93   673.29
eigval :      685.23   699.02   749.27   772.14   774.82   776.47
eigval :      777.82   778.83   792.26   795.16   803.38   810.43
eigval :      829.22   836.93   854.82   855.89   861.53   868.12
eigval :      868.76   869.04   869.70   899.88   901.08   901.98
eigval :      902.64   905.00   907.43   909.39   912.43   913.38
eigval :      913.83   915.37   916.41   918.16   918.58   920.58
eigval :      923.95   986.09  1003.47  1014.08  1082.12  1082.65
eigval :     1083.70  1084.10  1111.85  1113.33  1115.73  1119.39
eigval :     1122.22  1128.63  1136.73  1156.01  1165.93  1167.63
eigval :     1170.96  1171.26  1175.80  1180.14  1186.77  1196.47
eigval :     1205.37  1207.78  1214.15  1222.15  1235.65  1235.96
eigval :     1248.79  1251.26  1252.33  1258.40  1263.06  1268.97
eigval :     1299.02  1301.22  1306.19  1307.54  1313.73  1316.04
eigval :     1322.73  1331.86  1338.56  1343.02  1349.33  1371.58
eigval :     1402.87  1413.47  1416.58  1427.11  1435.22  1437.84
eigval :     1438.19  1441.62  1451.35  1458.41  1464.52  1469.10
eigval :     1477.52  1489.65  1512.50  1551.61  1555.05  1559.51
eigval :     1559.97  1562.54  1565.91  1571.57  1580.06  1581.98
eigval :     1586.98  3072.05  3074.42  3075.48  3075.92  3077.94
eigval :     3086.72  3089.24  3095.08  3095.17  3096.01  3096.07
eigval :     3102.62  3103.43  3103.54  3103.69  3104.37  3107.32
eigval :     3111.10  3112.68  3112.80  3113.27  3114.84  3116.21
eigval :     3116.48  3117.00  3469.00

   temp. (K)  partition function   enthalpy   heat capacity  entropy
                                   cal/mol     cal/K/mol   cal/K/mol   J/K/mol
 298.15  VIB  0.495E+17            21073.414    133.771    130.905
         ROT  0.982E+08              888.752      2.981     39.552
         INT  0.486E+25            21962.166    136.752    170.458
         TR   0.137E+29             1481.254      4.968     44.971
         TOT                       23443.4199   141.7200   215.4292   901.3557

       T/K    H(0)-H(T)+PV         H(T)/Eh          T*S/Eh         G(T)/Eh
   ------------------------------------------------------------------------
    298.15    0.373595E-01    0.565425E+00    0.102357E+00    0.463068E+00
   ------------------------------------------------------------------------

         :::::::::::::::::::::::::::::::::::::::::::::::::::::
         ::                  THERMODYNAMIC                  ::
         :::::::::::::::::::::::::::::::::::::::::::::::::::::
         :: total free energy        -118.423524506650 Eh   ::
         ::.................................................::
         :: total energy             -118.886592037591 Eh   ::
         :: zero point energy           0.528065423388 Eh   ::
         :: G(RRHO) w/o ZPVE           -0.064997892447 Eh   ::
         :: G(RRHO) contrib.            0.463067530941 Eh   ::
         :::::::::::::::::::::::::::::::::::::::::::::::::::::

           -------------------------------------------------
          | TOTAL ENERGY             -118.886592037591 Eh   |
          | TOTAL ENTHALPY           -118.321167146615 Eh   |
          | TOTAL FREE ENERGY        -118.423524506650 Eh   |
          | GRADIENT NORM               0.000043639091 Eh/α |
          | HOMO-LUMO GAP               0.631057697704 eV   |
           -------------------------------------------------

 * finished run on 2025/09/14 at 06:24:34.785
