   * xtb version 6.7.1 (edcfbbe) compiled by 'albert@albert-system' on 2024-07-22

   ID    Z sym.   atoms
    1    6 C      1-4, 6-11, 13-28, 30-35, 37-45, 47
    2    7 N      5, 29, 46, 48
    3   16 S      12, 36
    4    1 H      49-78

          program call               : xtb data2507/gas/PTZ-mPYR/PTZ-mPYR_gas_S0_finalOpt.xtbopt.xyz --gfn 2 --spinpol --tblite --uhf 2 --ohess vtight --parallel 40 --molden --ceasefiles --namespace data2507/gas/PTZ-mPYR/PTZ-mPYR_gas_T1_preOpt
 * total energy  :  -123.3867719 Eh     change       -0.3892396E-08 Eh
 * total energy  :  -123.3909301 Eh     change       -0.4158210E-02 Eh
 * total energy  :  -123.3920254 Eh     change       -0.1095346E-02 Eh
 * total energy  :  -123.3922071 Eh     change       -0.1816635E-03 Eh
 * total energy  :  -123.3924598 Eh     change       -0.2526539E-03 Eh
 * total energy  :  -123.3926861 Eh     change       -0.2263553E-03 Eh
 * total energy  :  -123.3929304 Eh     change       -0.2442391E-03 Eh
 * total energy  :  -123.3931397 Eh     change       -0.2093368E-03 Eh
 * total energy  :  -123.3932827 Eh     change       -0.1430129E-03 Eh
 * total energy  :  -123.3933962 Eh     change       -0.1135317E-03 Eh
 * total energy  :  -123.3944212 Eh     change       -0.7376250E-06 Eh
 * total energy  :  -123.3944221 Eh     change       -0.8802134E-06 Eh
 * total energy  :  -123.3944228 Eh     change       -0.7323610E-06 Eh
 * total energy  :  -123.3944236 Eh     change       -0.7845288E-06 Eh
 * total energy  :  -123.3944243 Eh     change       -0.6842943E-06 Eh
 * total energy  :  -123.3944249 Eh     change       -0.6289178E-06 Eh
 * total energy  :  -123.3944255 Eh     change       -0.6299308E-06 Eh
 * total energy  :  -123.3944255 Eh     change        0.1429298E-07 Eh
 * total energy  :  -123.3944255 Eh     change       -0.1719010E-07 Eh
   *** GEOMETRY OPTIMIZATION CONVERGED AFTER 123 ITERATIONS ***

 final structure:
================
78
 xtb: 6.7.1 (edcfbbe)
C           -3.55694195050367       -3.36199471047273       -1.67070277579824
C           -3.62197108678062       -2.07210329103837       -0.91638162947211
C           -4.81269852303685       -1.37302291372302       -0.89132928419728
C           -4.92983285962501       -0.15308975075680       -0.23169104894170
N           -6.18292967638623        0.53675634679633       -0.21783037913919
C           -6.40221698730006        1.48396071969982       -1.20318021121663
C           -5.42096174893680        1.70467369363212       -2.17705081582432
C           -5.59062261047563        2.64202062266968       -3.17609617079970
C           -6.75099208700006        3.39492659194406       -3.24265439462322
C           -7.73655778267419        3.19034327376599       -2.29620035444284
C           -7.57068674835450        2.25042466601462       -1.28979511917481
S           -8.91083291986383        2.09479429472097       -0.15001944974148
C           -8.34361829022930        0.80100518522555        0.91033357786393
C           -9.21743521409222        0.41501174255756        1.91598501626945
C           -8.87008660664616       -0.57707093828813        2.81264611448369
C           -7.62954129601312       -1.18151101535820        2.69656769363168
C           -6.75687860611535       -0.80226143216305        1.69651375349328
C           -7.08907759400773        0.19508869178554        0.77190331936616
C           -3.82501897259329        0.38563147675540        0.41765159827116
C           -2.63166548640439       -0.29725150505002        0.40096217760619
C           -2.48964102102754       -1.53321184060577       -0.25661152217077
C           -1.21350209282302       -2.20915253203212       -0.23394029462813
C           -0.00701708045115       -1.52748919887159       -0.08753889139686
C            1.18918076222353       -2.24108288705109       -0.04284308878166
C            2.47551397277948       -1.59498148376118        0.07317801805713
C            2.63578948594868       -0.27886371428386       -0.39851155279172
C            3.84003707982058        0.38034903472108       -0.32221107660729
C            4.93788284646297       -0.26424022693342        0.23611560450207
N            6.20236313626633        0.39999960510251        0.31415646931099
C            7.10077509986275        0.18588257711068       -0.71758359906830
C            6.75034117752819       -0.66649635141275       -1.77143779208245
C            7.61497704628177       -0.91638850626226       -2.81807224044033
C            8.86540499058969       -0.32228654649786       -2.85318486718809
C            9.23059423033950        0.52907426836029       -1.82815015559437
C            8.36484737722090        0.78500850309538       -0.77512037042967
S            8.95455425593956        1.90984944696657        0.45242717098846
C            7.62014550804878        1.92449177284468        1.60929461363225
C            7.80359236065717        2.71123382555708        2.73676487319192
C            6.82413196730870        2.79560707793820        3.70759202833964
C            5.65218415710959        2.07662703237858        3.54217210003446
C            5.46497852084485        1.29153436818775        2.42231795642461
C            6.43956511933282        1.19555584618073        1.42184774120715
C            4.80257666260233       -1.56476520607865        0.71303088796887
C            3.60071954770668       -2.24129812735300        0.64261906927559
C            3.51698720703595       -3.62574987147651        1.20240094817347
N            1.13027539133336       -3.61050685954926       -0.12104387934218
C           -0.02713649669349       -4.19127805223630       -0.28046229279849
N           -1.17552595041523       -3.57627122918604       -0.35363554698086
H           -4.49395078721834       -3.54835321490512       -2.19118020205369
H           -3.35675523453417       -4.18789452532754       -0.99092928264863
H           -2.74704499460258       -3.33881660515833       -2.39781400644132
H           -5.68072503331791       -1.77340673615712       -1.39682785252758
H           -4.51243059307064        1.12526148448389       -2.14225313875570
H           -4.80843207460419        2.78143267835480       -3.90647168948255
H           -6.89004749018776        4.12963340109356       -4.01965623867181
H           -8.65406775711089        3.75857519694082       -2.32165938845141
H          -10.17451927827038        0.90996460897141        1.98229076387951
H           -9.55756441219936       -0.86958224795872        3.59025490839972
H           -7.33387555220954       -1.95546546368596        3.38807005579625
H           -5.79473049050222       -1.28291480597481        1.62305396749132
H           -3.91546985263542        1.32783702334882        0.93819917962035
H           -1.79318631481988        0.11547602860524        0.94013040924470
H            0.00095770575781       -0.45248921893843       -0.00954114625014
H            1.80270975852756        0.22096795094024       -0.86778499847547
H            3.94431840941821        1.38656964589362       -0.70110430969395
H            5.78029253578321       -1.13666391733319       -1.76241352207426
H            7.30522393568957       -1.58094878103652       -3.60991423238992
H            9.54675883894296       -0.51458165955756       -3.66659803696471
H           10.19562072862551        1.01292011989869       -1.82847283000907
H            8.72987887200188        3.25649171534265        2.83701474053252
H            6.97682208336591        3.41190594951977        4.57921499756765
H            4.87458281017527        2.12352792857945        4.28906649428525
H            4.54764508246915        0.73605286457470        2.31136518385474
H            5.66539388648627       -2.04783296766033        1.15065035158091
H            2.70842084343531       -3.69620558424067        1.92792216204607
H            4.45171500278169       -3.89944223871318        1.68716506201462
H            3.30353358838077       -4.34138662569254        0.41082397971766
H           -0.03527083983614       -5.27154905232227       -0.35854610821175

 projected vibrational frequencies (cm⁻¹)
eigval :       -0.00    -0.00    -0.00     0.00     0.00     0.00
eigval :        6.64     6.85    11.34    15.05    15.52    23.97
eigval :       24.76    31.93    37.80    38.79    53.99    75.78
eigval :       93.32    96.15    99.41   107.12   112.57   138.46
eigval :      140.36   144.61   145.98   159.60   160.02   197.55
eigval :      215.30   219.78   221.47   227.28   227.70   231.69
eigval :      236.85   258.50   272.20   309.04   312.28   326.83
eigval :      335.25   342.61   353.27   367.68   379.32   387.21
eigval :      396.19   397.63   401.69   409.98   413.96   415.35
eigval :      418.43   420.48   424.57   426.71   432.82   471.12
eigval :      483.57   486.99   488.27   488.34   489.91   509.71
eigval :      513.05   517.30   540.74   553.69   558.25   573.29
eigval :      595.11   602.69   603.79   610.49   642.43   647.13
eigval :      649.06   650.76   651.04   652.85   652.86   670.54
eigval :      673.21   697.03   703.20   703.62   710.32   725.33
eigval :      769.57   769.74   772.99   773.00   775.09   811.47
eigval :      814.38   823.78   827.10   844.80   862.29   862.33
eigval :      862.76   862.76   869.21   869.84   895.84   901.28
eigval :      902.00   902.86   902.88   903.20   903.21   907.48
eigval :      907.55   917.07   917.09   917.51   917.52   949.77
eigval :      983.02   984.05  1013.47  1014.23  1023.50  1024.34
eigval :     1025.38  1036.47  1045.06  1045.09  1061.01  1063.24
eigval :     1100.75  1101.65  1102.19  1102.21  1135.97  1142.81
eigval :     1151.85  1151.87  1157.34  1159.82  1160.38  1178.27
eigval :     1178.30  1178.72  1178.74  1188.09  1189.74  1212.47
eigval :     1216.28  1241.54  1241.56  1247.74  1248.02  1252.13
eigval :     1254.14  1262.23  1288.91  1301.65  1306.84  1306.90
eigval :     1315.31  1318.95  1324.02  1328.00  1329.39  1329.42
eigval :     1332.78  1334.21  1335.87  1385.19  1403.30  1403.46
eigval :     1405.46  1405.48  1409.72  1414.34  1418.17  1419.31
eigval :     1428.50  1444.54  1448.64  1448.72  1459.99  1461.46
eigval :     1462.11  1468.26  1469.53  1480.47  1480.99  1481.78
eigval :     1505.90  1506.20  1550.21  1550.22  1564.11  1565.01
eigval :     1569.39  1569.40  1573.21  1585.09  1586.45  1586.75
eigval :     3013.86  3013.94  3027.09  3027.24  3030.75  3031.21
eigval :     3035.91  3069.44  3069.51  3078.16  3078.44  3089.33
eigval :     3089.34  3089.81  3089.82  3091.87  3092.37  3092.39
eigval :     3092.95  3092.96  3095.96  3101.55  3105.92  3105.96
eigval :     3106.13  3106.34  3114.03  3114.14  3115.55  3115.67

   temp. (K)  partition function   enthalpy   heat capacity  entropy
                                   cal/mol     cal/K/mol   cal/K/mol   J/K/mol
 298.15  VIB  0.175E+21            23891.513    146.248    150.309
         ROT  0.695E+08              888.752      2.981     38.866
         INT  0.122E+29            24780.265    149.229    189.174
         TR   0.162E+29             1481.254      4.968     45.299
         TOT                       26261.5192   154.1968   234.4735   981.0371

       T/K    H(0)-H(T)+PV         H(T)/Eh          T*S/Eh         G(T)/Eh
   ------------------------------------------------------------------------
    298.15    0.418504E-01    0.628813E+00    0.111406E+00    0.517407E+00
   ------------------------------------------------------------------------

         :::::::::::::::::::::::::::::::::::::::::::::::::::::
         ::                  THERMODYNAMIC                  ::
         :::::::::::::::::::::::::::::::::::::::::::::::::::::
         :: total free energy        -122.877018838587 Eh   ::
         ::.................................................::
         :: total energy             -123.394425529425 Eh   ::
         :: zero point energy           0.586962223741 Eh   ::
         :: G(RRHO) w/o ZPVE           -0.069555532902 Eh   ::
         :: G(RRHO) contrib.            0.517406690839 Eh   ::
         :::::::::::::::::::::::::::::::::::::::::::::::::::::

           -------------------------------------------------
          | TOTAL ENERGY             -123.394425529425 Eh   |
          | TOTAL ENTHALPY           -122.765612910982 Eh   |
          | TOTAL FREE ENERGY        -122.877018838587 Eh   |
          | GRADIENT NORM               0.000063565047 Eh/α |
           -------------------------------------------------

 * finished run on 2025/07/16 at 15:01:49.191
