   * xtb version 6.7.1 (edcfbbe) compiled by 'albert@albert-system' on 2024-07-22

   ID    Z sym.   atoms
    1    6 C      1-4, 6-11, 13-28, 30-35, 37-45, 47
    2    7 N      5, 29, 46, 48
    3   16 S      12, 36
    4    1 H      49-78

          program call               : xtb data2507/gas/PTZ-mPYR/PTZ-mPYR.xyz --gfn 2 --ohess vtight --parallel 40 --molden --ceasefiles --namespace data2507/gas/PTZ-mPYR/PTZ-mPYR_gas_S0_preOpt
          :  Hamiltonian                  GFN2-xTB          :
 * total energy  :  -123.4313216 Eh     change       -0.1573838E-08 Eh
 * total energy  :  -123.4493752 Eh     change       -0.1805356E-01 Eh
 * total energy  :  -123.4556397 Eh     change       -0.6264498E-02 Eh
 * total energy  :  -123.4570640 Eh     change       -0.1424306E-02 Eh
 * total energy  :  -123.4580553 Eh     change       -0.9912851E-03 Eh
 * total energy  :  -123.4585026 Eh     change       -0.4473001E-03 Eh
 * total energy  :  -123.4587480 Eh     change       -0.2454742E-03 Eh
 * total energy  :  -123.4589085 Eh     change       -0.1604449E-03 Eh
 * total energy  :  -123.4590404 Eh     change       -0.1318887E-03 Eh
 * total energy  :  -123.4591983 Eh     change       -0.1579623E-03 Eh
 * total energy  :  -123.4603423 Eh     change       -0.3384102E-06 Eh
 * total energy  :  -123.4603425 Eh     change       -0.2570174E-06 Eh
 * total energy  :  -123.4603428 Eh     change       -0.2885918E-06 Eh
 * total energy  :  -123.4603432 Eh     change       -0.3570016E-06 Eh
 * total energy  :  -123.4603436 Eh     change       -0.4265148E-06 Eh
 * total energy  :  -123.4603441 Eh     change       -0.5068652E-06 Eh
 * total energy  :  -123.4603445 Eh     change       -0.4307121E-06 Eh
 * total energy  :  -123.4603450 Eh     change       -0.4595932E-06 Eh
 * total energy  :  -123.4603450 Eh     change       -0.8159418E-08 Eh
   *** GEOMETRY OPTIMIZATION CONVERGED AFTER 94 ITERATIONS ***

 final structure:
================
78
 xtb: 6.7.1 (edcfbbe)
C           -3.38004598893683       -1.75992136685789       -2.99934039627857
C           -3.52378065557168       -1.20351797526362       -1.61945886952151
C           -4.72972548631016       -0.64056203076108       -1.22921603590486
C           -4.90496359566436       -0.11246678826881        0.04315439986879
N           -6.15348203429664        0.45853270348961        0.42407297957964
C           -6.31340394635050        1.82721379918212        0.22584743995390
C           -5.30903686690708        2.55653859253674       -0.41359218543140
C           -5.42550154366180        3.91910977589146       -0.62377197407261
C           -6.55844716555035        4.59493877837429       -0.21321747018687
C           -7.56912226361960        3.88864529178720        0.41482484434310
C           -7.44926543669997        2.52755120612176        0.64048484023168
S           -8.78643718992476        1.75372024481316        1.50558194736585
C           -8.41074639851228        0.03778950856454        1.27667205627274
C           -9.40469126068847       -0.85875375283436        1.63170305697219
C           -9.18751364968227       -2.22333252044432        1.55828520355555
C           -7.95742229098694       -2.68232171712652        1.12803603789761
C           -6.96741169007106       -1.78958232783192        0.75759290943643
C           -7.17127401446596       -0.40951592137345        0.81124659996079
C           -3.85678862226806       -0.13493962603492        0.95159456910755
C           -2.64628408987719       -0.67936593848078        0.57139011780192
C           -2.46373927814168       -1.21571838921587       -0.70161792252213
C           -1.14970835725334       -1.78637205369069       -1.03590862854834
C            0.02732143013109       -1.16934382853687       -0.61071845595669
C            1.23172996474878       -1.79045289240474       -0.93055088270238
C            2.54090000117059       -1.23215700519721       -0.55586782235585
C            3.52518241421208       -1.20736456734215       -1.54359650668791
C            4.76939261378440       -0.66839864898306       -1.29577936839615
C            5.04916060252759       -0.16022682456814       -0.03198735520887
N            6.32153569088146        0.41176618016390        0.25935767049914
C            7.36835127757654       -0.45707284652627        0.55704123303808
C            7.16199860388298       -1.83700313985725        0.50933519958601
C            8.17872562178673       -2.73102323761875        0.79451645046243
C            9.43830247288726       -2.27342530188576        1.13071307543743
C            9.65994224120247       -0.90911381301825        1.19513447901969
C            8.64073085320502       -0.01138006644939        0.92481476012007
S            9.03451251311137        1.70371384350124        1.12859783907790
C            7.62747382183886        2.48182231986155        0.38693864894861
C            7.72541096476517        3.84537534425189        0.16566263365101
C            6.66359696334327        4.55553960591112       -0.36631706609184
C            5.50021610977626        3.88135543843557       -0.68386961763419
C            5.40433752863746        2.51645668092593       -0.47840070198575
C            6.46165799913731        1.78270765706287        0.06315916340209
C            4.08787413017454       -0.21628809056860        0.96413528427455
C            2.82709627010745       -0.74916975117743        0.72502484417710
C            1.85099335344928       -0.82031821280516        1.86126914582868
N            1.24886622862324       -2.91440239621978       -1.65104678586783
C            0.08426703916939       -3.40930154881666       -2.01355209554698
N           -1.10700308959728       -2.91779791983897       -1.74038592178840
H           -3.30473223926195       -2.84432587338946       -2.95362959103980
H           -2.47210453130592       -1.39289334609652       -3.47368298747841
H           -4.23575151412129       -1.48864334537540       -3.61252857831211
H           -5.55759075147979       -0.61156928077859       -1.92339583276194
H           -4.41850923418989        2.04809317335681       -0.74882545023242
H           -4.62205385448915        4.44646197807225       -1.11540435937220
H           -6.65951965354260        5.65642935267498       -0.37507551590408
H           -8.46511883403914        4.38807711248958        0.75087750102612
H          -10.34848310158356       -0.46777364718967        1.98045791665478
H           -9.96730370295477       -2.91174769029724        1.84318111622399
H           -7.75662536459487       -3.74157806582454        1.07546125618930
H           -6.01415562097725       -2.17199923499548        0.42830114219886
H           -3.99522711645954        0.27214075932271        1.94147644959509
H           -1.83568148973234       -0.71456381170752        1.28436683246321
H            0.00497215700016       -0.22444057711973       -0.09396424659124
H            3.28902837352666       -1.61494653678642       -2.51436786894504
H            5.52589099679100       -0.64023061640088       -2.06535607190218
H            6.18665342835052       -2.21840703532060        0.25122161646570
H            7.97534248984605       -3.79011153145477        0.74947401440824
H           10.23847854815726       -2.96277725240444        1.34907823669514
H           10.62827097370396       -0.51931051403901        1.47019809356975
H            8.64620237861360        4.34356306983757        0.42861416821750
H            6.74905994777059        5.61873054916040       -0.52602623167346
H            4.65638838461713        4.41186736395970       -1.09844039607033
H            4.48885254443703        2.00929487640471       -0.74045406190000
H            4.33137228532680        0.16116928171658        1.94688032680937
H            1.13378608074903       -1.62523398466808        1.72029494938842
H            1.30544570491064        0.11926471137538        1.95559185978051
H            2.38215794478449       -0.98600095114530        2.79621798366958
H            0.10717897505602       -4.32069940425757       -2.59853663830590

          :  Hamiltonian                  GFN2-xTB          :
         :: gradient norm              0.000046894550 Eh/a0 ::
         :: HOMO-LUMO gap              1.339721023311 eV    ::
         :: SCC energy              -125.612548170761 Eh    ::
         :: -> dispersion             -0.112680515220 Eh    ::
         :: repulsion energy           2.152203161066 Eh    ::

    * Orbital Energies and Occupations

         #    Occupation            Energy/Eh            Energy/eV
      -------------------------------------------------------------
         1        2.0000           -0.7159361             -19.4816
       ...           ...                  ...                  ...
       103        2.0000           -0.4200504             -11.4302
       104        2.0000           -0.4150512             -11.2941
       105        2.0000           -0.4142732             -11.2729
       106        2.0000           -0.4139114             -11.2631
       107        2.0000           -0.4128526             -11.2343
       108        2.0000           -0.4112094             -11.1896
       109        2.0000           -0.4105671             -11.1721
       110        2.0000           -0.4049001             -11.0179
       111        2.0000           -0.3803872             -10.3509
       112        2.0000           -0.3798696             -10.3368
       113        2.0000           -0.3739188             -10.1748
       114        2.0000           -0.3388722              -9.2212
       115        2.0000           -0.3383139              -9.2060 (HOMO)
       116                         -0.2890800              -7.8663 (LUMO)
       117                         -0.2707210              -7.3667
       118                         -0.2441049              -6.6424
       119                         -0.2439721              -6.6388
       120                         -0.2410585              -6.5595
       121                         -0.2407328              -6.5507
       122                         -0.2396078              -6.5201
       123                         -0.2304609              -6.2712
       124                         -0.2299435              -6.2571
       125                         -0.2252421              -6.1291
       126                         -0.2244863              -6.1086
       ...                                ...                  ...
       232                          0.6715333              18.2734
      -------------------------------------------------------------
                  HL-Gap            0.0492339 Eh            1.3397 eV

     #   Z          covCN         q      C6AA      α(0)
     1   6 C        3.758    -0.114    22.729     6.797
     2   6 C        2.966     0.029    27.343     8.577
     3   6 C        2.927    -0.048    29.195     8.861
     4   6 C        2.931     0.071    26.419     8.429
     5   7 N        2.750    -0.075    22.699     7.076
     6   6 C        2.944     0.060    26.655     8.468
     7   6 C        2.928    -0.059    29.474     8.903
     8   6 C        2.919    -0.034    28.858     8.809
     9   6 C        2.918    -0.040    28.990     8.829
    10   6 C        2.988    -0.040    28.988     8.832
    11   6 C        2.971     0.033    27.253     8.563
    12  16 S        2.136    -0.153   147.513    20.442
    13   6 C        2.971     0.033    27.260     8.564
    14   6 C        2.989    -0.040    28.987     8.832
    15   6 C        2.918    -0.040    28.987     8.829
    16   6 C        2.919    -0.034    28.848     8.808
    17   6 C        2.928    -0.059    29.473     8.903
    18   6 C        2.942     0.060    26.656     8.468
    19   6 C        2.919    -0.043    29.075     8.842
    20   6 C        2.926    -0.033    28.811     8.802
    21   6 C        2.981    -0.006    28.175     8.707
    22   6 C        2.981     0.113    25.494     8.282
    23   6 C        2.913    -0.062    29.551     8.914
    24   6 C        2.983     0.114    25.477     8.280
    25   6 C        2.983    -0.005    28.139     8.701
    26   6 C        2.928    -0.025    28.640     8.776
    27   6 C        2.919    -0.041    29.023     8.834
    28   6 C        2.931     0.071    26.422     8.430
    29   7 N        2.750    -0.075    22.698     7.076
    30   6 C        2.941     0.060    26.657     8.468
    31   6 C        2.928    -0.059    29.471     8.903
    32   6 C        2.919    -0.034    28.846     8.807
    33   6 C        2.918    -0.040    28.987     8.829
    34   6 C        2.989    -0.040    28.988     8.832
    35   6 C        2.971     0.033    27.260     8.564
    36  16 S        2.136    -0.153   147.523    20.442
    37   6 C        2.971     0.033    27.253     8.563
    38   6 C        2.988    -0.040    28.989     8.832
    39   6 C        2.918    -0.040    28.992     8.830
    40   6 C        2.919    -0.034    28.859     8.809
    41   6 C        2.928    -0.059    29.475     8.903
    42   6 C        2.943     0.060    26.654     8.467
    43   6 C        2.929    -0.049    29.205     8.863
    44   6 C        2.966     0.019    27.578     8.614
    45   6 C        3.758    -0.107    22.597     6.777
    46   7 N        1.842    -0.254    27.452     7.765
    47   6 C        2.909     0.152    24.701     8.150
    48   7 N        1.840    -0.251    27.390     7.756
    49   1 H        0.925     0.076     2.024     2.225
    50   1 H        0.925     0.051     2.310     2.377
    51   1 H        0.925     0.047     2.359     2.402
    52   1 H        0.926     0.046     2.369     2.407
    53   1 H        0.926     0.028     2.608     2.526
    54   1 H        0.926     0.032     2.553     2.499
    55   1 H        0.926     0.035     2.515     2.480
    56   1 H        0.926     0.043     2.405     2.425
    57   1 H        0.926     0.043     2.408     2.427
    58   1 H        0.926     0.035     2.513     2.479
    59   1 H        0.926     0.034     2.533     2.489
    60   1 H        0.926     0.032     2.562     2.503
    61   1 H        0.926     0.045     2.383     2.414
    62   1 H        0.926     0.039     2.464     2.455
    63   1 H        0.926     0.040     2.450     2.447
    64   1 H        0.926     0.055     2.259     2.350
    65   1 H        0.926     0.046     2.366     2.406
    66   1 H        0.926     0.032     2.557     2.501
    67   1 H        0.926     0.034     2.529     2.487
    68   1 H        0.926     0.035     2.513     2.479
    69   1 H        0.926     0.043     2.409     2.427
    70   1 H        0.926     0.043     2.406     2.426
    71   1 H        0.926     0.035     2.516     2.481
    72   1 H        0.926     0.032     2.556     2.500
    73   1 H        0.926     0.028     2.614     2.528
    74   1 H        0.926     0.046     2.364     2.405
    75   1 H        0.925     0.045     2.388     2.417
    76   1 H        0.924     0.051     2.312     2.378
    77   1 H        0.925     0.052     2.298     2.371
    78   1 H        0.925     0.043     2.411     2.428

molecular dipole:
                 x           y           z       tot (Debye)
 q only:       -0.187      -0.330      -0.368
   full:       -0.190      -0.275      -0.416       1.356

 projected vibrational frequencies (cm⁻¹)
eigval :       -0.00     0.00     0.00     0.00     0.00     0.00
eigval :        5.54     5.78    10.71    13.49    13.68    18.74
eigval :       22.05    30.60    33.25    38.10    49.41    76.60
eigval :       88.18    98.07    99.40   107.32   109.65   124.45
eigval :      142.73   145.60   157.72   165.04   179.05   194.74
eigval :      211.78   215.38   220.23   226.86   228.85   229.17
eigval :      240.23   259.79   274.28   281.32   304.56   314.45
eigval :      326.76   338.42   357.42   371.15   377.56   392.69
eigval :      398.97   402.82   406.14   410.15   411.19   413.93
eigval :      420.11   427.23   427.73   432.19   454.02   476.06
eigval :      483.57   490.66   492.34   492.39   497.93   505.15
eigval :      506.24   527.37   542.57   562.59   567.43   601.21
eigval :      606.54   613.51   618.09   643.08   647.04   647.91
eigval :      648.56   648.70   653.57   654.05   676.42   688.00
eigval :      705.68   709.33   711.64   718.22   739.10   753.61
eigval :      769.27   769.41   771.20   771.37   800.29   824.84
eigval :      825.35   830.46   834.83   858.39   858.63   859.63
eigval :      860.11   865.50   883.38   886.22   899.71   899.77
eigval :      900.40   900.48   909.95   910.01   913.13   914.31
eigval :      914.39   915.03   915.09   918.78   919.05   984.53
eigval :      989.29  1007.61  1018.82  1020.63  1026.37  1029.27
eigval :     1043.02  1043.08  1052.23  1062.44  1063.71  1074.01
eigval :     1104.72  1104.81  1105.49  1105.51  1135.95  1146.45
eigval :     1152.92  1152.94  1158.22  1159.30  1175.23  1177.63
eigval :     1180.94  1181.01  1185.91  1186.88  1199.29  1227.40
eigval :     1229.58  1239.96  1245.66  1247.02  1247.15  1250.92
eigval :     1257.21  1257.87  1270.43  1276.08  1300.71  1307.66
eigval :     1314.50  1315.19  1315.40  1320.31  1325.53  1325.87
eigval :     1335.40  1335.65  1373.08  1402.20  1403.21  1408.33
eigval :     1408.87  1410.20  1414.74  1421.88  1422.30  1433.51
eigval :     1462.91  1466.47  1466.84  1475.82  1476.63  1479.53
eigval :     1481.98  1484.72  1488.59  1491.68  1512.59  1553.60
eigval :     1556.58  1556.59  1562.12  1565.83  1570.99  1571.02
eigval :     1575.92  1575.95  1590.48  1591.03  1596.94  1597.04
eigval :     2993.66  3023.88  3034.96  3039.02  3041.52  3042.94
eigval :     3049.22  3081.05  3082.06  3084.63  3084.93  3085.33
eigval :     3086.50  3086.71  3091.29  3091.40  3091.67  3091.85
eigval :     3092.18  3099.33  3101.13  3101.49  3103.02  3103.08
eigval :     3104.15  3106.39  3106.59  3108.43  3108.57  3109.96

   temp. (K)  partition function   enthalpy   heat capacity  entropy
                                   cal/mol     cal/K/mol   cal/K/mol   J/K/mol
 298.15  VIB  0.551E+21            23787.737    144.780    150.631
         ROT  0.133E+09              888.752      2.981     40.154
         INT  0.732E+29            24676.489    147.761    190.785
         TR   0.162E+29             1481.254      4.968     45.299
         TOT                       26157.7430   152.7293   236.0842   987.7762

       T/K    H(0)-H(T)+PV         H(T)/Eh          T*S/Eh         G(T)/Eh
   ------------------------------------------------------------------------
    298.15    0.416850E-01    0.631465E+00    0.112171E+00    0.519294E+00
   ------------------------------------------------------------------------

         :::::::::::::::::::::::::::::::::::::::::::::::::::::
         ::                  THERMODYNAMIC                  ::
         :::::::::::::::::::::::::::::::::::::::::::::::::::::
         :: total free energy        -122.941051005066 Eh   ::
         ::.................................................::
         :: total energy             -123.460345009693 Eh   ::
         :: zero point energy           0.589780195415 Eh   ::
         :: G(RRHO) w/o ZPVE           -0.070486190788 Eh   ::
         :: G(RRHO) contrib.            0.519294004627 Eh   ::
         :::::::::::::::::::::::::::::::::::::::::::::::::::::

           -------------------------------------------------
          | TOTAL ENERGY             -123.460345009693 Eh   |
          | TOTAL ENTHALPY           -122.828879797384 Eh   |
          | TOTAL FREE ENERGY        -122.941051005066 Eh   |
          | GRADIENT NORM               0.000046898849 Eh/α |
          | HOMO-LUMO GAP               1.339722030610 eV   |
           -------------------------------------------------

 * finished run on 2025/07/16 at 14:55:37.468
