   * xtb version 6.7.1 (edcfbbe) compiled by 'albert@albert-system' on 2024-07-22

   ID    Z sym.   atoms
    1    6 C      1-4, 6-11, 13-28, 30-35, 37-45, 47
    2    7 N      5, 29, 46, 48
    3   16 S      12, 36
    4    1 H      49-78

          program call               : xtb data2507/gas/PTZ-mPYR/PTZ-mPYR_gas_T1_crest.xyz --gfn 2 --spinpol --tblite --uhf 2 --ohess vtight --parallel 40 --molden --ceasefiles --namespace data2507/gas/PTZ-mPYR/PTZ-mPYR_gas_T1_finalOpt
 * total energy  :  -123.3943945 Eh     change       -0.6259327E-08 Eh
 * total energy  :  -123.3944268 Eh     change       -0.3238461E-04 Eh
 * total energy  :  -123.3944366 Eh     change       -0.9722347E-05 Eh
 * total energy  :  -123.3944378 Eh     change       -0.1230922E-05 Eh
 * total energy  :  -123.3944392 Eh     change       -0.1366166E-05 Eh
 * total energy  :  -123.3944407 Eh     change       -0.1535120E-05 Eh
 * total energy  :  -123.3944425 Eh     change       -0.1778995E-05 Eh
 * total energy  :  -123.3944442 Eh     change       -0.1689665E-05 Eh
 * total energy  :  -123.3944451 Eh     change       -0.9580027E-06 Eh
 * total energy  :  -123.3944464 Eh     change       -0.1238801E-05 Eh
 * total energy  :  -123.3944529 Eh     change       -0.6319960E-06 Eh
 * total energy  :  -123.3944535 Eh     change       -0.5470186E-06 Eh
 * total energy  :  -123.3944537 Eh     change       -0.2432489E-06 Eh
 * total energy  :  -123.3944541 Eh     change       -0.4408589E-06 Eh
 * total energy  :  -123.3944544 Eh     change       -0.2523624E-06 Eh
 * total energy  :  -123.3944548 Eh     change       -0.4135140E-06 Eh
 * total energy  :  -123.3944544 Eh     change        0.3978249E-06 Eh
 * total energy  :  -123.3944550 Eh     change       -0.5469470E-06 Eh
 * total energy  :  -123.3944551 Eh     change       -0.8575913E-07 Eh
   *** GEOMETRY OPTIMIZATION CONVERGED AFTER 26 ITERATIONS ***

 final structure:
================
78
 xtb: 6.7.1 (edcfbbe)
C           -3.59144037786208       -3.39190389863974       -1.59141035353525
C           -3.63942664928756       -2.10918847934264       -0.82368324746296
C           -4.83134226748079       -1.41433785857791       -0.76024958972920
C           -4.93457422829941       -0.20064982902594       -0.08712796262597
N           -6.18648105731280        0.49019739006646       -0.04328208620866
C           -6.43269831056261        1.42776421399135       -1.03161259343492
C           -5.47665700933723        1.64194163355452       -2.03166852369331
C           -5.67469278110333        2.56802726742209       -3.03600223850395
C           -6.83910798409600        3.31617649703400       -3.08144734942496
C           -7.79923199107856        3.11943368608591       -2.10755517256251
C           -7.60474990644382        2.19093595860103       -1.09568861032610
S           -8.91345685547676        2.04622982373983        0.08154947919781
C           -8.31337291289529        0.76892601122548        1.14387438071927
C           -9.15649387443603        0.39681528524610        2.18044187475843
C           -8.78261897777327       -0.58396083510932        3.07891703478714
C           -7.54715934316800       -1.19217290265657        2.93231892988218
C           -6.70489089368876       -0.82655649074425        1.90157185352257
C           -7.06354818424082        0.16072696492184        0.97612522435336
C           -3.81602685690746        0.33307443237515        0.54237014360352
C           -2.62156938958496       -0.34591317373264        0.48792664394839
C           -2.49136159889430       -1.57185518317098       -0.19054756623389
C           -1.20922684553444       -2.23664533421814       -0.21981146291791
C           -0.00574583477399       -1.54512080197546       -0.10120556692820
C            1.19970355801329       -2.24528494097954       -0.11727000155525
C            2.48229565084123       -1.58764554212605       -0.03427881562524
C            2.60550677033857       -0.25070612376308       -0.45729184335249
C            3.80256407988073        0.42333323999486       -0.40401752967802
C            4.93250178811984       -0.22738375555960        0.07787092231384
N            6.18917631538218        0.45398101849470        0.13371619551447
C            7.01860666706521        0.35507277620914       -0.97041810668895
C            6.61316952451291       -0.41000997940052       -2.07052257390382
C            7.40553763114103       -0.53914733648206       -3.19342474294751
C            8.63621505221852        0.09229754265486       -3.26086571257226
C            9.05705873876303        0.85427420792046       -2.18792888338079
C            8.26438079626225        0.98802074567521       -1.05760495005897
S            8.92323910340444        1.99946707959802        0.23188091428825
C            7.66527567054394        1.88773991869052        1.46656203388456
C            7.90971700624734        2.57640997638378        2.64545965952570
C            6.99123645874151        2.56063103613225        3.67750780304202
C            5.81729346007698        1.84316719254404        3.51971031418641
C            5.56950543972775        1.15542367140870        2.34878964304679
C            6.48375389062521        1.15791787172520        1.28851933890591
C            4.83613420228957       -1.54973113717380        0.50085867441112
C            3.64121492996534       -2.24070766916549        0.45518417031095
C            3.60370563102847       -3.64930307941136        0.95686952960755
N            1.15108769681534       -3.61319199174150       -0.22444973410569
C           -0.00508745516391       -4.20373680047818       -0.35184461687488
N           -1.16213150000300       -3.60053349096710       -0.36846132969504
H           -4.54372654132424       -3.57911116262023       -2.08307302733151
H           -3.36478873725843       -4.22264186872673       -0.92604693229401
H           -2.80569550590196       -3.35752212064079       -2.34411276892581
H           -5.71090702128928       -1.81224780440616       -1.24739238765812
H           -4.56501333350019        1.06672778901481       -2.01337892167350
H           -4.91139799606105        2.70236215498363       -3.78703389258890
H           -7.00049559776398        4.04166972512077       -3.86277916098599
H           -8.71861861627337        3.68513646141431       -2.11535450697788
H          -10.11101914781472        0.89320094752246        2.26912679861026
H           -9.44628340410943       -0.86548300615632        3.88089045561986
H           -7.23183489820295       -1.95846833638051        3.62366351333813
H           -5.74637047002879       -1.31019595546820        1.80370930904304
H           -3.89616641240067        1.26885001830551        1.07603484793677
H           -1.77136975191178        0.06304816237847        1.01134339907314
H           -0.00732454580400       -0.47222134946886        0.00042887182156
H            1.74700453843882        0.25672545286952       -0.86878199881832
H            3.87637095444030        1.44634200403015       -0.74305953001783
H            5.65791108924940       -0.90851665715574       -2.03601922522164
H            7.05488238680465       -1.13855512927745       -4.01947419546782
H            9.26059793360693       -0.00445304205989       -4.13474041491928
H           10.01006165714332        1.36093425925249       -2.20950085918443
H            8.83453371167550        3.12571934511434        2.73675596054872
H            7.19149097853279        3.10035085593523        4.58935825286538
H            5.08544723646317        1.81525407759265        4.31238329861662
H            4.65086038399437        0.60100951194119        2.24360477646174
H            5.72410221797604       -2.03819359324491        0.87795882700458
H            2.83261938219863       -3.76402378829398        1.71666057766310
H            4.56469305084542       -3.92859221010434        1.38372621021428
H            3.36220136722092       -4.33367359935682        0.14599496313580
H           -0.00470628384264       -5.28219812146669       -0.45226713037157

 projected vibrational frequencies (cm⁻¹)
eigval :       -0.00    -0.00     0.00     0.00     0.00     0.00
eigval :        6.53     6.62    11.35    15.12    15.51    23.55
eigval :       24.26    31.88    37.32    38.09    54.10    75.22
eigval :       93.37    96.09    99.50   107.40   112.65   140.35
eigval :      142.82   144.70   145.98   159.22   159.67   197.48
eigval :      215.32   219.50   221.38   227.61   227.71   231.43
eigval :      237.00   258.25   272.56   309.67   313.02   326.71
eigval :      335.01   342.75   352.72   367.61   379.14   386.90
eigval :      395.97   397.33   401.85   410.03   413.99   415.29
eigval :      418.39   420.36   424.68   426.67   432.85   471.60
eigval :      483.58   487.18   488.29   488.34   490.00   509.66
eigval :      513.29   517.74   541.70   552.91   557.54   573.56
eigval :      595.09   602.78   604.12   610.08   642.22   647.21
eigval :      649.25   650.70   650.92   652.83   652.86   670.61
eigval :      673.17   697.14   703.16   703.49   710.42   725.14
eigval :      769.56   769.74   772.98   773.00   774.85   811.13
eigval :      814.11   823.83   827.07   843.80   862.21   862.30
eigval :      862.75   862.76   868.85   869.59   895.74   900.90
eigval :      901.95   902.86   902.89   903.20   903.22   907.48
eigval :      907.58   917.07   917.10   917.49   917.51   949.53
eigval :      983.00   984.17  1013.61  1014.14  1023.19  1024.31
eigval :     1024.91  1037.12  1045.05  1045.06  1060.48  1063.34
eigval :     1100.69  1101.61  1102.08  1102.15  1136.10  1142.89
eigval :     1151.84  1151.85  1157.13  1159.86  1160.47  1178.23
eigval :     1178.56  1178.70  1178.74  1188.11  1190.00  1212.56
eigval :     1216.35  1241.47  1241.58  1247.87  1247.92  1252.07
eigval :     1254.15  1262.17  1289.10  1301.79  1306.97  1307.03
eigval :     1315.39  1319.68  1324.00  1327.81  1329.51  1329.62
eigval :     1332.61  1334.16  1336.20  1384.94  1403.46  1403.64
eigval :     1405.57  1405.57  1409.54  1414.19  1418.07  1419.32
eigval :     1428.35  1445.17  1448.68  1448.86  1459.87  1461.52
eigval :     1462.15  1468.16  1469.32  1480.38  1480.81  1481.61
eigval :     1505.62  1506.63  1550.18  1550.27  1564.20  1565.15
eigval :     1569.37  1569.41  1573.45  1585.12  1586.49  1586.90
eigval :     3014.12  3014.42  3026.72  3027.21  3031.03  3031.52
eigval :     3036.02  3069.56  3069.72  3078.22  3078.50  3089.36
eigval :     3089.37  3089.81  3089.84  3092.41  3092.43  3092.65
eigval :     3092.96  3093.00  3096.52  3102.95  3105.94  3106.00
eigval :     3106.07  3106.31  3114.19  3114.45  3115.07  3115.27

   temp. (K)  partition function   enthalpy   heat capacity  entropy
                                   cal/mol     cal/K/mol   cal/K/mol   J/K/mol
 298.15  VIB  0.192E+21            23890.817    146.217    150.332
         ROT  0.139E+09              888.752      2.981     40.247
         INT  0.267E+29            24779.569    149.198    190.579
         TR   0.162E+29             1481.254      4.968     45.299
         TOT                       26260.8229   154.1658   235.8778   986.9127

       T/K    H(0)-H(T)+PV         H(T)/Eh          T*S/Eh         G(T)/Eh
   ------------------------------------------------------------------------
    298.15    0.418493E-01    0.628822E+00    0.112073E+00    0.516749E+00
   ------------------------------------------------------------------------

         :::::::::::::::::::::::::::::::::::::::::::::::::::::
         ::                  THERMODYNAMIC                  ::
         :::::::::::::::::::::::::::::::::::::::::::::::::::::
         :: total free energy        -122.877706476128 Eh   ::
         ::.................................................::
         :: total energy             -123.394455098359 Eh   ::
         :: zero point energy           0.586972483955 Eh   ::
         :: G(RRHO) w/o ZPVE           -0.070223861725 Eh   ::
         :: G(RRHO) contrib.            0.516748622230 Eh   ::
         :::::::::::::::::::::::::::::::::::::::::::::::::::::

           -------------------------------------------------
          | TOTAL ENERGY             -123.394455098359 Eh   |
          | TOTAL ENTHALPY           -122.765633329251 Eh   |
          | TOTAL FREE ENERGY        -122.877706476128 Eh   |
          | GRADIENT NORM               0.000054626567 Eh/α |
           -------------------------------------------------

 * finished run on 2025/07/16 at 15:09:10.990
