   * xtb version 6.7.1 (edcfbbe) compiled by 'albert@albert-system' on 2024-07-22

   ID    Z sym.   atoms
    1    6 C      1-4, 6-11, 13-28, 30-35, 37-45, 47
    2    7 N      5, 29, 46, 48
    3   16 S      12, 36
    4    1 H      49-78

          program call               : xtb data2507/gas/PTZ-mPYR/PTZ-mPYR_gas_S0_crest.xyz --gfn 2 --ohess vtight --parallel 40 --molden --ceasefiles --namespace data2507/gas/PTZ-mPYR/PTZ-mPYR_gas_S0_finalOpt
          :  Hamiltonian                  GFN2-xTB          :
 * total energy  :  -123.4612533 Eh     change       -0.9482761E-09 Eh
 * total energy  :  -123.4612545 Eh     change       -0.1192452E-05 Eh
 * total energy  :  -123.4612573 Eh     change       -0.2866848E-05 Eh
 * total energy  :  -123.4612631 Eh     change       -0.5750270E-05 Eh
 * total energy  :  -123.4612694 Eh     change       -0.6323445E-05 Eh
 * total energy  :  -123.4612733 Eh     change       -0.3876336E-05 Eh
 * total energy  :  -123.4612762 Eh     change       -0.2956102E-05 Eh
 * total energy  :  -123.4612797 Eh     change       -0.3427241E-05 Eh
 * total energy  :  -123.4612852 Eh     change       -0.5576646E-05 Eh
 * total energy  :  -123.4612919 Eh     change       -0.6675979E-05 Eh
 * total energy  :  -123.4614190 Eh     change       -0.2714105E-06 Eh
 * total energy  :  -123.4614193 Eh     change       -0.2817408E-06 Eh
 * total energy  :  -123.4614197 Eh     change       -0.3715908E-06 Eh
 * total energy  :  -123.4614203 Eh     change       -0.5905587E-06 Eh
 * total energy  :  -123.4614213 Eh     change       -0.1000359E-05 Eh
 * total energy  :  -123.4614228 Eh     change       -0.1475020E-05 Eh
 * total energy  :  -123.4614230 Eh     change       -0.2632504E-06 Eh
 * total energy  :  -123.4614233 Eh     change       -0.3210146E-06 Eh
 * total energy  :  -123.4614234 Eh     change       -0.6343960E-07 Eh
   *** GEOMETRY OPTIMIZATION CONVERGED AFTER 96 ITERATIONS ***

 final structure:
================
78
 xtb: 6.7.1 (edcfbbe)
C           -3.39728813596726       -3.07711253764149       -1.95225247349956
C           -3.54686914319908       -1.94035171810064       -0.99294235732187
C           -4.73850111698755       -1.23229189770370       -0.94808363057323
C           -4.91710706177535       -0.16992234396366       -0.07165712748764
N           -6.15110544691810        0.54154649139305       -0.03843928180551
C           -6.25755602222903        1.66808721490080       -0.84945235378925
C           -5.21795746501447        1.99369805696227       -1.72278625036924
C           -5.28126148391132        3.10807427968383       -2.54037900694008
C           -6.39458361047974        3.92603401732334       -2.52149534138724
C           -7.43962203758861        3.61558308113747       -1.66928936479979
C           -7.37291713875174        2.50974891958928       -0.83832895806827
S           -8.74947343537771        2.25715212836237        0.24634310206478
C           -8.43633864011775        0.61753364688189        0.83924092055093
C           -9.46958684389835        0.00981474339049        1.53262773198829
C           -9.30319816385403       -1.24159720723618        2.09912507103481
C           -8.08417346396629       -1.87838593553217        1.96724819002126
C           -7.05480894691068       -1.28111101251090        1.26155593543766
C           -7.20705989662614       -0.02552680136418        0.67048403341816
C           -3.88633876458216        0.20794847479980        0.77639248725223
C           -2.68935407969787       -0.47897689146481        0.73167111145082
C           -2.50496687209126       -1.55021381190342       -0.13964125049779
C           -1.20796560885394       -2.24518194703993       -0.12945581109360
C           -0.01268886938674       -1.53490140718007       -0.02631906227822
C            1.17434652908648       -2.26570694346174        0.00282047239109
C            2.48078274517276       -1.59174668168506        0.06791449401808
C            2.66858827251826       -0.43806590162902       -0.69022054009630
C            3.87558930559458        0.23267234141804       -0.68458338107484
C            4.91431381343495       -0.24804571301430        0.09893636889420
N            6.16292306763786        0.43923364028128        0.11073778007723
C            7.14119224389552        0.00476698406808       -0.77966698656434
C            6.90318346917232       -1.11399331670718       -1.58021114947976
C            7.84966580988643       -1.57620896616301       -2.47733787497873
C            9.07028781840427       -0.93973827232887       -2.59544887584678
C            9.32461420609738        0.17229754647218       -1.81219677659182
C            8.37390142517626        0.64670458981154       -0.92406648053353
S            8.79618357004145        2.11986737296497       -0.03584178960217
C            7.51320658119226        2.17920884447947        1.18356591888183
C            7.68250278800342        3.09536996883608        2.20807851297757
C            6.71054751576920        3.26091636444358        3.17906365958089
C            5.56302044162243        2.49426600238133        3.11421900060579
C            5.39728505816467        1.56706855853186        2.10066653756697
C            6.36716407735450        1.38249684554557        1.11347757005577
C            4.73329371927853       -1.39371387700353        0.86238926329072
C            3.53019733421402       -2.08382169859494        0.85713797232111
C            3.37957918424731       -3.31263223196666        1.69495411431264
N            1.15109949107006       -3.59872611599217       -0.04761378201170
C           -0.02878215342761       -4.17310973583279       -0.15336628685932
N           -1.20147750380586       -3.57701336508355       -0.20642614327800
H           -4.23054844942841       -3.10140750911557       -2.65003434371096
H           -3.36280424189026       -4.01780129923907       -1.40665735763755
H           -2.46766902615988       -2.99385673218276       -2.51174791404549
H           -5.55209191477118       -1.50939314947144       -1.60336656914364
H           -4.34195905399749        1.36503221945439       -1.75913326569984
H           -4.45189366758158        3.32832866445503       -3.19532921364590
H           -6.45420052434836        4.79534056940260       -3.15705220369168
H           -8.32148826705231        4.23670229475286       -1.62804032800060
H          -10.40356376824536        0.54165692800539        1.63297937437158
H          -10.11332159776819       -1.70220970408951        2.64199353004804
H           -7.92278218438631       -2.84843674916494        2.41230931668655
H           -6.11119417121829       -1.79640821074653        1.17553993896810
H           -4.02731807854873        1.03194366114062        1.45893287025307
H           -1.89221735064225       -0.19762462957564        1.40404212325938
H           -0.00697339472975       -0.45811709241872        0.02724922081083
H            1.86553999412056       -0.07613513910431       -1.31529810854599
H            4.01921304956401        1.12029415911622       -1.28140362741391
H            5.95785420564999       -1.62796051106603       -1.50406438418235
H            7.62298443942040       -2.44122909603731       -3.08189358335521
H            9.81578809572857       -1.29523896755038       -3.28901995523329
H           10.26435828953797        0.69800325067458       -1.88810017840264
H            8.58539693278792        3.68674123952746        2.22434372307333
H            6.85071156555684        3.98298407231730        3.96782690264625
H            4.78585649009251        2.60945456562510        3.85454145473573
H            4.49383994128465        0.97823990429165        2.07054157348298
H            5.55407856767332       -1.75105971460165        1.46793755665972
H            2.45609084081076       -3.28094260060510        2.26950187406013
H            4.21938213825617       -3.41571688780739        2.37756768289489
H            3.33170920523704       -4.19134941259687        1.05515589209787
H           -0.03533565299610       -5.25526045175506       -0.20324381938305

          :  Hamiltonian                  GFN2-xTB          :
         :: gradient norm              0.000058329965 Eh/a0 ::
         :: HOMO-LUMO gap              1.318584368483 eV    ::
         :: SCC energy              -125.613892116722 Eh    ::
         :: -> dispersion             -0.112411264614 Eh    ::
         :: repulsion energy           2.152468705627 Eh    ::

    * Orbital Energies and Occupations

         #    Occupation            Energy/Eh            Energy/eV
      -------------------------------------------------------------
         1        2.0000           -0.7154687             -19.4689
       ...           ...                  ...                  ...
       103        2.0000           -0.4194126             -11.4128
       104        2.0000           -0.4154556             -11.3051
       105        2.0000           -0.4143250             -11.2744
       106        2.0000           -0.4138938             -11.2626
       107        2.0000           -0.4107809             -11.1779
       108        2.0000           -0.4107123             -11.1761
       109        2.0000           -0.4094170             -11.1408
       110        2.0000           -0.4057865             -11.0420
       111        2.0000           -0.3799131             -10.3380
       112        2.0000           -0.3798179             -10.3354
       113        2.0000           -0.3735965             -10.1661
       114        2.0000           -0.3384223              -9.2089
       115        2.0000           -0.3382142              -9.2033 (HOMO)
       116                         -0.2897570              -7.8847 (LUMO)
       117                         -0.2710780              -7.3764
       118                         -0.2435212              -6.6265
       119                         -0.2432772              -6.6199
       120                         -0.2405486              -6.5457
       121                         -0.2404596              -6.5432
       122                         -0.2382172              -6.4822
       123                         -0.2299873              -6.2583
       124                         -0.2298543              -6.2547
       125                         -0.2248050              -6.1173
       126                         -0.2242921              -6.1033
       ...                                ...                  ...
       232                          0.6715343              18.2734
      -------------------------------------------------------------
                  HL-Gap            0.0484572 Eh            1.3186 eV

     #   Z          covCN         q      C6AA      α(0)
     1   6 C        3.758    -0.114    22.724     6.796
     2   6 C        2.967     0.029    27.349     8.578
     3   6 C        2.927    -0.048    29.197     8.861
     4   6 C        2.931     0.071    26.422     8.430
     5   7 N        2.750    -0.075    22.697     7.076
     6   6 C        2.944     0.060    26.654     8.467
     7   6 C        2.928    -0.059    29.472     8.903
     8   6 C        2.919    -0.034    28.857     8.809
     9   6 C        2.918    -0.040    28.989     8.829
    10   6 C        2.988    -0.040    28.988     8.832
    11   6 C        2.971     0.033    27.253     8.563
    12  16 S        2.136    -0.153   147.522    20.442
    13   6 C        2.971     0.033    27.260     8.564
    14   6 C        2.989    -0.040    28.987     8.832
    15   6 C        2.918    -0.040    28.989     8.829
    16   6 C        2.919    -0.034    28.849     8.808
    17   6 C        2.928    -0.059    29.473     8.903
    18   6 C        2.942     0.060    26.655     8.468
    19   6 C        2.920    -0.043    29.068     8.841
    20   6 C        2.926    -0.032    28.803     8.801
    21   6 C        2.981    -0.006    28.174     8.707
    22   6 C        2.981     0.114    25.482     8.280
    23   6 C        2.914    -0.063    29.563     8.916
    24   6 C        2.981     0.114    25.484     8.281
    25   6 C        2.981    -0.006    28.172     8.706
    26   6 C        2.926    -0.032    28.803     8.801
    27   6 C        2.919    -0.043    29.067     8.841
    28   6 C        2.931     0.071    26.417     8.429
    29   7 N        2.750    -0.075    22.703     7.077
    30   6 C        2.943     0.060    26.654     8.467
    31   6 C        2.928    -0.059    29.469     8.903
    32   6 C        2.919    -0.034    28.849     8.808
    33   6 C        2.918    -0.040    28.988     8.829
    34   6 C        2.988    -0.040    28.988     8.832
    35   6 C        2.971     0.033    27.258     8.564
    36  16 S        2.136    -0.153   147.528    20.443
    37   6 C        2.971     0.033    27.257     8.564
    38   6 C        2.988    -0.040    28.988     8.832
    39   6 C        2.918    -0.040    28.993     8.830
    40   6 C        2.919    -0.034    28.857     8.809
    41   6 C        2.928    -0.059    29.478     8.904
    42   6 C        2.942     0.060    26.653     8.467
    43   6 C        2.927    -0.048    29.193     8.861
    44   6 C        2.967     0.029    27.343     8.577
    45   6 C        3.758    -0.114    22.727     6.797
    46   7 N        1.840    -0.251    27.391     7.756
    47   6 C        2.910     0.151    24.725     8.154
    48   7 N        1.840    -0.251    27.391     7.756
    49   1 H        0.925     0.047     2.361     2.403
    50   1 H        0.925     0.075     2.028     2.227
    51   1 H        0.925     0.050     2.316     2.380
    52   1 H        0.926     0.046     2.370     2.408
    53   1 H        0.926     0.029     2.607     2.525
    54   1 H        0.926     0.032     2.552     2.498
    55   1 H        0.926     0.035     2.515     2.480
    56   1 H        0.926     0.043     2.406     2.425
    57   1 H        0.926     0.043     2.409     2.427
    58   1 H        0.926     0.035     2.515     2.480
    59   1 H        0.926     0.034     2.535     2.490
    60   1 H        0.926     0.032     2.561     2.503
    61   1 H        0.926     0.045     2.380     2.412
    62   1 H        0.926     0.040     2.454     2.450
    63   1 H        0.926     0.037     2.489     2.467
    64   1 H        0.926     0.040     2.453     2.449
    65   1 H        0.926     0.045     2.379     2.412
    66   1 H        0.926     0.031     2.572     2.508
    67   1 H        0.926     0.034     2.536     2.490
    68   1 H        0.926     0.035     2.515     2.480
    69   1 H        0.926     0.043     2.408     2.427
    70   1 H        0.926     0.043     2.407     2.426
    71   1 H        0.926     0.035     2.517     2.481
    72   1 H        0.926     0.032     2.553     2.499
    73   1 H        0.926     0.029     2.604     2.524
    74   1 H        0.926     0.046     2.369     2.407
    75   1 H        0.925     0.051     2.310     2.377
    76   1 H        0.925     0.047     2.360     2.402
    77   1 H        0.925     0.075     2.027     2.226
    78   1 H        0.925     0.042     2.423     2.434

molecular dipole:
                 x           y           z       tot (Debye)
 q only:       -0.015      -0.883      -0.044
   full:       -0.015      -0.845      -0.044       2.152

 projected vibrational frequencies (cm⁻¹)
eigval :       -0.00    -0.00    -0.00     0.00     0.00     0.00
eigval :        4.07     5.51     9.64    14.00    14.33    20.86
eigval :       23.79    26.15    33.23    37.46    49.87    76.05
eigval :       90.51    96.69    98.90   101.47   111.14   122.61
eigval :      124.91   141.09   144.92   158.60   164.57   194.99
eigval :      215.50   216.23   225.23   228.36   229.06   231.01
eigval :      231.76   260.66   268.27   280.54   302.40   312.38
eigval :      338.48   339.49   357.03   369.61   381.21   395.69
eigval :      398.58   401.88   404.77   407.92   411.93   413.25
eigval :      421.46   423.70   427.39   428.10   461.94   468.78
eigval :      488.58   490.71   491.20   492.30   492.35   505.15
eigval :      506.13   530.18   547.11   561.23   567.35   598.77
eigval :      607.18   615.91   617.03   641.67   646.64   646.92
eigval :      648.55   648.67   653.33   653.97   679.45   687.47
eigval :      706.25   707.22   714.48   716.35   743.75   751.14
eigval :      769.10   769.26   771.05   771.14   797.08   822.89
eigval :      825.30   830.40   832.54   858.26   858.56   859.24
eigval :      859.53   861.70   885.50   886.29   899.61   899.72
eigval :      900.23   900.34   910.00   910.11   911.66   914.22
eigval :      914.31   914.85   914.95   917.92   919.11   988.75
eigval :      989.43  1007.54  1018.98  1020.46  1026.14  1026.55
eigval :     1043.02  1043.07  1051.97  1063.17  1063.96  1076.41
eigval :     1104.43  1104.57  1105.27  1105.45  1140.84  1146.65
eigval :     1152.88  1152.92  1159.19  1159.38  1176.04  1178.57
eigval :     1180.91  1180.96  1184.74  1188.50  1201.74  1228.24
eigval :     1228.79  1245.86  1247.10  1247.13  1249.40  1253.45
eigval :     1257.74  1257.84  1271.42  1277.88  1305.58  1308.90
eigval :     1312.89  1315.22  1315.37  1317.78  1325.65  1326.20
eigval :     1335.39  1335.64  1369.54  1401.73  1402.35  1407.47
eigval :     1409.18  1409.22  1412.73  1422.31  1422.44  1438.81
eigval :     1463.16  1463.39  1466.51  1466.94  1476.50  1476.65
eigval :     1479.52  1480.18  1488.23  1488.74  1513.38  1554.20
eigval :     1556.60  1556.64  1561.60  1563.58  1571.02  1571.07
eigval :     1576.00  1576.00  1590.49  1591.62  1596.87  1597.31
eigval :     3023.40  3024.12  3038.58  3038.88  3042.76  3043.03
eigval :     3047.81  3081.31  3081.72  3081.92  3082.16  3084.96
eigval :     3084.97  3086.18  3086.38  3091.27  3091.33  3091.71
eigval :     3091.79  3097.89  3099.54  3099.96  3101.48  3101.63
eigval :     3102.56  3103.02  3106.57  3106.63  3107.74  3108.46

   temp. (K)  partition function   enthalpy   heat capacity  entropy
                                   cal/mol     cal/K/mol   cal/K/mol   J/K/mol
 298.15  VIB  0.105E+22            23856.376    144.785    151.714
         ROT  0.137E+09              888.752      2.981     40.207
         INT  0.143E+30            24745.128    147.766    191.920
         TR   0.162E+29             1481.254      4.968     45.299
         TOT                       26226.3824   152.7337   237.2192   992.5250

       T/K    H(0)-H(T)+PV         H(T)/Eh          T*S/Eh         G(T)/Eh
   ------------------------------------------------------------------------
    298.15    0.417944E-01    0.631424E+00    0.112710E+00    0.518714E+00
   ------------------------------------------------------------------------

         :::::::::::::::::::::::::::::::::::::::::::::::::::::
         ::                  THERMODYNAMIC                  ::
         :::::::::::::::::::::::::::::::::::::::::::::::::::::
         :: total free energy        -122.942709787074 Eh   ::
         ::.................................................::
         :: total energy             -123.461423411108 Eh   ::
         :: zero point energy           0.589629709939 Eh   ::
         :: G(RRHO) w/o ZPVE           -0.070916085905 Eh   ::
         :: G(RRHO) contrib.            0.518713624033 Eh   ::
         :::::::::::::::::::::::::::::::::::::::::::::::::::::

           -------------------------------------------------
          | TOTAL ENERGY             -123.461423411108 Eh   |
          | TOTAL ENTHALPY           -122.829999300554 Eh   |
          | TOTAL FREE ENERGY        -122.942709787074 Eh   |
          | GRADIENT NORM               0.000058378745 Eh/α |
          | HOMO-LUMO GAP               1.318586913749 eV   |
           -------------------------------------------------

 * finished run on 2025/07/16 at 15:01:25.852
