   * xtb version 6.7.1 (edcfbbe) compiled by 'albert@albert-system' on 2024-07-22

   ID    Z sym.   atoms
    1    6 C      1-15, 17-34, 36-59
    2    7 N      16, 35
    3    1 H      60-107

          program call               : xtb data2507/gas/CPTBF/CPTBF_gas_T1_crest.xyz --gfn 2 --spinpol --tblite --uhf 2 --ohess vtight --parallel 40 --molden --ceasefiles --namespace data2507/gas/CPTBF/CPTBF_gas_T1_finalOpt
 * total energy  :  -152.4017214 Eh     change       -0.2976296E-07 Eh
 * total energy  :  -152.4017595 Eh     change       -0.3817432E-04 Eh
 * total energy  :  -152.4017691 Eh     change       -0.9575816E-05 Eh
 * total energy  :  -152.4017711 Eh     change       -0.1943961E-05 Eh
 * total energy  :  -152.4017730 Eh     change       -0.1913108E-05 Eh
 * total energy  :  -152.4017746 Eh     change       -0.1637271E-05 Eh
 * total energy  :  -152.4017763 Eh     change       -0.1699809E-05 Eh
 * total energy  :  -152.4017775 Eh     change       -0.1190056E-05 Eh
 * total energy  :  -152.4017781 Eh     change       -0.5823551E-06 Eh
 * total energy  :  -152.4017785 Eh     change       -0.4121196E-06 Eh
 * total energy  :  -152.4017800 Eh     change       -0.4718137E-06 Eh
 * total energy  :  -152.4017805 Eh     change       -0.4803249E-06 Eh
 * total energy  :  -152.4017810 Eh     change       -0.5287875E-06 Eh
 * total energy  :  -152.4017815 Eh     change       -0.4938827E-06 Eh
 * total energy  :  -152.4017819 Eh     change       -0.3908945E-06 Eh
 * total energy  :  -152.4017827 Eh     change       -0.7358449E-06 Eh
 * total energy  :  -152.4017829 Eh     change       -0.2409378E-06 Eh
 * total energy  :  -152.4017832 Eh     change       -0.2656069E-06 Eh
 * total energy  :  -152.4017832 Eh     change       -0.6131413E-07 Eh
   *** GEOMETRY OPTIMIZATION CONVERGED AFTER 22 ITERATIONS ***

 final structure:
================
107
 xtb: 6.7.1 (edcfbbe)
C            2.40753518082887       -4.95460257794035       -1.55382112384393
C            1.12763488604416       -4.99986368449686       -2.40593530295165
C           -0.03404966541624       -5.54284635557036       -1.55608956007370
C            1.36357492194616       -5.97143197962984       -3.56545452816151
C            0.78891014171697       -3.59993795065866       -2.86639973364876
C            0.67724748489941       -3.23807700414099       -4.23428956554749
C            0.36934395799670       -1.97536149396755       -4.63858805384378
C            0.14509905536335       -0.95569087396481       -3.65879572888419
C            0.25304531362929       -1.32916395335965       -2.26036044065419
C            0.56776676852185       -2.59335676085081       -1.89039100248709
C            0.00447359658206       -0.11570665253433       -1.38391590367849
C            1.26010939629815        0.10840687995638       -0.57123314167123
C            2.29124456554757        0.90014754243684       -1.06252427524256
C            3.47761197316231        1.02882443652201       -0.36750629957894
C            3.65632731881213        0.35933683457793        0.83891779693231
N            4.86023657819700        0.48043565607716        1.54669473466438
C            5.62472219311053       -0.56656745334120        2.01925321264063
C            5.43586341511267       -1.93373517587969        1.87414042285706
C            6.37795193338119       -2.77712946380481        2.43079149880449
C            7.48844780951816       -2.28035020965995        3.10983480640416
C            7.69429533962055       -0.92088398037627        3.23638754091193
C            6.76154129552412       -0.05271722672392        2.68508918993687
C            6.66656010486710        1.37834915530217        2.60763536941999
C            7.45853970790999        2.41612585763825        3.08022336489533
C            7.05703234866605        3.71575396741291        2.84289987676439
C            5.87558105568804        3.98686660168194        2.15615962229626
C            5.07066749515797        2.97164542320934        1.67631502909006
C            5.48018610357995        1.66350598365638        1.89260042005918
C            2.62850180648024       -0.43704916515582        1.33658320335525
C            1.44779640698272       -0.56250979950894        0.63325413430735
C           -1.24643809427305       -0.21526208673437       -0.53927080960585
C           -1.42544200182125        0.62620753831796        0.55442573167450
C           -2.60520160985260        0.61492665809072        1.27020218309866
C           -3.64087705965416       -0.23693087768487        0.89587859369491
N           -4.84587385028867       -0.23815689647582        1.61205681644031
C           -5.48100271637285       -1.34902363755897        2.12784572319187
C           -5.08748449306068       -2.67963557750243        2.10982014596010
C           -5.90630562888506       -3.60253997184416        2.73158151893658
C           -7.08573930791115       -3.21814516098345        3.36571789394272
C           -7.47124978953491       -1.89287406664853        3.40610874210370
C           -6.66526428885557       -0.94646896441791        2.78786491741354
C           -6.74307666530823        0.48114748677159        2.65055316502081
C           -7.66664762816155        1.43268871155680        3.06198855370115
C           -7.44473516450216        2.75535825466874        2.73357044164654
C           -6.32727330230605        3.13206444526255        1.99163692646271
C           -5.39390087030959        2.20415955953203        1.57153392919027
C           -5.59890987690672        0.87648041037071        1.91960211025764
C           -3.46955659023109       -1.07974861776920       -0.19769726327059
C           -2.28404475066991       -1.06417118528615       -0.90575305101610
C           -0.25522130962620        0.95745710023964       -2.42481735783049
C           -0.56490457490803        2.26271358121660       -2.23879203906880
C           -0.80351063108195        3.11569781785971       -3.34768659309773
C           -1.13824247871403        4.56781423649415       -3.09114433043506
C            0.03515758323309        5.22911568219526       -2.34793421701238
C           -1.39460876731677        5.35972178999373       -4.37612508171162
C           -2.40463056519908        4.64704392164948       -2.22144549381879
C           -0.71410875633575        2.55725919986221       -4.64954478325400
C           -0.41128213135363        1.24860563483029       -4.86961892387435
C           -0.16966906702593        0.38308526745908       -3.75494071876262
H            2.67230866308504       -5.95733153083083       -1.22476115905708
H            3.23274621485966       -4.55227063501378       -2.13779461196497
H            2.27817782705971       -4.33035508170935       -0.67407452992827
H           -0.21487794829312       -4.91763835280030       -0.68605044620493
H            0.19317625702731       -6.54981053968216       -1.21235372341153
H           -0.94694636860199       -5.57691285547401       -2.14726649483633
H            0.47318277445351       -6.07030096228189       -4.18212794645845
H            1.60751578590795       -6.95539974126006       -3.16966248688784
H            2.19420935618460       -5.64451465163152       -4.18675239647357
H            0.84457807809482       -3.98998179849331       -4.98870010508047
H            0.29790985658209       -1.72766258310462       -5.68663533026267
H            0.64550644735200       -2.83926151040006       -0.84190654673285
H            2.16472333769716        1.41459911033641       -2.00378618502985
H            4.27952270046579        1.63257222175038       -0.76551215014154
H            4.58818828120571       -2.32677322006928        1.33320695343559
H            6.25276528498976       -3.84557204328066        2.33385469934237
H            8.20089380087234       -2.97261595768103        3.53329897321574
H            8.56345532726365       -0.53621271520499        3.74835574352246
H            8.36655094281874        2.20629551541547        3.62521123881976
H            7.65985313596680        4.53739147615978        3.20015494228343
H            5.58055626310962        5.01383937280591        1.99817577629866
H            4.14871828105196        3.19065449297465        1.15896890730095
H            2.75749555327025       -0.94318501587203        2.28189365715713
H            0.65323068679587       -1.17593537101163        1.03313396919306
H           -0.62541727727813        1.28583446565427        0.85834368143494
H           -2.72801878541573        1.25587015944240        2.13074688743851
H           -4.16723242290875       -2.98416848854199        1.63442297448231
H           -5.62406791796540       -4.64513483279275        2.72873186666682
H           -7.69980798572965       -3.97028844688108        3.83827167214536
H           -8.37776434964074       -1.59346171533088        3.91019413904355
H           -8.54125091753381        1.13903787533299        3.62266316116726
H           -8.14993650295801        3.51129174503188        3.04564020028185
H           -6.18963088724462        4.17231049553286        1.73554744582987
H           -4.54077969347639        2.50198164795249        0.98066735821477
H           -4.27691201217936       -1.72939858117769       -0.50118894789349
H           -2.16379265403331       -1.71283623224562       -1.76098382771218
H           -0.62575723260523        2.65941280676109       -1.23641643051570
H            0.93892186196376        5.17587578597102       -2.95159477825692
H           -0.18877432004464        6.27565714693533       -2.15205714624943
H            0.23035653573841        4.73816864332793       -1.39849630469357
H           -0.51420915405052        5.36747121879748       -5.01462944475125
H           -2.23411441542173        4.94559849909159       -4.92981447767300
H           -1.63462017386523        6.39092145340338       -4.12437896543395
H           -3.23790153831595        4.16384976122188       -2.72747547603630
H           -2.26002988099550        4.15753975193027       -1.26235137095023
H           -2.66663961058411        5.68697200617321       -2.03771645059027
H           -0.89506604851914        3.19076927968023       -5.50302518680606
H           -0.35707173984982        0.85001912160799       -5.87114400318392

 projected vibrational frequencies (cm⁻¹)
eigval :       -0.00    -0.00    -0.00     0.00     0.00     0.00
eigval :        8.96    10.02    13.18    13.34    17.01    17.31
eigval :       23.26    33.53    39.62    40.26    46.06    51.75
eigval :       56.38    68.90    76.55    81.08    96.73   103.38
eigval :      104.14   108.51   122.62   131.53   143.44   145.34
eigval :      146.58   164.68   169.42   171.93   178.36   179.33
eigval :      190.24   209.12   213.36   221.69   221.89   230.98
eigval :      234.38   259.79   271.25   271.64   273.09   274.83
eigval :      300.06   303.85   310.85   315.33   320.78   321.20
eigval :      327.17   343.26   345.91   355.19   356.12   366.01
eigval :      380.93   384.61   387.11   390.78   392.40   404.70
eigval :      405.15   416.47   417.55   424.67   427.73   432.02
eigval :      437.22   442.99   446.74   447.09   476.35   487.62
eigval :      504.51   515.71   518.74   519.04   528.18   533.31
eigval :      534.90   535.94   540.81   540.84   574.38   578.68
eigval :      583.49   589.71   597.20   600.67   607.74   612.35
eigval :      616.82   621.43   642.24   649.06   671.43   673.56
eigval :      674.14   674.68   691.72   705.09   705.81   707.72
eigval :      709.24   718.43   732.91   757.10   757.38   764.44
eigval :      769.15   769.24   772.32   780.14   780.21   786.22
eigval :      817.23   822.02   861.44   864.26   866.73   866.88
eigval :      869.73   872.65   872.93   875.85   880.61   882.21
eigval :      894.89   895.16   897.67   898.28   900.88   902.19
eigval :      902.32   902.85   902.93   918.16   919.12   919.36
eigval :      920.90   921.27   925.87   926.52   929.56   935.25
eigval :      936.91   945.51   954.80   954.82   955.55   960.49
eigval :      960.78   962.16   962.20   967.42  1012.29  1012.31
eigval :     1017.35  1026.60  1028.56  1028.66  1032.70  1033.04
eigval :     1069.98  1069.98  1073.35  1073.49  1083.29  1090.34
eigval :     1115.93  1118.27  1118.64  1123.37  1139.16  1139.29
eigval :     1151.51  1151.56  1171.47  1172.58  1176.05  1176.29
eigval :     1180.92  1180.94  1181.91  1182.70  1185.39  1200.00
eigval :     1200.30  1204.20  1211.36  1211.46  1221.18  1231.10
eigval :     1234.58  1236.40  1236.47  1241.02  1247.20  1254.29
eigval :     1261.02  1267.74  1268.51  1274.09  1295.38  1295.49
eigval :     1299.69  1300.05  1303.08  1303.39  1316.65  1320.98
eigval :     1323.02  1354.26  1356.55  1357.06  1360.87  1360.92
eigval :     1367.73  1368.49  1377.47  1391.87  1401.85  1401.93
eigval :     1403.77  1404.47  1406.69  1410.97  1425.84  1425.99
eigval :     1426.38  1426.42  1431.52  1432.08  1475.04  1475.10
eigval :     1479.11  1485.06  1488.29  1488.38  1489.90  1490.01
eigval :     1490.11  1490.81  1493.12  1493.26  1499.45  1500.09
eigval :     1503.51  1503.60  1513.78  1513.80  1519.00  1519.11
eigval :     1539.58  1560.71  1565.18  1571.24  1573.99  1574.39
eigval :     1588.21  1588.54  1592.02  1593.44  1596.74  1596.80
eigval :     1611.12  1611.87  1629.53  3021.27  3021.31  3022.15
eigval :     3022.19  3026.65  3026.70  3029.05  3029.30  3030.47
eigval :     3030.55  3035.48  3035.53  3038.30  3038.54  3045.48
eigval :     3045.56  3048.61  3048.75  3074.18  3075.53  3075.64
eigval :     3075.88  3076.01  3076.40  3080.62  3080.71  3080.84
eigval :     3081.24  3081.28  3081.96  3081.99  3082.80  3082.95
eigval :     3085.09  3087.53  3087.58  3089.50  3089.59  3090.17
eigval :     3090.66  3093.67  3093.79  3094.16  3094.25  3095.37
eigval :     3096.67  3108.77  3108.89

   temp. (K)  partition function   enthalpy   heat capacity  entropy
                                   cal/mol     cal/K/mol   cal/K/mol   J/K/mol
 298.15  VIB  0.138E+25            30396.469    190.328    188.978
         ROT  0.161E+09              888.752      2.981     40.530
         INT  0.222E+33            31285.221    193.309    229.508
         TR   0.203E+29             1481.254      4.968     45.747
         TOT                       32766.4748   198.2774   275.2548  1151.6660

       T/K    H(0)-H(T)+PV         H(T)/Eh          T*S/Eh         G(T)/Eh
   ------------------------------------------------------------------------
    298.15    0.522167E-01    0.912771E+00    0.130782E+00    0.781988E+00
   ------------------------------------------------------------------------

         :::::::::::::::::::::::::::::::::::::::::::::::::::::
         ::                  THERMODYNAMIC                  ::
         :::::::::::::::::::::::::::::::::::::::::::::::::::::
         :: total free energy        -151.619794902339 Eh   ::
         ::.................................................::
         :: total energy             -152.401783227204 Eh   ::
         :: zero point energy           0.860554055017 Eh   ::
         :: G(RRHO) w/o ZPVE           -0.078565730152 Eh   ::
         :: G(RRHO) contrib.            0.781988324865 Eh   ::
         :::::::::::::::::::::::::::::::::::::::::::::::::::::

           -------------------------------------------------
          | TOTAL ENERGY             -152.401783227204 Eh   |
          | TOTAL ENTHALPY           -151.489012470849 Eh   |
          | TOTAL FREE ENERGY        -151.619794902339 Eh   |
          | GRADIENT NORM               0.000050761411 Eh/α |
           -------------------------------------------------

 * finished run on 2025/09/10 at 04:24:22.158
