   * xtb version 6.7.1 (edcfbbe) compiled by 'albert@albert-system' on 2024-07-22

   ID    Z sym.   atoms
    1    6 C      1-15, 17-34, 36-59
    2    7 N      16, 35
    3    1 H      60-107

          program call               : xtb data2507/gas/CPTBF/CPTBF_gas_S0_finalOpt.xtbopt.xyz --gfn 2 --spinpol --tblite --uhf 2 --ohess vtight --parallel 40 --molden --ceasefiles --namespace data2507/gas/CPTBF/CPTBF_gas_T1_preOpt
 * total energy  :  -152.3924679 Eh     change        0.5136536E-07 Eh
 * total energy  :  -152.3940544 Eh     change       -0.1586533E-02 Eh
 * total energy  :  -152.3968322 Eh     change       -0.2777782E-02 Eh
 * total energy  :  -152.2767823 Eh     change        0.1200499E+00 Eh
 * total energy  :  -152.3880234 Eh     change       -0.1112412E+00 Eh
 * total energy  :  -152.3977894 Eh     change       -0.9765982E-02 Eh
 * total energy  :  -152.3979344 Eh     change       -0.1450226E-03 Eh
 * total energy  :  -152.3984123 Eh     change       -0.4778474E-03 Eh
 * total energy  :  -152.3986911 Eh     change       -0.2788719E-03 Eh
 * total energy  :  -152.3995314 Eh     change       -0.8402147E-03 Eh
 * total energy  :  -152.4017767 Eh     change       -0.4125767E-06 Eh
 * total energy  :  -152.4017776 Eh     change       -0.9388623E-06 Eh
 * total energy  :  -152.4017785 Eh     change       -0.8409222E-06 Eh
 * total energy  :  -152.4017792 Eh     change       -0.6959930E-06 Eh
 * total energy  :  -152.4017800 Eh     change       -0.7717242E-06 Eh
 * total energy  :  -152.4017802 Eh     change       -0.2690500E-06 Eh
 * total energy  :  -152.4017804 Eh     change       -0.1491585E-06 Eh
 * total energy  :  -152.4017805 Eh     change       -0.1377475E-06 Eh
 * total energy  :  -152.4017806 Eh     change       -0.5921689E-07 Eh
   *** GEOMETRY OPTIMIZATION CONVERGED AFTER 44 ITERATIONS ***

 final structure:
================
107
 xtb: 6.7.1 (edcfbbe)
C            2.24843495569993       -4.98291991789227       -1.69396264965591
C            0.96893020829169       -4.96127778404470       -2.54750180221337
C           -0.21323636184165       -5.48048313696684       -1.71106322515823
C            1.16975315258698       -5.91390072152012       -3.72913117867872
C            0.68311293982745       -3.53944309100752       -2.97544998414663
C            0.59554403137735       -3.14015020299926       -4.33464225341026
C            0.33131105178751       -1.85860335340587       -4.70951940561315
C            0.12856301076279       -0.85746359371743       -3.70612033441896
C            0.21529898150074       -1.26835936291316       -2.31678585344876
C            0.48813312853335       -2.55037632898628       -1.97617210043717
C           -0.00652176814621       -0.07066753982167       -1.41197518906929
C            1.25100047149899        0.10427660635811       -0.58939924448994
C            2.30214078124144        0.88383773083448       -1.05730224121944
C            3.48577960880886        0.97367777895949       -0.35159901500301
C            3.64155051321341        0.27716333678072        0.84263896827221
N            4.84064778382155        0.36285009802729        1.56349109965926
C            5.57936546166990       -0.70621685445478        2.02760882831053
C            5.36671508055575       -2.06696761274537        1.85724573607620
C            6.28561749192877       -2.93723412834328        2.41128352090894
C            7.39657629357065       -2.47300892179149        3.11223761446126
C            7.62654102036718       -1.11998091390294        3.26378676533938
C            6.71741636729385       -0.22524646219062        2.71551969525727
C            6.65058480741080        1.20845405400962        2.66075250823563
C            7.45660840821536        2.22281283839580        3.15970241341752
C            7.08299301448672        3.53368865788716        2.93932527043083
C            5.91509504483857        3.83876016728154        2.24373207769259
C            5.09663495490242        2.84728610703220        1.73783419160058
C            5.47854542214833        1.52806036666896        1.93671064172813
C            2.59470599854776       -0.50964770327402        1.31531034200097
C            1.41720690714893       -0.59690129278087        0.60090602996814
C           -1.26070633647942       -0.16488535150895       -0.57132519760008
C           -1.42291127066297        0.64981356076135        0.54496760904623
C           -2.59781419950803        0.63315062011365        1.26870244130372
C           -3.64588230500905       -0.19659562766040        0.87957250892945
N           -4.84248921087389       -0.21080737760393        1.60949996518236
C           -5.47806451781240       -1.33336569752807        2.09912596652026
C           -5.09546756631529       -2.66558290908566        2.03150490114910
C           -5.91124580006158       -3.60220052963170        2.63654451957340
C           -7.07717479405373       -3.23003743042182        3.30214432809705
C           -7.45147484489840       -1.90398131278375        3.39181466359856
C           -6.64812598053590       -0.94389200922357        2.79147370220299
C           -6.71622043974244        0.48807609509754        2.70307399825537
C           -7.62454525360927        1.43249976051333        3.16205980872605
C           -7.39637476113327        2.76377848463829        2.87538008597530
C           -6.28795920835613        3.15644796789243        2.12817718217505
C           -5.36987730871724        2.23581817552653        1.66099704747367
C           -5.58077208193675        0.89873873735993        1.96697793316856
C           -3.49394323699959       -1.00746447956900       -0.24067587239059
C           -2.31299659766466       -0.98709271611900       -0.95626302003012
C           -0.23205481788505        1.03414004782335       -2.42734407354978
C           -0.50538606716986        2.34277003790734       -2.21104789438459
C           -0.70497320190101        3.23065278221152       -3.30035984368079
C           -0.99288523823362        4.68648492995895       -3.01042597567465
C            0.19011872847269        5.28630026623799       -2.23106884045982
C           -1.19901867394630        5.52056026731038       -4.27765550201094
C           -2.27028810743815        4.78739189982334       -2.15940838943657
C           -0.62049568657828        2.70242950672647       -4.61500798206692
C           -0.35572685689294        1.39097521049511       -4.86544015431068
C           -0.14934780768004        0.49127399305805       -3.77085298236290
H            2.47304987105191       -6.00136530751030       -1.38386858740464
H            3.08957764500281       -4.60238598408523       -2.26974915965468
H            2.14247650173154       -4.37058882488296       -0.80275611179456
H           -0.36823337491952       -4.87346401068556       -0.82335745100441
H           -0.02661437531934       -6.50504243785149       -1.39610383714301
H           -1.12714294919100       -5.46116113067190       -2.30135266057857
H            0.27768853575944       -5.96306768622270       -4.34936897920447
H            1.37391908792765       -6.91566400299989       -3.35612635701317
H            2.01419248483834       -5.60563587629972       -4.34126886143654
H            0.74587002847473       -3.87795067045427       -5.10635833287709
H            0.27737835309286       -1.58265267648626       -5.75152853669000
H            0.55067171267181       -2.82422127431988       -0.93360382178229
H            2.19335274553505        1.42051188372139       -1.98828204824401
H            4.30268188865511        1.56882201696911       -0.73163506012288
H            4.51875837932827       -2.43484825185910        1.29933291093411
H            6.14152775035295       -4.00135116868830        2.29494499647744
H            8.09027150702498       -3.18562958323610        3.53305303942548
H            8.49624116019751       -0.76041644121110        3.79279892654692
H            8.35386658550849        1.98651163458861        3.71161933013259
H            7.69724580151344        4.33755396214733        3.31696037233574
H            5.64161086965762        4.87368742914894        2.09947737941425
H            4.18512271953939        3.09272541775939        1.21391735986679
H            2.70608284425979       -1.03780080214494        2.25075100644335
H            0.60809894754798       -1.20313507708305        0.98209570818477
H           -0.61269286394812        1.29062577917407        0.86180049351629
H           -2.70623381655103        1.25091212576717        2.14792087114916
H           -4.18544976325381       -2.96138174327353        1.53153599087151
H           -5.63719044381055       -4.64617099927410        2.59535758466412
H           -7.68933587312399       -3.99263174282851        3.76020563873120
H           -8.34719357607095       -1.61444104069833        3.92037439800805
H           -8.49230970143002        1.12700482974755        3.72701626017421
H           -8.08953526682218        3.51438955610421        3.22500294995923
H           -6.14525743544346        4.20372694040917        1.90573096311856
H           -4.52388081551796        2.54666570616306        1.06659956485805
H           -4.31178278499018       -1.63753148167520       -0.55709115874166
H           -2.20730340757426       -1.61272655319768       -1.83032422600103
H           -0.56510865293098        2.71582201727855       -1.19956845431423
H            1.10257530750009        5.21230530662059       -2.81927412229884
H            0.00177814495444        6.33598859185528       -2.01557641673452
H            0.34884505958992        4.76781865160352       -1.28952979157657
H           -0.30866729853362        5.51173357298287       -4.90222325110012
H           -2.04427659742819        5.15300453051127       -4.85493874320905
H           -1.40464428543169        6.55312758651137       -4.00220367651346
H           -3.11195032295046        4.35133528269325       -2.69356339651548
H           -2.16056760136752        4.26392743433911       -1.21369498528736
H           -2.49662554623285        5.83046173888921       -1.94817206035126
H           -0.77376845824289        3.36233138414175       -5.45377601090216
H           -0.30422410457033        1.01600436613543       -5.87617618067174

 projected vibrational frequencies (cm⁻¹)
eigval :       -0.00    -0.00    -0.00     0.00     0.00     0.00
eigval :        9.08    10.38    13.12    13.41    17.22    17.58
eigval :       23.42    33.84    39.68    40.42    46.34    51.84
eigval :       56.30    68.88    76.79    81.06    97.42   103.49
eigval :      104.23   108.82   123.54   131.29   143.55   145.60
eigval :      146.59   164.75   169.71   172.28   178.19   178.98
eigval :      190.52   209.39   213.53   221.83   221.84   231.03
eigval :      234.48   259.93   271.28   271.68   273.43   274.81
eigval :      300.21   303.58   311.05   315.40   320.81   321.27
eigval :      327.11   342.82   345.92   355.24   356.17   365.90
eigval :      381.14   384.61   387.43   390.87   392.50   404.83
eigval :      405.24   416.56   417.69   424.76   427.92   432.22
eigval :      437.39   443.17   446.85   447.22   476.27   487.83
eigval :      504.76   515.64   518.76   519.07   528.09   533.29
eigval :      534.98   535.84   540.87   540.87   574.42   578.72
eigval :      583.58   589.83   597.32   600.59   607.96   612.38
eigval :      616.91   621.44   642.22   649.24   671.70   673.57
eigval :      674.17   674.73   692.09   705.04   706.15   707.73
eigval :      709.17   718.63   732.86   757.06   757.34   764.33
eigval :      769.27   769.41   772.21   780.31   780.38   786.09
eigval :      817.44   822.24   861.35   864.09   866.93   867.07
eigval :      869.73   872.85   873.14   875.91   880.91   882.45
eigval :      894.86   895.15   897.62   898.20   900.90   902.36
eigval :      902.49   903.02   903.07   917.95   919.33   919.56
eigval :      921.08   921.42   926.22   926.85   929.99   935.53
eigval :      937.09   945.41   954.95   954.97   955.45   960.51
eigval :      960.80   962.29   962.32   966.95  1012.09  1012.11
eigval :     1017.13  1026.30  1028.67  1028.72  1032.82  1033.04
eigval :     1069.73  1069.75  1073.22  1073.32  1083.12  1090.23
eigval :     1115.82  1118.29  1118.55  1123.23  1139.44  1139.52
eigval :     1151.62  1151.68  1171.68  1173.00  1176.50  1176.61
eigval :     1181.24  1181.26  1182.14  1183.05  1185.63  1200.39
eigval :     1200.68  1203.85  1211.53  1211.62  1221.50  1231.21
eigval :     1234.57  1236.49  1236.56  1241.09  1247.34  1254.11
eigval :     1260.99  1267.96  1268.83  1274.15  1295.55  1295.81
eigval :     1300.11  1300.39  1303.14  1303.43  1316.61  1321.20
eigval :     1323.04  1354.36  1356.51  1357.32  1360.92  1360.96
eigval :     1368.29  1368.78  1378.16  1392.33  1402.29  1402.34
eigval :     1404.06  1404.75  1406.50  1410.74  1426.46  1426.63
eigval :     1426.77  1426.90  1431.64  1432.33  1475.13  1475.17
eigval :     1479.26  1485.07  1488.38  1488.47  1490.22  1490.40
eigval :     1490.45  1491.11  1493.54  1493.64  1499.81  1500.46
eigval :     1503.93  1503.99  1514.20  1514.21  1519.33  1519.39
eigval :     1539.77  1560.73  1565.17  1571.64  1573.94  1574.35
eigval :     1588.19  1588.43  1592.13  1593.64  1596.73  1596.75
eigval :     1611.75  1611.76  1629.32  3021.11  3021.12  3021.98
eigval :     3022.00  3026.67  3026.68  3028.98  3029.15  3030.51
eigval :     3030.55  3035.50  3035.55  3038.06  3038.26  3045.35
eigval :     3045.38  3048.50  3048.58  3074.73  3075.95  3076.04
eigval :     3076.30  3076.40  3076.99  3081.00  3081.05  3081.39
eigval :     3081.72  3081.76  3082.29  3082.34  3083.38  3083.52
eigval :     3085.66  3088.03  3088.07  3089.85  3089.94  3090.64
eigval :     3091.14  3094.18  3094.25  3094.67  3094.75  3095.84
eigval :     3096.84  3108.66  3109.36

   temp. (K)  partition function   enthalpy   heat capacity  entropy
                                   cal/mol     cal/K/mol   cal/K/mol   J/K/mol
 298.15  VIB  0.122E+25            30386.494    190.326    188.830
         ROT  0.804E+08              888.752      2.981     39.154
         INT  0.980E+32            31275.246    193.307    227.984
         TR   0.203E+29             1481.254      4.968     45.747
         TOT                       32756.5003   198.2754   273.7307  1145.2892

       T/K    H(0)-H(T)+PV         H(T)/Eh          T*S/Eh         G(T)/Eh
   ------------------------------------------------------------------------
    298.15    0.522008E-01    0.912853E+00    0.130058E+00    0.782795E+00
   ------------------------------------------------------------------------

         :::::::::::::::::::::::::::::::::::::::::::::::::::::
         ::                  THERMODYNAMIC                  ::
         :::::::::::::::::::::::::::::::::::::::::::::::::::::
         :: total free energy        -151.618985416924 Eh   ::
         ::.................................................::
         :: total energy             -152.401780566806 Eh   ::
         :: zero point energy           0.860652630138 Eh   ::
         :: G(RRHO) w/o ZPVE           -0.077857480255 Eh   ::
         :: G(RRHO) contrib.            0.782795149882 Eh   ::
         :::::::::::::::::::::::::::::::::::::::::::::::::::::

           -------------------------------------------------
          | TOTAL ENERGY             -152.401780566806 Eh   |
          | TOTAL ENTHALPY           -151.488927130642 Eh   |
          | TOTAL FREE ENERGY        -151.618985416924 Eh   |
          | GRADIENT NORM               0.000046740776 Eh/α |
           -------------------------------------------------

 * finished run on 2025/09/10 at 04:11:16.357
