   * xtb version 6.7.1 (edcfbbe) compiled by 'albert@albert-system' on 2024-07-22

   ID    Z sym.   atoms
    1    6 C      1-15, 17-34, 36-59
    2    7 N      16, 35
    3    1 H      60-107

          program call               : xtb data2507/gas/CPTBF/CPTBF.xyz --gfn 2 --ohess vtight --parallel 40 --molden --ceasefiles --namespace data2507/gas/CPTBF/CPTBF_gas_S0_preOpt
          :  Hamiltonian                  GFN2-xTB          :
 * total energy  :  -152.4762356 Eh     change       -0.2207315E-08 Eh
 * total energy  :  -152.4948826 Eh     change       -0.1864704E-01 Eh
 * total energy  :  -152.5002169 Eh     change       -0.5334304E-02 Eh
 * total energy  :  -152.5019530 Eh     change       -0.1736054E-02 Eh
 * total energy  :  -152.5031806 Eh     change       -0.1227639E-02 Eh
 * total energy  :  -152.5037610 Eh     change       -0.5804452E-03 Eh
 * total energy  :  -152.5041108 Eh     change       -0.3497684E-03 Eh
 * total energy  :  -152.5043728 Eh     change       -0.2620346E-03 Eh
 * total energy  :  -152.5045437 Eh     change       -0.1708285E-03 Eh
 * total energy  :  -152.5046228 Eh     change       -0.7912506E-04 Eh
 * total energy  :  -152.5048654 Eh     change       -0.1062825E-04 Eh
 * total energy  :  -152.5048734 Eh     change       -0.8027934E-05 Eh
 * total energy  :  -152.5048787 Eh     change       -0.5246054E-05 Eh
 * total energy  :  -152.5048814 Eh     change       -0.2733799E-05 Eh
 * total energy  :  -152.5048827 Eh     change       -0.1256872E-05 Eh
 * total energy  :  -152.5048833 Eh     change       -0.6739392E-06 Eh
 * total energy  :  -152.5048838 Eh     change       -0.4914135E-06 Eh
 * total energy  :  -152.5048843 Eh     change       -0.4510353E-06 Eh
 * total energy  :  -152.5048843 Eh     change       -0.6825871E-08 Eh
   *** GEOMETRY OPTIMIZATION CONVERGED AFTER 44 ITERATIONS ***

 final structure:
================
107
 xtb: 6.7.1 (edcfbbe)
C            0.99205037740964        5.02170102752974        1.71716508257167
C            0.80469672956017        4.55669634099084        3.16403027403539
C           -0.34850018599905        5.36209012867784        3.77946838697630
C            2.10565770026087        4.84268350581761        3.92755291198081
C            0.48446269339685        3.07340936754497        3.26612548018552
C            0.30209812027362        2.49981044921653        4.52472879297984
C            0.01571600689911        1.15682298420475        4.68945950005552
C           -0.09681392893328        0.35555913252853        3.56613176600276
C            0.07325759611871        0.91967352647541        2.29712138172157
C            0.36489123506747        2.25737393362621        2.14333187022809
C           -0.08083745023041       -0.13453330902261        1.21512540257910
C            1.21937265351408       -0.19833954139106        0.44384674271584
C            2.23823859824783       -1.06225807399700        0.82439025397276
C            3.44970147306708       -1.06387809910471        0.15976105241261
C            3.66460993877072       -0.19632122356895       -0.90593113849715
N            4.89025861264619       -0.19438750757943       -1.58590173774563
C            5.65873675935195        0.91949717320045       -1.85780267749397
C            5.45549764341628        2.24335458811074       -1.49497368287084
C            6.40506525362001        3.17044277810041       -1.87883776834305
C            7.53728266810534        2.79670383626239       -2.59961633946557
C            7.75729606617916        1.47768643975599       -2.94209487829207
C            6.81720509898982        0.52690666838488       -2.56699816270142
C            6.73220598315762       -0.89726038716531       -2.72980956989290
C            7.54659533398755       -1.83918744158686       -3.34450969632911
C            7.15051252521850       -3.16153377063479       -3.33766397088521
C            5.95226059018309       -3.54726746155480       -2.74063144278205
C            5.12532368077164       -2.62905788290555       -2.12279256079539
C            5.52924987991657       -1.30166060271501       -2.10621074432477
C            2.64903285479864        0.67416542387236       -1.29024310974711
C            1.44509015985442        0.67515959541133       -0.61509686621496
C           -1.27789129099088        0.09187492221751        0.31680321295173
C           -1.35753805366984       -0.54844049178152       -0.91548288780739
C           -2.47187237354963       -0.40584654384343       -1.71772207322520
C           -3.53404605337701        0.39131238310586       -1.30211549405771
N           -4.66048669275949        0.55067050645635       -2.12068172954092
C           -4.64410872517286        0.91291187682144       -3.45261898216479
C           -3.56860450076137        1.23591699207010       -4.26776627977241
C           -3.83475099834250        1.59397745722100       -5.57528858200825
C           -5.13770818087325        1.64013580874349       -6.06633812823852
C           -6.21331900586776        1.34263266226818       -5.25385053986582
C           -5.97142721734661        0.98027697742516       -3.93530361007873
C           -6.82408714941117        0.63480885049298       -2.83272325397783
C           -8.19997905507803        0.51211849287338       -2.69037442094040
C           -8.70670167704923        0.13090970310349       -1.46422906987542
C           -7.85946935431203       -0.14155367722120       -0.39223533933935
C           -6.48766816019709       -0.02629172636788       -0.50874135027220
C           -5.97390357031073        0.38025342063223       -1.73194268119041
C           -3.46380353776451        1.02849278674865       -0.06762705733460
C           -2.35024781168828        0.86950667387512        0.73463345097681
C           -0.35971417183237       -1.37352786271491        2.04653124523746
C           -0.60105243202448       -2.65474457665147        1.61174453709006
C           -0.85791670963107       -3.67074623741643        2.53554697869189
C           -1.11315043767268       -5.07861996292993        2.02061958759258
C           -2.33838565607697       -5.05645054133235        1.09545635950842
C            0.12095705435586       -5.55464713603950        1.24060242243869
C           -1.38290356131265       -6.08342975823912        3.14375846290012
C           -0.86744660339642       -3.34749636028416        3.88865711457970
C           -0.63148890471020       -2.05664653624981        4.33633411112801
C           -0.37676361919056       -1.06061742993095        3.41215117551787
H            1.22449553897377        6.08472920963790        1.70624008902164
H            1.81464263854927        4.49345443422298        1.24012902357685
H            0.08513833867363        4.87164063509623        1.13564878011039
H           -1.27709794464973        5.15184308967219        3.25254118115402
H           -0.14305146391541        6.42784912113291        3.70446420112524
H           -0.48897452399207        5.11598698744811        4.82830204853698
H            2.01064715547638        4.59763804522597        4.98160891159475
H            2.36379504827608        5.89645016892427        3.84578036608622
H            2.92140624989434        4.25376845180215        3.51301136672858
H            0.38738599471352        3.11480186935007        5.40800294010974
H           -0.11565476289058        0.74377958167497        5.67866573621996
H            0.49458025789702        2.65427096580816        1.15030813391567
H            2.08669044966953       -1.73647653058090        1.65418466685615
H            4.24125320026706       -1.72714673946922        0.47493291647419
H            4.59025794780860        2.53940966664944       -0.92092816274948
H            6.26842020377589        4.20796273669108       -1.61109188627598
H            8.25465089583361        3.55216544063615       -2.88390108298829
H            8.64262205804183        1.18555695631022       -3.48652269250603
H            8.46768362385665       -1.53776665796096       -3.82022880615363
H            7.77054575835562       -3.91027013014424       -3.80789201905569
H            5.66164441720929       -4.58735647050903       -2.76408205677590
H            4.19088899017310       -2.93530932845567       -1.67694260574874
H            2.80517524491107        1.33909053745649       -2.12669789650434
H            0.66294588949688        1.35137561763918       -0.92844136394894
H           -0.53601144874797       -1.16262259821616       -1.25482407549031
H           -2.53097735777040       -0.92111012403043       -2.66490824737744
H           -2.55650420339917        1.21905986681340       -3.89209140654682
H           -3.01422253151809        1.84694961618038       -6.23067266125489
H           -5.30378830268208        1.92179288268699       -7.09552748642889
H           -7.22405136808667        1.39330597737786       -5.62987375029580
H           -8.85534772652696        0.70787591246021       -3.52568837934981
H           -9.77385709187938        0.03219434740472       -1.33146871847392
H           -8.28452527404713       -0.45329878636076        0.55058111238154
H           -5.83808411967189       -0.25642764983266        0.32246374758867
H           -4.28001477703558        1.65782912134803        0.25425626686290
H           -2.31045886548262        1.36553715007003        1.69304412596201
H           -0.58699442674837       -2.86681678309683        0.55359638405305
H           -2.18113556849755       -4.40414539103879        0.24087974296074
H           -2.54671904151991       -6.05825960492692        0.72571970342065
H           -3.21181382922543       -4.70001387933126        1.63773834965254
H            0.32460017373387       -4.91222423842857        0.38831422424352
H            0.99708421000617       -5.55283825508071        1.88612619282933
H           -0.03503849737317       -6.56703395579206        0.87401145800675
H           -0.53120556108253       -6.15869526593017        3.81594062996264
H           -2.26568575912171       -5.80498976065425        3.71464614437643
H           -1.55850319350369       -7.06763883766812        2.71397750793020
H           -1.06346841339909       -4.10878880193113        4.62586677076829
H           -0.64810545041026       -1.83788687186819        5.39388084447325

          :  Hamiltonian                  GFN2-xTB          :
         :: gradient norm              0.000065650111 Eh/a0 ::
         :: HOMO-LUMO gap              2.964677388616 eV    ::
         :: SCC energy              -155.328546999732 Eh    ::
         :: -> dispersion             -0.148588514530 Eh    ::
         :: repulsion energy           2.823662719391 Eh    ::

    * Orbital Energies and Occupations

         #    Occupation            Energy/Eh            Energy/eV
      -------------------------------------------------------------
         1        2.0000           -0.6734608             -18.3258
       ...           ...                  ...                  ...
       131        2.0000           -0.4113773             -11.1941
       132        2.0000           -0.4106752             -11.1750
       133        2.0000           -0.4077381             -11.0951
       134        2.0000           -0.4022656             -10.9462
       135        2.0000           -0.4020373             -10.9400
       136        2.0000           -0.3978028             -10.8248
       137        2.0000           -0.3974853             -10.8161
       138        2.0000           -0.3937816             -10.7153
       139        2.0000           -0.3756167             -10.2211
       140        2.0000           -0.3753771             -10.2145
       141        2.0000           -0.3725377             -10.1373
       142        2.0000           -0.3594361              -9.7808
       143        2.0000           -0.3587451              -9.7620 (HOMO)
       144                         -0.2497952              -6.7973 (LUMO)
       145                         -0.2436777              -6.6308
       146                         -0.2428396              -6.6080
       147                         -0.2351903              -6.3999
       148                         -0.2332356              -6.3467
       149                         -0.2329189              -6.3380
       150                         -0.2293542              -6.2410
       151                         -0.2200654              -5.9883
       152                         -0.2188818              -5.9561
       153                         -0.2186393              -5.9495
       154                         -0.2155576              -5.8656
       ...                                ...                  ...
       284                          0.7494048              20.3923
      -------------------------------------------------------------
                  HL-Gap            0.1089499 Eh            2.9647 eV

     #   Z          covCN         q      C6AA      α(0)
     1   6 C        3.761    -0.106    22.564     6.772
     2   6 C        3.903     0.026    20.085     6.370
     3   6 C        3.762    -0.105    22.549     6.769
     4   6 C        3.762    -0.105    22.552     6.770
     5   6 C        2.975     0.006    27.882     8.661
     6   6 C        2.928    -0.039    28.965     8.826
     7   6 C        2.913    -0.037    28.921     8.818
     8   6 C        3.036    -0.003    28.069     8.690
     9   6 C        3.057    -0.001    27.988     8.676
    10   6 C        2.919    -0.045    29.115     8.848
    11   6 C        3.948     0.008    20.378     6.415
    12   6 C        2.979     0.014    27.689     8.632
    13   6 C        2.923    -0.035    28.873     8.812
    14   6 C        2.922    -0.044    29.089     8.845
    15   6 C        2.913     0.061    26.631     8.462
    16   7 N        2.803    -0.044    22.095     6.981
    17   6 C        3.077     0.047    26.873     8.499
    18   6 C        2.910    -0.051    29.265     8.871
    19   6 C        2.924    -0.034    28.842     8.807
    20   6 C        2.920    -0.041    29.026     8.835
    21   6 C        2.913    -0.033    28.821     8.803
    22   6 C        3.068    -0.017    28.372     8.734
    23   6 C        3.068    -0.017    28.372     8.734
    24   6 C        2.913    -0.033    28.821     8.803
    25   6 C        2.920    -0.041    29.026     8.835
    26   6 C        2.924    -0.034    28.841     8.807
    27   6 C        2.910    -0.051    29.270     8.871
    28   6 C        3.077     0.047    26.874     8.499
    29   6 C        2.921    -0.045    29.108     8.847
    30   6 C        2.924    -0.034    28.844     8.807
    31   6 C        2.980     0.015    27.682     8.630
    32   6 C        2.924    -0.034    28.841     8.807
    33   6 C        2.921    -0.044    29.102     8.847
    34   6 C        2.913     0.061    26.627     8.462
    35   7 N        2.803    -0.044    22.097     6.982
    36   6 C        3.077     0.047    26.876     8.500
    37   6 C        2.910    -0.051    29.271     8.871
    38   6 C        2.924    -0.034    28.842     8.807
    39   6 C        2.920    -0.041    29.026     8.835
    40   6 C        2.913    -0.033    28.822     8.803
    41   6 C        3.068    -0.017    28.372     8.734
    42   6 C        3.068    -0.017    28.373     8.734
    43   6 C        2.912    -0.033    28.824     8.804
    44   6 C        2.920    -0.041    29.025     8.835
    45   6 C        2.924    -0.034    28.839     8.807
    46   6 C        2.910    -0.051    29.267     8.871
    47   6 C        3.077     0.047    26.874     8.499
    48   6 C        2.922    -0.044    29.090     8.845
    49   6 C        2.923    -0.035    28.870     8.811
    50   6 C        3.057    -0.001    27.987     8.676
    51   6 C        2.922    -0.041    29.007     8.832
    52   6 C        2.975     0.006    27.883     8.662
    53   6 C        3.903     0.026    20.084     6.370
    54   6 C        3.762    -0.104    22.539     6.768
    55   6 C        3.762    -0.104    22.530     6.766
    56   6 C        3.761    -0.107    22.595     6.776
    57   6 C        2.925    -0.043    29.074     8.843
    58   6 C        2.914    -0.037    28.926     8.819
    59   6 C        3.035    -0.003    28.071     8.690
    60   1 H        0.925     0.036     2.499     2.472
    61   1 H        0.925     0.035     2.522     2.483
    62   1 H        0.925     0.035     2.517     2.481
    63   1 H        0.925     0.033     2.541     2.493
    64   1 H        0.925     0.037     2.483     2.464
    65   1 H        0.925     0.037     2.494     2.470
    66   1 H        0.925     0.037     2.494     2.470
    67   1 H        0.925     0.037     2.483     2.464
    68   1 H        0.925     0.034     2.536     2.490
    69   1 H        0.926     0.030     2.590     2.517
    70   1 H        0.926     0.029     2.599     2.521
    71   1 H        0.926     0.035     2.517     2.481
    72   1 H        0.926     0.038     2.473     2.459
    73   1 H        0.926     0.040     2.443     2.444
    74   1 H        0.926     0.026     2.648     2.545
    75   1 H        0.926     0.028     2.615     2.529
    76   1 H        0.926     0.027     2.627     2.535
    77   1 H        0.926     0.030     2.583     2.513
    78   1 H        0.926     0.030     2.584     2.514
    79   1 H        0.926     0.027     2.627     2.535
    80   1 H        0.926     0.028     2.614     2.528
    81   1 H        0.926     0.026     2.642     2.542
    82   1 H        0.926     0.040     2.449     2.447
    83   1 H        0.926     0.035     2.517     2.481
    84   1 H        0.926     0.034     2.528     2.486
    85   1 H        0.926     0.040     2.449     2.447
    86   1 H        0.926     0.026     2.645     2.543
    87   1 H        0.926     0.028     2.614     2.528
    88   1 H        0.926     0.027     2.627     2.535
    89   1 H        0.926     0.030     2.584     2.514
    90   1 H        0.926     0.030     2.584     2.514
    91   1 H        0.926     0.027     2.628     2.535
    92   1 H        0.926     0.028     2.615     2.529
    93   1 H        0.926     0.027     2.632     2.537
    94   1 H        0.926     0.040     2.446     2.445
    95   1 H        0.926     0.038     2.479     2.462
    96   1 H        0.926     0.028     2.617     2.530
    97   1 H        0.925     0.036     2.508     2.477
    98   1 H        0.925     0.037     2.483     2.464
    99   1 H        0.925     0.033     2.540     2.492
   100   1 H        0.925     0.035     2.511     2.478
   101   1 H        0.925     0.033     2.542     2.493
   102   1 H        0.925     0.037     2.486     2.465
   103   1 H        0.925     0.036     2.504     2.475
   104   1 H        0.925     0.036     2.503     2.474
   105   1 H        0.925     0.036     2.497     2.471
   106   1 H        0.926     0.037     2.495     2.470
   107   1 H        0.926     0.029     2.600     2.521

molecular dipole:
                 x           y           z       tot (Debye)
 q only:       -0.043      -0.067       0.632
   full:       -0.046      -0.075       0.716       1.835

 projected vibrational frequencies (cm⁻¹)
eigval :       -0.00    -0.00    -0.00    -0.00     0.00     0.00
eigval :        9.46    10.83    13.48    14.69    17.33    21.42
eigval :       23.96    32.42    39.09    41.80    47.50    52.17
eigval :       56.40    75.58    77.20    83.14    96.55   103.73
eigval :      104.34   127.25   130.34   144.07   145.73   146.90
eigval :      150.73   167.24   171.89   178.91   187.55   190.32
eigval :      198.68   211.44   216.14   222.96   229.05   234.32
eigval :      237.41   263.85   271.18   271.91   272.08   277.02
eigval :      303.02   311.40   318.57   323.10   328.01   328.74
eigval :      347.63   348.76   355.69   367.48   368.12   382.18
eigval :      386.55   387.84   391.63   392.97   405.12   407.76
eigval :      414.42   422.62   428.26   434.83   435.09   442.74
eigval :      444.38   445.91   450.17   463.94   481.23   494.42
eigval :      512.04   518.94   520.40   530.05   533.92   534.97
eigval :      541.29   541.31   544.11   570.26   580.30   582.50
eigval :      593.08   595.79   609.93   610.18   617.92   624.83
eigval :      627.17   639.72   643.27   673.94   673.96   682.24
eigval :      688.60   688.81   706.94   708.08   711.22   722.36
eigval :      723.62   729.98   741.40   757.32   758.30   769.36
eigval :      769.61   780.65   780.85   804.85   818.51   820.91
eigval :      823.59   833.49   867.23   867.54   871.57   873.43
eigval :      874.20   876.54   882.46   883.51   886.62   891.69
eigval :      898.12   898.32   901.81   902.41   902.71   902.99
eigval :      903.22   912.62   919.02   919.96   920.10   921.44
eigval :      921.65   927.44   927.75   929.14   936.25   937.75
eigval :      959.64   960.38   960.85   961.14   962.53   963.46
eigval :      963.57   967.08   968.82  1012.03  1012.23  1015.86
eigval :     1021.54  1028.94  1035.34  1035.60  1035.74  1037.28
eigval :     1070.09  1070.18  1073.54  1073.80  1114.95  1118.40
eigval :     1118.60  1127.65  1139.17  1140.33  1142.05  1152.81
eigval :     1152.88  1176.66  1176.74  1178.47  1181.51  1181.59
eigval :     1184.55  1184.69  1189.17  1196.11  1203.94  1205.85
eigval :     1227.24  1227.72  1229.28  1232.07  1234.91  1237.07
eigval :     1237.19  1238.57  1239.78  1249.50  1253.74  1258.63
eigval :     1271.29  1271.59  1282.90  1290.92  1300.96  1301.17
eigval :     1304.99  1305.24  1306.34  1314.89  1321.39  1326.96
eigval :     1357.57  1357.68  1362.72  1362.86  1369.64  1370.23
eigval :     1372.52  1403.26  1404.21  1405.82  1406.42  1406.78
eigval :     1409.73  1417.79  1428.78  1428.91  1429.91  1430.18
eigval :     1432.91  1434.10  1435.46  1453.87  1477.01  1477.18
eigval :     1479.47  1488.79  1488.92  1492.17  1492.32  1493.70
eigval :     1494.58  1494.65  1494.83  1501.44  1501.81  1505.46
eigval :     1506.08  1514.97  1515.37  1520.11  1520.59  1565.62
eigval :     1569.51  1575.56  1576.51  1578.60  1589.37  1589.51
eigval :     1593.54  1599.44  1599.45  1599.91  1600.21  1605.77
eigval :     1611.25  1615.56  1615.90  3021.80  3022.40  3023.90
eigval :     3024.03  3025.83  3026.67  3030.13  3030.21  3030.73
eigval :     3031.37  3034.42  3035.83  3037.60  3038.99  3045.78
eigval :     3047.33  3049.35  3050.82  3075.03  3075.14  3075.38
eigval :     3075.48  3076.44  3076.80  3078.71  3080.22  3080.34
eigval :     3080.40  3081.48  3081.51  3085.15  3085.56  3087.40
eigval :     3087.43  3089.04  3089.09  3089.41  3089.92  3092.21
eigval :     3092.74  3094.39  3094.53  3096.00  3096.18  3096.42
eigval :     3096.78  3114.85  3118.93

   temp. (K)  partition function   enthalpy   heat capacity  entropy
                                   cal/mol     cal/K/mol   cal/K/mol   J/K/mol
 298.15  VIB  0.330E+24            29912.093    188.167    185.239
         ROT  0.160E+09              888.752      2.981     40.521
         INT  0.527E+32            30800.845    191.148    225.760
         TR   0.203E+29             1481.254      4.968     45.747
         TOT                       32282.0988   196.1160   271.5066  1135.9837

       T/K    H(0)-H(T)+PV         H(T)/Eh          T*S/Eh         G(T)/Eh
   ------------------------------------------------------------------------
    298.15    0.514448E-01    0.916842E+00    0.129002E+00    0.787840E+00
   ------------------------------------------------------------------------

         :::::::::::::::::::::::::::::::::::::::::::::::::::::
         ::                  THERMODYNAMIC                  ::
         :::::::::::::::::::::::::::::::::::::::::::::::::::::
         :: total free energy        -151.717043905033 Eh   ::
         ::.................................................::
         :: total energy             -152.504884280342 Eh   ::
         :: zero point energy           0.865397132805 Eh   ::
         :: G(RRHO) w/o ZPVE           -0.077556757496 Eh   ::
         :: G(RRHO) contrib.            0.787840375309 Eh   ::
         :::::::::::::::::::::::::::::::::::::::::::::::::::::

           -------------------------------------------------
          | TOTAL ENERGY             -152.504884280342 Eh   |
          | TOTAL ENTHALPY           -151.588042348464 Eh   |
          | TOTAL FREE ENERGY        -151.717043905033 Eh   |
          | GRADIENT NORM               0.000065643895 Eh/α |
          | HOMO-LUMO GAP               2.964676536984 eV   |
           -------------------------------------------------

 * finished run on 2025/09/10 at 03:58:34.303
