   * xtb version 6.7.1 (edcfbbe) compiled by 'albert@albert-system' on 2024-07-22

   ID    Z sym.   atoms
    1    6 C      1-15, 17-34, 36-59
    2    7 N      16, 35
    3    1 H      60-107

          program call               : xtb data2507/gas/CPTBF/CPTBF_gas_S0_crest.xyz --gfn 2 --ohess vtight --parallel 40 --molden --ceasefiles --namespace data2507/gas/CPTBF/CPTBF_gas_S0_finalOpt
          :  Hamiltonian                  GFN2-xTB          :
 * total energy  :  -152.5053461 Eh     change       -0.1522238E-08 Eh
 * total energy  :  -152.5053471 Eh     change       -0.9180857E-06 Eh
 * total energy  :  -152.5053481 Eh     change       -0.1028717E-05 Eh
 * total energy  :  -152.5053518 Eh     change       -0.3724229E-05 Eh
 * total energy  :  -152.5053536 Eh     change       -0.1845490E-05 Eh
 * total energy  :  -152.5053547 Eh     change       -0.1025517E-05 Eh
 * total energy  :  -152.5053558 Eh     change       -0.1122013E-05 Eh
 * total energy  :  -152.5053570 Eh     change       -0.1191761E-05 Eh
 * total energy  :  -152.5053579 Eh     change       -0.9556734E-06 Eh
 * total energy  :  -152.5053587 Eh     change       -0.7540359E-06 Eh
 * total energy  :  -152.5053637 Eh     change       -0.9971430E-06 Eh
 * total energy  :  -152.5053643 Eh     change       -0.6371569E-06 Eh
 * total energy  :  -152.5053649 Eh     change       -0.5282234E-06 Eh
 * total energy  :  -152.5053653 Eh     change       -0.4445434E-06 Eh
 * total energy  :  -152.5053657 Eh     change       -0.4301725E-06 Eh
 * total energy  :  -152.5053661 Eh     change       -0.3287562E-06 Eh
 * total energy  :  -152.5053662 Eh     change       -0.1899079E-06 Eh
 * total energy  :  -152.5053664 Eh     change       -0.1291181E-06 Eh
 * total energy  :  -152.5053664 Eh     change       -0.2246395E-08 Eh
   *** GEOMETRY OPTIMIZATION CONVERGED AFTER 22 ITERATIONS ***

 final structure:
================
107
 xtb: 6.7.1 (edcfbbe)
C            2.23109951852081       -4.98484828132401       -1.69407414912439
C            0.95517405450873       -4.97242051049701       -2.54841384567606
C           -0.23029202416136       -5.49224994799177       -1.72222218366177
C            1.16533918113971       -5.92186108734451       -3.73079637238297
C            0.66405574588354       -3.54420930249451       -2.98190392845900
C            0.57755598179197       -3.16097732915775       -4.31650045306704
C            0.31210263427947       -1.85183056644652       -4.68837889353326
C            0.12706954043283       -0.89754863265014       -3.70531900264479
C            0.20576051810276       -1.27168421000142       -2.35740815179948
C            0.47266450697920       -2.57102642685707       -1.99831517803186
C           -0.00836722516789       -0.07210621171922       -1.45232158658172
C            1.24631110332608        0.10478624582448       -0.62524474331103
C            2.29127616448802        0.90433377967737       -1.07042042989312
C            3.46696264424951        0.99757773727793       -0.35066693924203
C            3.61954643138787        0.28703519319410        0.83512320684530
N            4.81105196060733        0.37490593309384        1.56815842405221
C            5.55891028767834       -0.69354627344834        2.01974719674307
C            5.36362854633399       -2.05343312843142        1.82475592154506
C            6.28925534612693       -2.92218581490339        2.36972239742786
C            7.39011603592367       -2.45712578141227        3.08600299782035
C            7.60247421723558       -1.10464190683315        3.26272895764428
C            6.68610220603004       -0.21110398299292        2.72390917516970
C            6.60265640574250        1.22214153020675        2.69368302774552
C            7.39304623094592        2.23712083069551        3.21660732387539
C            7.00592016991128        3.54695080704170        3.01647342484531
C            5.83996301004492        3.85060313128834        2.31688161807809
C            5.03721599994534        2.85880328400502        1.78720159616532
C            5.43264678815467        1.54090775040655        1.96634202902636
C            2.57684167350840       -0.51640110395541        1.28661210785255
C            1.40795241073634       -0.60838262227637        0.55805969147269
C           -1.25963167024472       -0.16589578864896       -0.60663507865230
C           -1.41295486843877        0.65322476726484        0.50703804091534
C           -2.57851475443262        0.63266276099824        1.24647438243731
C           -3.62684742470525       -0.20355179890596        0.87449887977117
N           -4.81496095017566       -0.21973509634130        1.61788112417390
C           -5.44267312572467       -1.34322601137276        2.11643576860572
C           -5.05683084389930       -2.67439570218835        2.04948381797557
C           -5.86448861666340       -3.61170670269107        2.66412770870151
C           -7.02586525598577       -3.24132089107422        3.33870853134867
C           -7.40303880581907       -1.91643434334277        3.42790374342387
C           -6.60756324149655       -0.95543207969698        2.81796730677952
C           -6.68122954068649        0.47571342695878        2.72635151236314
C           -7.58925665869483        1.41807421230521        3.19098707967172
C           -7.36889032498533        2.74915397571132        2.89914872672843
C           -6.26850898782602        3.14389076773782        2.14117740272360
C           -5.35115975243343        2.22556093436096        1.66822925355339
C           -5.55400923442474        0.88855226095398        1.97929296866365
C           -3.48307056418478       -1.01903523688056       -0.24301491998914
C           -2.31019891403842       -0.99756924030551       -0.97287568348163
C           -0.22699889119029        1.03146800997862       -2.47117143470664
C           -0.49164750901014        2.36029368587042       -2.24160709626471
C           -0.68629089560948        3.23127659127973       -3.31617656714107
C           -0.97226286862051        4.69627499239715       -3.02561350411046
C            0.21731951715419        5.29201226411490       -2.25869273719086
C           -1.18364939562385        5.52449523850045       -4.29565475535682
C           -2.24526150265320        4.79703081856227       -2.17281842310921
C           -0.60719353243191        2.71702783279956       -4.60645823105466
C           -0.34490559560497        1.37701653736488       -4.84767544092587
C           -0.15505509867424        0.52509337290009       -3.77554161924693
H            2.46844210650884       -6.00233571238125       -1.39050267296323
H            3.06923665450030       -4.59006298445094       -2.26481294436057
H            2.11656616288634       -4.38096724558093       -0.79810140654317
H           -0.38975383586203       -4.88839007145157       -0.83302084299471
H           -0.04788093315227       -6.51813183569742       -1.40921920170739
H           -1.14129946275733       -5.47003714494964       -2.31706115583714
H            0.27516478045293       -5.97673082927888       -4.35321329419269
H            1.37556113907411       -6.92253931728777       -3.35841488928473
H            2.00913406117542       -5.60677375100691       -4.34031601938708
H            0.71977508181683       -3.88829961170988       -5.09897780749510
H            0.25349213146575       -1.58650762196473       -5.73369363527000
H            0.53025331665549       -2.83036351409882       -0.95226950235509
H            2.18901738895482        1.45411245759801       -1.99419021772010
H            4.27969485461383        1.60846552612126       -0.71415525436903
H            4.52362720835603       -2.42192326347181        1.25514752159424
H            6.15859809819724       -3.98580104237635        2.23404118086303
H            8.08963411621008       -3.16878656684889        3.49879072165532
H            8.46422980324896       -0.74383850573216        3.80380906755798
H            8.28881578798077        2.00136173696363        3.77121428980610
H            7.60761078955516        4.35122415177047        3.41306485657433
H            5.55551844802382        4.88472882360707        2.18851893072796
H            4.12716473092652        3.10304458819382        1.25999550045828
H            2.68456860636134       -1.05723441993014        2.21511389712937
H            0.60266423895222       -1.22861974012396        0.92438814253906
H           -0.60382920362744        1.30142671325731        0.81127037711777
H           -2.67902207722924        1.25567510225403        2.12279587247074
H           -4.15022410287430       -2.96938398137642        1.54272961048061
H           -5.58756865117283       -4.65499779451710        2.62346178007347
H           -7.63182232802602       -4.00459534624034        3.80388657795189
H           -8.29506069778468       -1.62778456454505        3.96320401542313
H           -8.45080389015749        1.11043785587617        3.76427789730117
H           -8.06166382528554        3.49818025447256        3.25298419047214
H           -6.13155294510012        4.19116844133415        1.91487917852559
H           -4.51180969393678        2.53870682627068        1.06554893423686
H           -4.30039848547389       -1.65585074872801       -0.54672713957537
H           -2.21443938519402       -1.62962852086596       -1.84317667789418
H           -0.54443116203611        2.72195506617434       -1.22607217705551
H            1.12586546760234        5.21011320029052       -2.85207285430239
H            0.03773229754932        6.34390125448605       -2.04667625290645
H            0.37950260774589        4.77760079226107       -1.31539431337064
H           -0.29600364240799        5.51305888597736       -4.92397880354551
H           -2.03147537053487        5.15440925340469       -4.86750229094539
H           -1.38789642356235        6.55820074008791       -4.02370599012475
H           -3.08631838772156        4.35003036954125       -2.69901486633368
H           -2.12917161262883        4.28451936102116       -1.22181541845241
H           -2.47899158219752        5.84026724366297       -1.97084561940611
H           -0.75282687787248        3.36312750800896       -5.45665878871871
H           -0.29209073378401        1.00895514759393       -5.86170525497411

          :  Hamiltonian                  GFN2-xTB          :
         :: gradient norm              0.000031753075 Eh/a0 ::
         :: HOMO-LUMO gap              2.965908590815 eV    ::
         :: SCC energy              -155.329349092233 Eh    ::
         :: -> dispersion             -0.149221917930 Eh    ::
         :: repulsion energy           2.823982712092 Eh    ::

    * Orbital Energies and Occupations

         #    Occupation            Energy/Eh            Energy/eV
      -------------------------------------------------------------
         1        2.0000           -0.6732791             -18.3209
       ...           ...                  ...                  ...
       131        2.0000           -0.4116311             -11.2011
       132        2.0000           -0.4105339             -11.1712
       133        2.0000           -0.4076547             -11.0928
       134        2.0000           -0.4020944             -10.9415
       135        2.0000           -0.4020162             -10.9394
       136        2.0000           -0.3977757             -10.8240
       137        2.0000           -0.3977307             -10.8228
       138        2.0000           -0.3935675             -10.7095
       139        2.0000           -0.3754223             -10.2158
       140        2.0000           -0.3753854             -10.2148
       141        2.0000           -0.3729723             -10.1491
       142        2.0000           -0.3590477              -9.7702
       143        2.0000           -0.3589598              -9.7678 (HOMO)
       144                         -0.2499646              -6.8019 (LUMO)
       145                         -0.2435399              -6.6271
       146                         -0.2428261              -6.6076
       147                         -0.2351680              -6.3992
       148                         -0.2331768              -6.3451
       149                         -0.2331430              -6.3441
       150                         -0.2295034              -6.2451
       151                         -0.2199430              -5.9850
       152                         -0.2186832              -5.9507
       153                         -0.2186407              -5.9495
       154                         -0.2155204              -5.8646
       ...                                ...                  ...
       284                          0.7494760              20.3943
      -------------------------------------------------------------
                  HL-Gap            0.1089951 Eh            2.9659 eV

     #   Z          covCN         q      C6AA      α(0)
     1   6 C        3.762    -0.104    22.526     6.766
     2   6 C        3.903     0.026    20.084     6.370
     3   6 C        3.762    -0.104    22.529     6.766
     4   6 C        3.761    -0.107    22.596     6.776
     5   6 C        2.975     0.006    27.883     8.662
     6   6 C        2.925    -0.043    29.072     8.842
     7   6 C        2.914    -0.037    28.923     8.819
     8   6 C        3.035    -0.003    28.069     8.690
     9   6 C        3.057    -0.000    27.984     8.675
    10   6 C        2.922    -0.041    29.009     8.832
    11   6 C        3.948     0.008    20.374     6.414
    12   6 C        2.980     0.014    27.688     8.631
    13   6 C        2.923    -0.035    28.872     8.812
    14   6 C        2.922    -0.044    29.083     8.844
    15   6 C        2.913     0.061    26.627     8.461
    16   7 N        2.803    -0.044    22.097     6.982
    17   6 C        3.077     0.047    26.873     8.499
    18   6 C        2.910    -0.051    29.265     8.871
    19   6 C        2.924    -0.034    28.841     8.807
    20   6 C        2.920    -0.041    29.027     8.835
    21   6 C        2.913    -0.033    28.822     8.803
    22   6 C        3.068    -0.017    28.373     8.734
    23   6 C        3.068    -0.017    28.373     8.734
    24   6 C        2.912    -0.033    28.821     8.803
    25   6 C        2.920    -0.041    29.027     8.835
    26   6 C        2.924    -0.034    28.841     8.807
    27   6 C        2.910    -0.051    29.270     8.871
    28   6 C        3.077     0.047    26.874     8.499
    29   6 C        2.921    -0.044    29.102     8.847
    30   6 C        2.924    -0.034    28.842     8.807
    31   6 C        2.980     0.014    27.688     8.631
    32   6 C        2.924    -0.034    28.843     8.807
    33   6 C        2.921    -0.044    29.104     8.847
    34   6 C        2.913     0.061    26.627     8.462
    35   7 N        2.803    -0.044    22.095     6.981
    36   6 C        3.077     0.047    26.874     8.499
    37   6 C        2.910    -0.051    29.270     8.871
    38   6 C        2.924    -0.034    28.841     8.807
    39   6 C        2.920    -0.041    29.026     8.835
    40   6 C        2.913    -0.033    28.821     8.803
    41   6 C        3.068    -0.017    28.372     8.734
    42   6 C        3.068    -0.017    28.373     8.734
    43   6 C        2.913    -0.033    28.822     8.803
    44   6 C        2.920    -0.041    29.026     8.835
    45   6 C        2.924    -0.034    28.841     8.807
    46   6 C        2.910    -0.051    29.265     8.871
    47   6 C        3.077     0.047    26.873     8.499
    48   6 C        2.922    -0.044    29.085     8.844
    49   6 C        2.923    -0.035    28.871     8.812
    50   6 C        3.057    -0.000    27.984     8.675
    51   6 C        2.922    -0.041    29.008     8.832
    52   6 C        2.975     0.006    27.883     8.662
    53   6 C        3.903     0.026    20.084     6.370
    54   6 C        3.762    -0.104    22.529     6.766
    55   6 C        3.761    -0.107    22.596     6.776
    56   6 C        3.762    -0.104    22.526     6.766
    57   6 C        2.925    -0.043    29.072     8.842
    58   6 C        2.914    -0.037    28.923     8.819
    59   6 C        3.035    -0.003    28.069     8.690
    60   1 H        0.925     0.037     2.483     2.464
    61   1 H        0.925     0.033     2.539     2.492
    62   1 H        0.925     0.035     2.519     2.482
    63   1 H        0.925     0.035     2.512     2.478
    64   1 H        0.925     0.037     2.484     2.465
    65   1 H        0.925     0.033     2.542     2.493
    66   1 H        0.925     0.036     2.504     2.475
    67   1 H        0.925     0.036     2.497     2.471
    68   1 H        0.925     0.036     2.502     2.474
    69   1 H        0.926     0.037     2.494     2.470
    70   1 H        0.926     0.029     2.598     2.521
    71   1 H        0.926     0.028     2.618     2.530
    72   1 H        0.926     0.038     2.471     2.458
    73   1 H        0.926     0.041     2.442     2.444
    74   1 H        0.926     0.026     2.642     2.542
    75   1 H        0.926     0.028     2.613     2.528
    76   1 H        0.926     0.027     2.628     2.535
    77   1 H        0.926     0.030     2.584     2.514
    78   1 H        0.926     0.030     2.584     2.514
    79   1 H        0.926     0.027     2.628     2.535
    80   1 H        0.926     0.028     2.615     2.529
    81   1 H        0.926     0.026     2.645     2.543
    82   1 H        0.926     0.040     2.450     2.448
    83   1 H        0.926     0.034     2.528     2.487
    84   1 H        0.926     0.034     2.529     2.487
    85   1 H        0.926     0.040     2.450     2.448
    86   1 H        0.926     0.026     2.643     2.542
    87   1 H        0.926     0.028     2.615     2.529
    88   1 H        0.926     0.027     2.628     2.535
    89   1 H        0.926     0.030     2.584     2.514
    90   1 H        0.926     0.030     2.584     2.514
    91   1 H        0.926     0.027     2.628     2.535
    92   1 H        0.926     0.028     2.613     2.528
    93   1 H        0.926     0.026     2.641     2.541
    94   1 H        0.926     0.041     2.441     2.443
    95   1 H        0.926     0.038     2.473     2.459
    96   1 H        0.926     0.028     2.619     2.531
    97   1 H        0.925     0.033     2.542     2.493
    98   1 H        0.925     0.037     2.484     2.465
    99   1 H        0.925     0.035     2.512     2.478
   100   1 H        0.925     0.036     2.504     2.475
   101   1 H        0.925     0.036     2.502     2.474
   102   1 H        0.925     0.036     2.497     2.471
   103   1 H        0.925     0.033     2.539     2.492
   104   1 H        0.925     0.035     2.519     2.482
   105   1 H        0.925     0.037     2.483     2.464
   106   1 H        0.926     0.037     2.494     2.470
   107   1 H        0.926     0.029     2.598     2.521

molecular dipole:
                 x           y           z       tot (Debye)
 q only:       -0.004      -0.031      -0.636
   full:       -0.004      -0.034      -0.705       1.793

 projected vibrational frequencies (cm⁻¹)
eigval :       -0.00    -0.00    -0.00     0.00     0.00     0.00
eigval :        9.32    10.61    13.21    13.86    17.46    21.92
eigval :       24.77    33.88    39.61    41.20    48.30    52.01
eigval :       57.19    76.10    79.71    81.02    96.21   103.80
eigval :      104.20   124.88   127.89   142.74   143.71   147.35
eigval :      147.91   165.87   172.64   177.13   183.14   188.68
eigval :      194.41   213.03   215.17   223.47   226.09   235.78
eigval :      236.24   271.57   271.86   273.89   275.75   283.35
eigval :      301.89   311.12   317.68   322.66   323.22   326.48
eigval :      346.95   351.36   357.24   360.85   364.93   382.20
eigval :      385.36   388.20   391.59   393.33   406.75   407.20
eigval :      418.07   422.55   428.35   434.30   434.72   443.53
eigval :      444.91   449.21   450.77   463.61   479.15   493.94
eigval :      511.80   518.99   520.30   530.09   533.60   534.62
eigval :      541.31   541.33   543.88   569.65   580.25   582.73
eigval :      591.79   597.55   607.81   615.21   618.48   620.75
eigval :      625.97   639.71   643.38   673.91   673.93   682.00
eigval :      688.43   688.87   706.93   708.07   711.14   722.32
eigval :      723.47   730.01   741.37   757.33   758.31   769.29
eigval :      769.45   780.63   780.67   805.24   817.67   820.16
eigval :      823.57   831.64   867.27   867.35   871.62   873.22
eigval :      874.18   882.42   882.95   884.87   887.27   890.98
eigval :      897.85   898.65   901.87   902.28   902.51   902.88
eigval :      903.27   911.49   914.22   919.87   920.00   921.41
eigval :      921.56   927.05   927.48   928.99   936.11   937.70
eigval :      959.75   960.26   960.28   962.35   962.72   963.62
eigval :      963.65   966.75   967.09  1012.11  1012.25  1015.68
eigval :     1021.50  1029.04  1035.34  1035.73  1035.81  1037.06
eigval :     1069.91  1070.01  1073.37  1073.44  1115.19  1118.45
eigval :     1118.60  1127.56  1139.42  1140.17  1141.93  1152.64
eigval :     1152.77  1176.62  1176.70  1180.05  1181.55  1181.58
eigval :     1184.47  1184.72  1189.76  1196.49  1203.81  1205.81
eigval :     1227.06  1227.15  1228.75  1234.32  1235.88  1236.77
eigval :     1237.13  1237.44  1238.86  1249.58  1253.41  1258.77
eigval :     1271.12  1271.56  1284.26  1289.32  1300.03  1301.09
eigval :     1301.16  1305.18  1305.62  1315.06  1321.35  1330.24
eigval :     1357.61  1357.69  1362.86  1362.90  1369.97  1370.45
eigval :     1376.41  1403.30  1403.97  1405.91  1406.66  1406.73
eigval :     1409.77  1417.92  1428.76  1428.91  1429.78  1430.37
eigval :     1432.79  1434.29  1434.99  1453.09  1474.81  1477.18
eigval :     1477.24  1488.79  1488.80  1492.26  1492.27  1493.80
eigval :     1494.64  1494.79  1494.86  1501.31  1501.74  1505.80
eigval :     1506.16  1514.84  1514.87  1519.98  1520.12  1565.78
eigval :     1569.64  1575.58  1576.53  1579.68  1589.43  1589.58
eigval :     1595.73  1599.45  1599.49  1599.96  1600.51  1607.46
eigval :     1612.60  1615.65  1615.98  3022.32  3022.33  3023.78
eigval :     3023.82  3026.59  3026.63  3029.98  3030.09  3031.01
eigval :     3031.30  3035.75  3035.82  3038.72  3038.94  3045.02
eigval :     3045.04  3048.42  3048.62  3075.03  3075.09  3075.28
eigval :     3075.42  3076.12  3077.95  3078.06  3080.23  3080.31
eigval :     3081.37  3081.47  3081.64  3085.55  3085.62  3087.35
eigval :     3087.46  3088.90  3089.01  3089.13  3089.68  3091.98
eigval :     3092.48  3094.31  3094.39  3096.15  3096.19  3096.78
eigval :     3096.85  3114.60  3114.95

   temp. (K)  partition function   enthalpy   heat capacity  entropy
                                   cal/mol     cal/K/mol   cal/K/mol   J/K/mol
 298.15  VIB  0.349E+24            29926.513    188.250    185.490
         ROT  0.801E+08              888.752      2.981     39.146
         INT  0.279E+32            30815.265    191.231    224.636
         TR   0.203E+29             1481.254      4.968     45.747
         TOT                       32296.5193   196.1990   270.3825  1131.2802

       T/K    H(0)-H(T)+PV         H(T)/Eh          T*S/Eh         G(T)/Eh
   ------------------------------------------------------------------------
    298.15    0.514678E-01    0.916814E+00    0.128467E+00    0.788346E+00
   ------------------------------------------------------------------------

         :::::::::::::::::::::::::::::::::::::::::::::::::::::
         ::                  THERMODYNAMIC                  ::
         :::::::::::::::::::::::::::::::::::::::::::::::::::::
         :: total free energy        -151.717019953610 Eh   ::
         ::.................................................::
         :: total energy             -152.505366380141 Eh   ::
         :: zero point energy           0.865346082064 Eh   ::
         :: G(RRHO) w/o ZPVE           -0.076999655534 Eh   ::
         :: G(RRHO) contrib.            0.788346426530 Eh   ::
         :::::::::::::::::::::::::::::::::::::::::::::::::::::

           -------------------------------------------------
          | TOTAL ENERGY             -152.505366380141 Eh   |
          | TOTAL ENTHALPY           -151.588552518570 Eh   |
          | TOTAL FREE ENERGY        -151.717019953610 Eh   |
          | GRADIENT NORM               0.000031750543 Eh/α |
          | HOMO-LUMO GAP               2.965908766560 eV   |
           -------------------------------------------------

 * finished run on 2025/09/10 at 04:10:59.242
