   * xtb version 6.7.1 (edcfbbe) compiled by 'albert@albert-system' on 2024-07-22

   ID    Z sym.   atoms
    1    6 C      1-6, 8-47, 49-54
    2    7 N      7
    3   16 S      48
    4    1 H      55-97

          program call               : xtb data2507/toluene/DNFPh/DNFPh_toluene_S0_finalOpt.xtbopt.xyz --gfn 2 --uhf 2 --gbsa toluene --ohess vtight --parallel 40 --molden --ceasefiles --namespace data2507/toluene/DNFPh/DNFPh_toluene_T1_preOpt
      * Solvation model:               GBSA
        Solvent                        toluene
        Solvent mass                       9.2140E+01 g/mol
          :  Hamiltonian                  GFN2-xTB          :
 * total energy  :  -139.4375242 Eh     change       -0.2593083E-08 Eh
 * total energy  :  -139.4455778 Eh     change       -0.8053583E-02 Eh
 * total energy  :  -139.4487684 Eh     change       -0.3190666E-02 Eh
 * total energy  :  -139.4490251 Eh     change       -0.2566770E-03 Eh
 * total energy  :  -139.4492873 Eh     change       -0.2621990E-03 Eh
 * total energy  :  -139.4493715 Eh     change       -0.8416806E-04 Eh
 * total energy  :  -139.4494735 Eh     change       -0.1020654E-03 Eh
 * total energy  :  -139.4495324 Eh     change       -0.5891035E-04 Eh
 * total energy  :  -139.4495721 Eh     change       -0.3967525E-04 Eh
 * total energy  :  -139.4496147 Eh     change       -0.4254880E-04 Eh
 * total energy  :  -139.4498092 Eh     change       -0.1567752E-05 Eh
 * total energy  :  -139.4498109 Eh     change       -0.1682105E-05 Eh
 * total energy  :  -139.4498129 Eh     change       -0.1974034E-05 Eh
 * total energy  :  -139.4498148 Eh     change       -0.1972706E-05 Eh
 * total energy  :  -139.4498163 Eh     change       -0.1433009E-05 Eh
 * total energy  :  -139.4498170 Eh     change       -0.7828644E-06 Eh
 * total energy  :  -139.4498176 Eh     change       -0.5204524E-06 Eh
 * total energy  :  -139.4498180 Eh     change       -0.4722472E-06 Eh
 * total energy  :  -139.4498180 Eh     change       -0.1276138E-07 Eh
   *** GEOMETRY OPTIMIZATION CONVERGED AFTER 44 ITERATIONS ***

 final structure:
================
97
 xtb: 6.7.1 (edcfbbe)
C            0.33133631078769       -4.68805993053405       -1.67213063983808
C            0.71218613158527       -5.93163090746750       -0.87604008656395
C            2.19698585451040       -6.28993022590093       -0.97836369871808
C            3.15795553677679       -5.19735830547548       -0.50771139637205
C            3.00080835805132       -4.84876551297435        0.97071586144493
C            3.97356576432181       -3.74313745255061        1.39446805925683
N            3.75975528759794       -2.53320548399766        0.62571799679836
C            2.47725884548195       -1.98363623642935        0.54716377646173
C            1.59718413106829       -2.08544861507317        1.61788681555114
C            0.20809078106303       -1.57082841264494        1.58516888281266
C           -0.13028500720005       -0.74985534037605        0.36863298829004
C           -1.34278579953308       -0.06037817200214        0.39856729884688
C           -1.74652995754498        0.99468120367773       -0.57787935329902
C           -3.17383189399066        1.43549781339782       -0.38740218944019
C           -4.32530348835799        0.69663257418688       -0.53842867199549
C           -5.56011460189461        1.30000650331430       -0.28650999343521
C           -6.81401894069846        0.54443772286329       -0.46466363709874
C           -7.76566021997492        1.01922826312561       -1.33713747523192
C           -8.95318660344777        0.31509910814165       -1.57245696009785
C           -9.19124677893749       -0.86713623222984       -0.92926384511686
C           -8.25760031548043       -1.37978846309038       -0.00447529672440
C           -8.49665141026157       -2.58438404700907        0.69135366599741
C           -7.60031592865935       -3.05593663965671        1.60845048057190
C           -6.42863303027823       -2.33345892276630        1.88013324036377
C           -6.16367045411344       -1.16749619788156        1.21682206123420
C           -7.05453511176670       -0.66519884040087        0.24388579073224
C           -5.60735591936418        2.63753837344636        0.10486279911263
C           -4.45224998399303        3.38100611204345        0.27131883609491
C           -3.22883378416700        2.77636092251272        0.02815442060730
C           -1.87384866485918        3.29065897681758        0.11099593686133
C           -1.38253342300644        4.53501365891420        0.47732613777410
C           -0.01523281706352        4.74973879556428        0.45986761724594
C            0.87104700863320        3.74368534836698        0.07395974457634
C            2.32259008780095        3.98197246311338        0.02369190727871
C            2.80221764145405        5.09135351963181       -0.63492562607677
C            4.17644030988976        5.31199397512027       -0.78686925639025
C            5.07640699138530        4.41347304013623       -0.28618622417008
C            4.63503867721052        3.27614259533132        0.42214246179070
C            5.55172393779456        2.35417280140611        0.97084192967598
C            5.11984760696710        1.27416823882311        1.68648737369213
C            3.74813535026196        1.08235385747900        1.90285639850716
C            2.83385387629680        1.95481997240161        1.38104086760987
C            3.24178665880743        3.05930372753890        0.60176665383219
C            0.36905488499776        2.49906249630916       -0.31291250119511
C           -0.98650824905041        2.27536943700573       -0.27969074361577
C            0.76389107278599       -0.71277367219575       -0.67825020171434
C            2.06411827819888       -1.29626320810832       -0.59217874784452
S            3.12835865246572       -1.10012606064471       -1.97251108447812
C            4.69251823233797       -1.13767214333202       -1.13133773997856
C            5.75898869717462       -0.46987028769638       -1.70354596990236
C            7.01477527857367       -0.53703621144339       -1.12271044731675
C            7.17999530101673       -1.25618605204039        0.04624843434052
C            6.10461100961376       -1.89975032352702        0.63482406483077
C            4.83717499026696       -1.87090864722059        0.05062572268524
H            0.64801936723534       -4.78605664483712       -2.70881314392236
H           -0.74749101495304       -4.54570563758047       -1.65592288399878
H            0.79222042777079       -3.79633888410861       -1.25514833836672
H            0.43509598504018       -5.79113259181366        0.17038299655266
H            0.13531296754261       -6.78155103406000       -1.25073046568552
H            2.37660778573065       -7.19684311477376       -0.39453980646405
H            2.42761933033256       -6.51971385665639       -2.02201391911369
H            3.00613154908369       -4.30065930934934       -1.10966361060083
H            4.18187808817808       -5.53859016690108       -0.68590216147643
H            3.19773498070240       -5.73194810229290        1.58180422973669
H            1.97987894010889       -4.52092769980433        1.16291096508139
H            4.98948750166714       -4.08536554460945        1.19119801697265
H            3.88471690796840       -3.55668787953033        2.47261205583308
H            1.92227535584007       -2.52907144955794        2.54448332852025
H           -0.50651532740548       -2.41092558924678        1.63291762007239
H            0.01278844306263       -0.98452198951299        2.49499806820997
H           -1.97558781018982       -0.17414424842726        1.26577107672142
H           -1.55749593076716        0.66294638306036       -1.60541397280449
H           -4.28359608100572       -0.33336520772618       -0.86375348770336
H           -7.58263751421291        1.94209642310965       -1.86967202096240
H           -9.67314109870419        0.71247923007010       -2.27357564132566
H          -10.09957060261024       -1.42325795196384       -1.11391941118533
H           -9.41081749079954       -3.12459385665238        0.48765212269340
H           -7.79211372755748       -3.97843939536474        2.13758959506134
H           -5.73761401592131       -2.70382851531603        2.62394323953085
H           -5.26842076622934       -0.60756593300052        1.44250657012368
H           -6.56980896378974        3.09046702007428        0.29731221840913
H           -4.50672542182277        4.41295941602929        0.58558639904286
H           -2.05433086585981        5.32550968106522        0.77870690814411
H            0.38003642370371        5.70796861250652        0.76591550204664
H            2.10355380755204        5.79056811771306       -1.07242079714435
H            4.51554060461820        6.18950614379671       -1.31865292538123
H            6.13869708686805        4.56243296899671       -0.41907604105995
H            6.60828765805357        2.52457306543588        0.81913218041654
H            5.82945444974607        0.57322222639872        2.10004995917936
H            3.41456765141941        0.24090024104291        2.49262263345285
H            1.78255686921958        1.80787723290821        1.57720998663342
H            1.05131611274823        1.73049347694765       -0.64022426510121
H            0.50566623793734       -0.23811874665250       -1.61214484922852
H            5.60121850647234        0.08191184539892       -2.61835719364737
H            7.84960972077646       -0.03165581702867       -1.58295966994314
H            8.15086737584072       -1.31284149993863        0.51618590981064
H            6.25273817548592       -2.42453514773943        1.56594564335026

          :  Hamiltonian                  GFN2-xTB          :
         :: gradient norm              0.000066506754 Eh/a0 ::
         :: HOMO-LUMO gap              0.223414693132 eV    ::
         :: SCC energy              -141.966523725327 Eh    ::
         :: -> dispersion             -0.142441523776 Eh    ::
         :: -> Gsolv                  -0.051571705237 Eh    ::
         :: repulsion energy           2.516705676107 Eh    ::

    * Orbital Energies and Occupations

         #    Occupation            Energy/Eh            Energy/eV
      -------------------------------------------------------------
         1        2.0000           -0.7154301             -19.4678
       ...           ...                  ...                  ...
       120        2.0000           -0.4078482             -11.0981
       121        2.0000           -0.4066214             -11.0647
       122        2.0000           -0.4020689             -10.9409
       123        2.0000           -0.3986221             -10.8471
       124        2.0000           -0.3985714             -10.8457
       125        2.0000           -0.3938509             -10.7172
       126        2.0000           -0.3877925             -10.5524
       127        2.0000           -0.3835570             -10.4371
       128        2.0000           -0.3734248             -10.1614
       129        2.0000           -0.3648110              -9.9270
       130        1.9975           -0.3452757              -9.3954
       131        1.0025           -0.3338758              -9.0852
       132        0.9869           -0.2743698              -7.4660 (HOMO)
       133        0.0131           -0.2661594              -7.2426 (LUMO)
       134        0.0000           -0.2585374              -7.0352
       135                         -0.2417614              -6.5787
       136                         -0.2311027              -6.2886
       137                         -0.2265242              -6.1640
       138                         -0.2264278              -6.1614
       139                         -0.2240456              -6.0966
       140                         -0.2208835              -6.0105
       141                         -0.2174790              -5.9179
       142                         -0.2011299              -5.4730
       143                         -0.1927791              -5.2458
       ...                                ...                  ...
       264                          0.7345824              19.9890
      -------------------------------------------------------------
                  HL-Gap            0.0082104 Eh            0.2234 eV

     #   Z          covCN         q      C6AA      α(0)
     1   6 C        3.751    -0.098    22.438     6.755
     2   6 C        3.799    -0.052    21.509     6.603
     3   6 C        3.801    -0.058    21.612     6.619
     4   6 C        3.802    -0.055    21.568     6.612
     5   6 C        3.802    -0.065    21.737     6.638
     6   6 C        3.746     0.003    20.599     6.474
     7   7 N        2.745    -0.084    22.868     7.102
     8   6 C        2.940     0.060    26.654     8.467
     9   6 C        2.910    -0.075    29.884     8.964
    10   6 C        3.814    -0.053    21.506     6.600
    11   6 C        2.949     0.006    27.885     8.661
    12   6 C        2.909    -0.055    29.374     8.887
    13   6 C        3.890    -0.016    20.808     6.485
    14   6 C        3.050     0.002    27.942     8.669
    15   6 C        2.918    -0.039    28.979     8.828
    16   6 C        2.979     0.008    27.835     8.654
    17   6 C        2.974     0.004    27.941     8.671
    18   6 C        2.923    -0.037    28.922     8.819
    19   6 C        2.913    -0.032    28.805     8.801
    20   6 C        2.919    -0.040    28.984     8.828
    21   6 C        2.986     0.011    27.774     8.645
    22   6 C        2.919    -0.037    28.917     8.818
    23   6 C        2.915    -0.032    28.790     8.799
    24   6 C        2.916    -0.032    28.808     8.801
    25   6 C        2.917    -0.035    28.873     8.811
    26   6 C        2.986     0.008    27.843     8.656
    27   6 C        2.926    -0.039    28.959     8.825
    28   6 C        2.912    -0.036    28.898     8.815
    29   6 C        3.036    -0.002    28.052     8.687
    30   6 C        3.034    -0.003    28.062     8.689
    31   6 C        2.913    -0.036    28.906     8.816
    32   6 C        2.924    -0.040    28.990     8.830
    33   6 C        2.979     0.008    27.843     8.656
    34   6 C        2.973     0.004    27.941     8.671
    35   6 C        2.923    -0.037    28.922     8.819
    36   6 C        2.913    -0.032    28.803     8.801
    37   6 C        2.919    -0.039    28.972     8.827
    38   6 C        2.986     0.011    27.767     8.644
    39   6 C        2.920    -0.037    28.914     8.818
    40   6 C        2.915    -0.032    28.790     8.799
    41   6 C        2.916    -0.032    28.790     8.799
    42   6 C        2.917    -0.034    28.855     8.809
    43   6 C        2.986     0.008    27.832     8.654
    44   6 C        2.921    -0.042    29.038     8.837
    45   6 C        3.053     0.004    27.880     8.660
    46   6 C        2.956    -0.058    29.431     8.898
    47   6 C        2.963     0.013    27.726     8.637
    48  16 S        2.124    -0.159   147.759    20.459
    49   6 C        2.974     0.031    27.305     8.571
    50   6 C        2.970    -0.040    28.984     8.831
    51   6 C        2.919    -0.040    29.004     8.832
    52   6 C        2.918    -0.034    28.846     8.807
    53   6 C        2.926    -0.058    29.448     8.899
    54   6 C        2.950     0.062    26.613     8.461
    55   1 H        0.925     0.031     2.568     2.506
    56   1 H        0.925     0.029     2.601     2.522
    57   1 H        0.925     0.035     2.517     2.481
    58   1 H        0.924     0.030     2.588     2.516
    59   1 H        0.924     0.027     2.624     2.533
    60   1 H        0.924     0.029     2.600     2.521
    61   1 H        0.924     0.030     2.580     2.512
    62   1 H        0.924     0.038     2.478     2.462
    63   1 H        0.924     0.027     2.628     2.535
    64   1 H        0.924     0.041     2.435     2.440
    65   1 H        0.925     0.049     2.331     2.388
    66   1 H        0.924     0.051     2.304     2.374
    67   1 H        0.924     0.035     2.511     2.478
    68   1 H        0.926     0.032     2.559     2.501
    69   1 H        0.923     0.065     2.146     2.291
    70   1 H        0.923     0.053     2.281     2.362
    71   1 H        0.926     0.028     2.608     2.526
    72   1 H        0.924     0.057     2.235     2.338
    73   1 H        0.926     0.032     2.555     2.500
    74   1 H        0.926     0.029     2.596     2.520
    75   1 H        0.926     0.030     2.585     2.514
    76   1 H        0.926     0.031     2.576     2.510
    77   1 H        0.925     0.031     2.574     2.509
    78   1 H        0.926     0.030     2.588     2.515
    79   1 H        0.926     0.030     2.592     2.518
    80   1 H        0.926     0.033     2.543     2.494
    81   1 H        0.926     0.030     2.588     2.516
    82   1 H        0.926     0.031     2.572     2.508
    83   1 H        0.926     0.032     2.558     2.501
    84   1 H        0.926     0.031     2.574     2.509
    85   1 H        0.926     0.031     2.573     2.508
    86   1 H        0.926     0.031     2.575     2.509
    87   1 H        0.926     0.031     2.576     2.510
    88   1 H        0.926     0.030     2.589     2.516
    89   1 H        0.926     0.027     2.626     2.534
    90   1 H        0.926     0.026     2.650     2.546
    91   1 H        0.926     0.033     2.548     2.496
    92   1 H        0.926     0.038     2.470     2.458
    93   1 H        0.926     0.032     2.556     2.500
    94   1 H        0.926     0.036     2.497     2.471
    95   1 H        0.926     0.036     2.503     2.474
    96   1 H        0.926     0.038     2.482     2.464
    97   1 H        0.926     0.038     2.470     2.458

molecular dipole:
                 x           y           z       tot (Debye)
 q only:        0.229      -0.905       0.849
   full:        0.374      -0.844       1.088       3.626

 projected vibrational frequencies (cm⁻¹)
eigval :       -0.00    -0.00    -0.00     0.00     0.00     0.00
eigval :        7.04    10.82    14.35    17.62    21.46    25.03
eigval :       32.89    36.04    40.14    42.93    50.22    51.51
eigval :       57.77    61.94    73.03    81.39    87.22   113.85
eigval :      123.51   126.10   135.76   149.96   153.73   156.10
eigval :      160.95   164.49   172.22   175.71   197.11   204.36
eigval :      216.77   222.40   234.89   235.27   261.12   268.69
eigval :      272.13   278.19   282.55   290.77   305.17   310.52
eigval :      325.17   339.34   350.78   354.85   369.71   382.24
eigval :      395.54   401.55   407.77   413.53   420.20   430.21
eigval :      434.55   435.41   435.94   440.19   447.13   456.42
eigval :      465.99   474.44   490.71   494.98   499.97   504.01
eigval :      509.95   515.73   522.01   525.26   536.28   542.38
eigval :      551.44   565.03   588.41   591.30   595.61   604.16
eigval :      609.23   625.01   627.97   644.45   647.66   653.41
eigval :      659.47   666.08   674.05   683.97   703.45   714.76
eigval :      725.18   726.06   727.57   756.79   760.93   762.57
eigval :      767.43   769.37   774.74   777.66   778.59   811.41
eigval :      812.66   817.69   826.96   829.26   834.84   839.54
eigval :      845.16   859.49   868.35   870.44   874.10   875.90
eigval :      880.33   881.03   890.61   894.41   897.02   897.91
eigval :      898.56   905.66   911.97   913.58   915.69   917.30
eigval :      920.33   921.26   924.77   925.33   925.57   930.79
eigval :      935.72   973.64   983.62   988.04   997.13  1011.69
eigval :     1017.05  1028.02  1049.44  1058.62  1067.88  1081.95
eigval :     1084.75  1096.16  1097.04  1109.14  1111.04  1112.81
eigval :     1118.46  1121.85  1126.32  1129.71  1131.03  1135.70
eigval :     1140.35  1150.57  1152.41  1158.62  1162.45  1165.60
eigval :     1170.53  1174.54  1175.45  1179.86  1180.12  1180.22
eigval :     1189.10  1199.06  1201.60  1203.76  1213.03  1220.82
eigval :     1222.87  1223.90  1226.08  1238.07  1239.82  1247.03
eigval :     1249.02  1253.08  1262.08  1271.19  1273.69  1284.83
eigval :     1287.50  1294.87  1299.48  1309.71  1313.70  1319.70
eigval :     1323.18  1327.32  1333.58  1337.57  1348.52  1351.76
eigval :     1356.41  1358.30  1361.45  1368.65  1371.20  1376.62
eigval :     1387.14  1388.78  1409.50  1415.51  1415.74  1416.76
eigval :     1419.12  1420.99  1435.84  1438.19  1438.59  1447.07
eigval :     1459.88  1463.29  1468.40  1473.80  1473.97  1479.77
eigval :     1484.31  1490.66  1500.08  1504.67  1506.34  1507.46
eigval :     1515.96  1516.89  1555.76  1558.25  1560.44  1564.37
eigval :     1579.98  1580.20  1588.46  1592.75  1593.67  1602.51
eigval :     1608.66  1609.54  2789.81  2871.25  2887.24  2894.31
eigval :     2952.21  2953.26  2956.48  2971.93  2977.82  2984.76
eigval :     2989.70  3000.86  3010.14  3023.41  3027.31  3044.87
eigval :     3062.32  3064.37  3064.40  3067.81  3068.38  3069.07
eigval :     3069.50  3070.21  3071.05  3072.78  3073.72  3077.80
eigval :     3078.34  3079.20  3080.34  3081.51  3081.82  3082.90
eigval :     3083.04  3087.42  3089.04  3090.75  3092.96  3095.33
eigval :     3099.57  3101.70  3101.80

   temp. (K)  partition function   enthalpy   heat capacity  entropy
                                   cal/mol     cal/K/mol   cal/K/mol   J/K/mol
 298.15  VIB  0.111E+23            27317.016    169.932    170.888
         ROT  0.119E+09              888.752      2.981     39.941
         INT  0.133E+31            28205.769    172.913    210.829
         TR   0.185E+29             1481.254      4.968     45.557
         TOT                       29687.0227   177.8812   256.3859  1072.7188

       T/K    H(0)-H(T)+PV         H(T)/Eh          T*S/Eh         G(T)/Eh
   ------------------------------------------------------------------------
    298.15    0.473093E-01    0.820697E+00    0.121817E+00    0.698880E+00
   ------------------------------------------------------------------------

         :::::::::::::::::::::::::::::::::::::::::::::::::::::
         ::                  THERMODYNAMIC                  ::
         :::::::::::::::::::::::::::::::::::::::::::::::::::::
         :: total free energy        -138.750937869087 Eh   ::
         ::.................................................::
         :: total energy             -139.449818052172 Eh   ::
         :: zero point energy           0.773388136014 Eh   ::
         :: G(RRHO) w/o ZPVE           -0.074507952929 Eh   ::
         :: G(RRHO) contrib.            0.698880183085 Eh   ::
         :::::::::::::::::::::::::::::::::::::::::::::::::::::

           -------------------------------------------------
          | TOTAL ENERGY             -139.449818052172 Eh   |
          | TOTAL ENTHALPY           -138.629120634187 Eh   |
          | TOTAL FREE ENERGY        -138.750937869087 Eh   |
          | GRADIENT NORM               0.000066596240 Eh/α |
          | HOMO-LUMO GAP               0.223415782659 eV   |
           -------------------------------------------------

 * finished run on 2025/09/09 at 20:14:39.241
