   * xtb version 6.7.1 (edcfbbe) compiled by 'albert@albert-system' on 2024-07-22

   ID    Z sym.   atoms
    1    6 C      1-6, 8-47, 49-54
    2    7 N      7
    3   16 S      48
    4    1 H      55-97

          program call               : xtb data2507/toluene/DNFPh/DNFPh_toluene_T1_crest.xyz --gfn 2 --uhf 2 --gbsa toluene --ohess vtight --parallel 40 --molden --ceasefiles --namespace data2507/toluene/DNFPh/DNFPh_toluene_T1_finalOpt
      * Solvation model:               GBSA
        Solvent                        toluene
        Solvent mass                       9.2140E+01 g/mol
          :  Hamiltonian                  GFN2-xTB          :
 * total energy  :  -139.4484658 Eh     change       -0.2473627E-08 Eh
 * total energy  :  -139.4485743 Eh     change       -0.1085540E-03 Eh
 * total energy  :  -139.4486661 Eh     change       -0.9173880E-04 Eh
 * total energy  :  -139.4487193 Eh     change       -0.5324378E-04 Eh
 * total energy  :  -139.4488028 Eh     change       -0.8346568E-04 Eh
 * total energy  :  -139.4488782 Eh     change       -0.7539957E-04 Eh
 * total energy  :  -139.4489364 Eh     change       -0.5819699E-04 Eh
 * total energy  :  -139.4489644 Eh     change       -0.2805232E-04 Eh
 * total energy  :  -139.4489852 Eh     change       -0.2082086E-04 Eh
 * total energy  :  -139.4490008 Eh     change       -0.1551482E-04 Eh
 * total energy  :  -139.4493919 Eh     change       -0.4336151E-06 Eh
 * total energy  :  -139.4493923 Eh     change       -0.3877429E-06 Eh
 * total energy  :  -139.4493927 Eh     change       -0.4472875E-06 Eh
 * total energy  :  -139.4493933 Eh     change       -0.5367775E-06 Eh
 * total energy  :  -139.4493939 Eh     change       -0.6341351E-06 Eh
 * total energy  :  -139.4493946 Eh     change       -0.6836386E-06 Eh
 * total energy  :  -139.4493952 Eh     change       -0.6630827E-06 Eh
 * total energy  :  -139.4493959 Eh     change       -0.6841248E-06 Eh
 * total energy  :  -139.4493959 Eh     change       -0.8425189E-08 Eh
   *** GEOMETRY OPTIMIZATION CONVERGED AFTER 94 ITERATIONS ***

 final structure:
================
97
 xtb: 6.7.1 (edcfbbe)
C           -1.28882781184425        4.22582581247281        3.03931935182384
C           -1.59184244935696        4.77440051657269        1.65000546210410
C           -3.09446191351455        4.92801376746824        1.42092291444216
C           -3.43903205231043        5.63664734473249        0.10989153419929
C           -3.08723951976315        4.86291099450441       -1.16287565839645
C           -4.02309735768926        3.68266132872807       -1.45261563770189
N           -3.76399060293279        2.52751155888531       -0.61621788897228
C           -2.47798638361014        1.97854291320048       -0.57341765287679
C           -1.60332153234662        2.11672785708438       -1.64349647836149
C           -0.21068999033369        1.60915220135780       -1.63256763083034
C            0.14798428870200        0.77449865705357       -0.43167876517125
C            1.38143924766687        0.12222976975651       -0.47427623391282
C            1.82359117216395       -0.93689902768943        0.48139225541352
C            1.11710405440486       -2.23437376567447        0.13150548003747
C           -0.22703089581417       -2.51860142415615        0.16848046937616
C           -0.67870514054033       -3.76445180459307       -0.27239095234594
C           -2.11692434303663       -4.07157853176445       -0.21226840213970
C           -2.53435638913921       -5.22974619406984        0.40332474066895
C           -3.89433773259042       -5.51984731845509        0.56600920497238
C           -4.84256508233668       -4.64309729835206        0.11859072152253
C           -4.46533623029680       -3.45641685344410       -0.54431629117995
C           -5.43188026462858       -2.55287433811329       -1.03500015713847
C           -5.06153147198348       -1.42099142439275       -1.70353989553826
C           -3.70362382523697       -1.15563578470770       -1.92950136533799
C           -2.74210012242624       -2.00904738166348       -1.46411667401256
C           -3.08660446664928       -3.16734025571355       -0.73386962951505
C            0.24539567204217       -4.70926720815882       -0.71980262976823
C            1.60169091460218       -4.43363743957500       -0.74234351236177
C            2.04321871719113       -3.18883980038238       -0.31867842356397
C            3.37603225410064       -2.62309696133774       -0.21399049409680
C            4.62269441785573       -3.16178170123160       -0.49213336233069
C            5.74716148012684       -2.38441408291748       -0.27780677742632
C            5.64744343471896       -1.07744809569740        0.19844208574759
C            6.87028034413893       -0.28993779784825        0.43913991753820
C            7.83977663902988       -0.79868696583172        1.27238038303059
C            8.99870641555398       -0.07132084054602        1.57040736790344
C            9.18927681686578        1.17020964485043        1.03151927615732
C            8.23583727458309        1.72272130383904        0.15093999721687
C            8.42633712897534        2.99200071021829       -0.43650381712119
C            7.51120067300867        3.50625813727944       -1.31110994705450
C            6.36912217873468        2.76421370685531       -1.64806683991983
C            6.15226687592069        1.53430041014907       -1.09118360075732
C            7.06217144318284        0.98492478234587       -0.16223285259492
C            4.38898494720823       -0.53950627182157        0.48077075100004
C            3.26788136358823       -1.31161003183184        0.27818585729755
C           -0.74680970954628        0.69030027965915        0.61101231871987
C           -2.05602685541873        1.25500084021296        0.54094836424379
S           -3.11797982653633        0.98926580833088        1.90888699217037
C           -4.67942681387183        1.03408292766664        1.06582998966952
C           -5.73381027503568        0.32420660360183        1.60918194302591
C           -6.98655655703602        0.37889565799828        1.02109114272608
C           -7.15733983703352        1.12467503961092       -0.12989350237372
C           -6.09340686620960        1.81269094261450       -0.68922902583399
C           -4.83172639148346        1.80468263071738       -0.09173027178485
H           -1.76221828319631        3.25575696054152        3.17490885421759
H           -0.21626824267961        4.10555039935053        3.17774807471187
H           -1.66234708259340        4.89917150649251        3.80860605376927
H           -1.10711825636624        5.74722550298946        1.53085895852580
H           -1.16982472115708        4.09606764984680        0.90645152200597
H           -3.56739678275516        3.94640151027178        1.45338369390028
H           -3.51177304523619        5.51567173402609        2.24350526300357
H           -2.90646663446289        6.59129131689727        0.08683560341385
H           -4.50928526973574        5.86087796485647        0.10156900505913
H           -2.05542420653707        4.51814126039079       -1.11210467464079
H           -3.16678921064025        5.54876979660419       -2.00957314394052
H           -3.96036907744653        3.41849932304324       -2.51748032068104
H           -5.04336978886757        4.01101391943788       -1.24842052904351
H           -1.92841839116598        2.58968154642391       -2.55508328076173
H           -0.02355002305250        1.03410821049927       -2.55174846519234
H            0.49796459157200        2.45424316179445       -1.68175592859751
H            2.00670677932410        0.26912611399401       -1.34219962925057
H            1.61529124053031       -0.64133844556364        1.51558219435279
H           -0.93727497645022       -1.79827493950742        0.54271185679123
H           -1.79718252047527       -5.91420335205183        0.79899608067347
H           -4.18412244333947       -6.43422602131538        1.06373729046902
H           -5.89455910046625       -4.84669620441181        0.26030172675610
H           -6.47693319552940       -2.77886687726822       -0.87621323231349
H           -5.80894000710461       -0.73372584017496       -2.07109286378174
H           -3.41817615233288       -0.27201478075914       -2.48189233609708
H           -1.70188213451499       -1.80403049513880       -1.66703209282661
H           -0.11189438726207       -5.66801107890043       -1.06805019002866
H            2.30324414868206       -5.17779398937651       -1.09028718594553
H            4.71862283302218       -4.16954339809101       -0.86882476013424
H            6.72657655450032       -2.78613954300651       -0.49630992737235
H            7.69218115101086       -1.76921228415943        1.72525627192172
H            9.73360782604773       -0.49788625584255        2.23812158935455
H           10.07474519054550        1.74415253504568        1.26581164072296
H            9.31894073328050        3.54773458751457       -0.18458764824345
H            7.66570746811669        4.47857965563549       -1.75665674935042
H            5.66286881098653        3.17032167698010       -2.35820038534854
H            5.28046568363660        0.96111985524424       -1.36899979471532
H            4.30604897731737        0.46468795594940        0.87204745524159
H           -0.48189841900749        0.19155503035578        1.53030641217776
H           -5.56810553084852       -0.25286069931218        2.50677387266092
H           -7.81288246542800       -0.15877061412621        1.45940076254527
H           -8.12392246814899        1.16878226752589       -0.60999711925642
H           -6.25128954207073        2.35440488662677       -1.60854431452144

          :  Hamiltonian                  GFN2-xTB          :
         :: gradient norm              0.000060302098 Eh/a0 ::
         :: HOMO-LUMO gap              0.218003613081 eV    ::
         :: SCC energy              -141.965332808533 Eh    ::
         :: -> dispersion             -0.143447924725 Eh    ::
         :: -> Gsolv                  -0.050952553576 Eh    ::
         :: repulsion energy           2.515936880700 Eh    ::

    * Orbital Energies and Occupations

         #    Occupation            Energy/Eh            Energy/eV
      -------------------------------------------------------------
         1        2.0000           -0.7157969             -19.4778
       ...           ...                  ...                  ...
       120        2.0000           -0.4079776             -11.1016
       121        2.0000           -0.4067329             -11.0678
       122        2.0000           -0.4021757             -10.9438
       123        2.0000           -0.3988339             -10.8528
       124        2.0000           -0.3985855             -10.8461
       125        2.0000           -0.3939297             -10.7194
       126        2.0000           -0.3879679             -10.5571
       127        2.0000           -0.3836752             -10.4403
       128        2.0000           -0.3734602             -10.1624
       129        2.0000           -0.3648344              -9.9277
       130        1.9976           -0.3455747              -9.4036
       131        1.0024           -0.3341344              -9.0923
       132        0.9855           -0.2743907              -7.4666 (HOMO)
       133        0.0145           -0.2663792              -7.2485 (LUMO)
       134        0.0000           -0.2586687              -7.0387
       135                         -0.2417953              -6.5796
       136                         -0.2313321              -6.2949
       137                         -0.2266804              -6.1683
       138                         -0.2264817              -6.1629
       139                         -0.2241865              -6.1004
       140                         -0.2209214              -6.0116
       141                         -0.2175291              -5.9193
       142                         -0.2013524              -5.4791
       143                         -0.1930101              -5.2521
       ...                                ...                  ...
       264                          0.7345227              19.9874
      -------------------------------------------------------------
                  HL-Gap            0.0080115 Eh            0.2180 eV

     #   Z          covCN         q      C6AA      α(0)
     1   6 C        3.752    -0.100    22.465     6.759
     2   6 C        3.800    -0.050    21.469     6.597
     3   6 C        3.802    -0.057    21.600     6.617
     4   6 C        3.800    -0.058    21.621     6.620
     5   6 C        3.800    -0.065    21.752     6.640
     6   6 C        3.745     0.003    20.595     6.474
     7   7 N        2.743    -0.083    22.847     7.099
     8   6 C        2.941     0.061    26.632     8.464
     9   6 C        2.910    -0.078    29.955     8.975
    10   6 C        3.814    -0.052    21.501     6.600
    11   6 C        2.949     0.005    27.905     8.664
    12   6 C        2.911    -0.055    29.357     8.885
    13   6 C        3.890    -0.016    20.803     6.484
    14   6 C        3.054     0.004    27.876     8.659
    15   6 C        2.920    -0.042    29.036     8.836
    16   6 C        2.979     0.008    27.845     8.656
    17   6 C        2.973     0.004    27.941     8.670
    18   6 C        2.923    -0.037    28.921     8.819
    19   6 C        2.913    -0.032    28.802     8.800
    20   6 C        2.919    -0.039    28.973     8.827
    21   6 C        2.986     0.011    27.764     8.643
    22   6 C        2.920    -0.037    28.912     8.818
    23   6 C        2.915    -0.032    28.789     8.798
    24   6 C        2.916    -0.031    28.785     8.798
    25   6 C        2.917    -0.034    28.853     8.808
    26   6 C        2.986     0.008    27.831     8.654
    27   6 C        2.924    -0.040    28.992     8.830
    28   6 C        2.913    -0.036    28.905     8.816
    29   6 C        3.034    -0.003    28.064     8.689
    30   6 C        3.036    -0.002    28.051     8.687
    31   6 C        2.912    -0.036    28.899     8.815
    32   6 C        2.926    -0.039    28.961     8.825
    33   6 C        2.979     0.008    27.837     8.655
    34   6 C        2.974     0.003    27.944     8.671
    35   6 C        2.924    -0.037    28.923     8.819
    36   6 C        2.913    -0.032    28.805     8.801
    37   6 C        2.919    -0.040    28.985     8.829
    38   6 C        2.986     0.010    27.775     8.645
    39   6 C        2.919    -0.037    28.918     8.818
    40   6 C        2.915    -0.032    28.790     8.799
    41   6 C        2.916    -0.032    28.809     8.802
    42   6 C        2.917    -0.035    28.876     8.812
    43   6 C        2.986     0.008    27.843     8.656
    44   6 C        2.918    -0.040    28.982     8.828
    45   6 C        3.050     0.002    27.942     8.669
    46   6 C        2.957    -0.057    29.406     8.894
    47   6 C        2.964     0.015    27.675     8.629
    48  16 S        2.127    -0.151   147.442    20.437
    49   6 C        2.974     0.030    27.328     8.575
    50   6 C        2.971    -0.040    28.984     8.831
    51   6 C        2.919    -0.040    29.002     8.831
    52   6 C        2.918    -0.034    28.847     8.808
    53   6 C        2.926    -0.059    29.468     8.902
    54   6 C        2.952     0.062    26.612     8.461
    55   1 H        0.925     0.035     2.513     2.479
    56   1 H        0.925     0.030     2.589     2.516
    57   1 H        0.925     0.030     2.585     2.514
    58   1 H        0.924     0.026     2.638     2.540
    59   1 H        0.924     0.027     2.626     2.534
    60   1 H        0.925     0.034     2.524     2.484
    61   1 H        0.924     0.027     2.630     2.536
    62   1 H        0.924     0.034     2.528     2.486
    63   1 H        0.924     0.031     2.568     2.506
    64   1 H        0.925     0.050     2.314     2.379
    65   1 H        0.924     0.041     2.432     2.439
    66   1 H        0.923     0.032     2.557     2.501
    67   1 H        0.924     0.054     2.270     2.356
    68   1 H        0.926     0.032     2.554     2.499
    69   1 H        0.923     0.053     2.284     2.363
    70   1 H        0.923     0.062     2.179     2.308
    71   1 H        0.926     0.028     2.614     2.529
    72   1 H        0.924     0.056     2.249     2.345
    73   1 H        0.926     0.038     2.476     2.461
    74   1 H        0.926     0.031     2.572     2.508
    75   1 H        0.926     0.031     2.573     2.509
    76   1 H        0.926     0.031     2.573     2.509
    77   1 H        0.926     0.030     2.585     2.514
    78   1 H        0.926     0.027     2.632     2.537
    79   1 H        0.926     0.024     2.671     2.556
    80   1 H        0.926     0.033     2.549     2.497
    81   1 H        0.926     0.031     2.575     2.509
    82   1 H        0.926     0.032     2.559     2.501
    83   1 H        0.926     0.031     2.573     2.508
    84   1 H        0.926     0.030     2.587     2.515
    85   1 H        0.926     0.029     2.595     2.519
    86   1 H        0.926     0.030     2.586     2.515
    87   1 H        0.926     0.031     2.577     2.510
    88   1 H        0.925     0.031     2.575     2.509
    89   1 H        0.926     0.030     2.589     2.516
    90   1 H        0.926     0.029     2.594     2.519
    91   1 H        0.926     0.033     2.540     2.492
    92   1 H        0.926     0.032     2.556     2.500
    93   1 H        0.926     0.033     2.550     2.497
    94   1 H        0.926     0.037     2.495     2.470
    95   1 H        0.926     0.036     2.504     2.475
    96   1 H        0.926     0.037     2.488     2.467
    97   1 H        0.926     0.038     2.472     2.459

molecular dipole:
                 x           y           z       tot (Debye)
 q only:       -0.317       0.892      -0.824
   full:       -0.444       0.824      -1.112       3.695

 projected vibrational frequencies (cm⁻¹)
eigval :       -0.00    -0.00     0.00     0.00     0.00     0.00
eigval :        8.88    12.70    15.38    19.90    22.80    30.11
eigval :       34.26    43.48    48.16    51.06    55.75    59.04
eigval :       64.95    68.20    81.38    82.64    90.13   100.28
eigval :      117.48   124.60   127.91   150.21   155.79   159.79
eigval :      165.80   167.83   173.04   179.51   199.96   214.06
eigval :      219.55   222.31   234.60   236.34   258.76   262.45
eigval :      268.80   277.45   288.70   290.86   299.91   315.07
eigval :      322.49   327.35   350.73   354.98   374.49   382.84
eigval :      397.66   402.83   412.43   415.11   421.97   430.64
eigval :      435.71   437.34   440.61   443.11   447.17   456.55
eigval :      467.24   475.46   484.30   491.35   496.28   500.87
eigval :      503.71   509.96   516.18   524.86   535.75   542.13
eigval :      551.52   564.95   584.78   588.76   593.53   603.31
eigval :      610.15   625.50   627.94   645.06   646.65   653.46
eigval :      659.43   665.64   674.80   683.67   703.13   714.57
eigval :      725.48   726.48   728.15   761.65   762.65   767.07
eigval :      768.51   772.05   777.75   778.20   779.26   811.04
eigval :      813.78   821.83   823.64   827.05   834.84   836.53
eigval :      846.87   857.55   867.97   871.44   873.61   875.16
eigval :      880.20   891.30   893.97   897.28   898.94   899.67
eigval :      902.11   902.45   904.93   911.85   913.44   916.39
eigval :      918.89   920.37   926.11   926.46   930.86   931.91
eigval :      935.10   946.56   983.42   987.48   994.01   996.91
eigval :     1016.67  1034.41  1048.01  1065.82  1082.19  1084.57
eigval :     1091.62  1094.71  1099.61  1100.69  1110.06  1112.39
eigval :     1117.99  1122.24  1126.21  1129.34  1131.17  1135.80
eigval :     1141.86  1144.89  1156.25  1159.39  1162.87  1165.51
eigval :     1171.01  1174.67  1178.37  1180.34  1180.54  1184.09
eigval :     1189.17  1200.13  1203.35  1207.66  1220.83  1222.82
eigval :     1223.88  1226.83  1229.44  1239.04  1240.94  1247.85
eigval :     1248.96  1253.17  1270.94  1271.41  1277.12  1285.08
eigval :     1291.01  1295.55  1299.36  1307.85  1312.25  1319.90
eigval :     1323.84  1327.73  1333.73  1337.75  1342.36  1356.36
eigval :     1356.88  1358.64  1365.19  1368.94  1373.70  1376.58
eigval :     1386.70  1388.49  1409.10  1414.59  1415.66  1417.54
eigval :     1419.15  1421.74  1434.66  1437.13  1438.44  1446.98
eigval :     1461.22  1463.27  1469.11  1470.14  1473.56  1479.18
eigval :     1490.05  1492.74  1494.85  1501.70  1505.47  1506.20
eigval :     1507.40  1516.96  1556.37  1557.97  1559.91  1563.87
eigval :     1579.71  1580.56  1587.68  1592.62  1593.29  1602.46
eigval :     1608.44  1609.44  2788.68  2866.62  2872.74  2901.38
eigval :     2950.64  2954.25  2958.65  2965.86  2975.08  2985.03
eigval :     2989.32  3010.24  3015.15  3022.01  3026.87  3035.38
eigval :     3062.26  3064.65  3065.10  3067.76  3068.40  3068.99
eigval :     3069.54  3070.31  3071.56  3072.22  3074.18  3077.26
eigval :     3077.89  3078.76  3080.44  3081.69  3082.56  3083.45
eigval :     3083.69  3087.07  3090.22  3090.88  3094.85  3095.67
eigval :     3101.66  3101.81  3106.14

   temp. (K)  partition function   enthalpy   heat capacity  entropy
                                   cal/mol     cal/K/mol   cal/K/mol   J/K/mol
 298.15  VIB  0.193E+22            27227.683    170.943    169.847
         ROT  0.119E+09              888.752      2.981     39.927
         INT  0.229E+30            28116.435    173.924    209.774
         TR   0.185E+29             1481.254      4.968     45.557
         TOT                       29597.6892   178.8920   255.3305  1068.3027

       T/K    H(0)-H(T)+PV         H(T)/Eh          T*S/Eh         G(T)/Eh
   ------------------------------------------------------------------------
    298.15    0.471669E-01    0.820762E+00    0.121316E+00    0.699446E+00
   ------------------------------------------------------------------------

         :::::::::::::::::::::::::::::::::::::::::::::::::::::
         ::                  THERMODYNAMIC                  ::
         :::::::::::::::::::::::::::::::::::::::::::::::::::::
         :: total free energy        -138.749950111630 Eh   ::
         ::.................................................::
         :: total energy             -139.449395931522 Eh   ::
         :: zero point energy           0.773594645866 Eh   ::
         :: G(RRHO) w/o ZPVE           -0.074148825974 Eh   ::
         :: G(RRHO) contrib.            0.699445819892 Eh   ::
         :::::::::::::::::::::::::::::::::::::::::::::::::::::

           -------------------------------------------------
          | TOTAL ENERGY             -139.449395931522 Eh   |
          | TOTAL ENTHALPY           -138.628634365656 Eh   |
          | TOTAL FREE ENERGY        -138.749950111630 Eh   |
          | GRADIENT NORM               0.000060272085 Eh/α |
          | HOMO-LUMO GAP               0.218003563533 eV   |
           -------------------------------------------------

 * finished run on 2025/09/09 at 21:07:10.729
