   * xtb version 6.7.1 (edcfbbe) compiled by 'albert@albert-system' on 2024-07-22

   ID    Z sym.   atoms
    1    6 C      1-6, 8-47, 49-54
    2    7 N      7
    3   16 S      48
    4    1 H      55-97

          program call               : xtb data2507/toluene/DNFPh/DNFPh.xyz --gfn 2 --gbsa toluene --ohess vtight --parallel 40 --molden --ceasefiles --namespace data2507/toluene/DNFPh/DNFPh_toluene_S0_preOpt
      * Solvation model:               GBSA
        Solvent                        toluene
        Solvent mass                       9.2140E+01 g/mol
          :  Hamiltonian                  GFN2-xTB          :
 * total energy  :  -139.4983861 Eh     change       -0.3137984E-08 Eh
 * total energy  :  -139.5113217 Eh     change       -0.1293555E-01 Eh
 * total energy  :  -139.5144943 Eh     change       -0.3172578E-02 Eh
 * total energy  :  -139.5152242 Eh     change       -0.7299345E-03 Eh
 * total energy  :  -139.5157155 Eh     change       -0.4912985E-03 Eh
 * total energy  :  -139.5158602 Eh     change       -0.1447326E-03 Eh
 * total energy  :  -139.5159762 Eh     change       -0.1160244E-03 Eh
 * total energy  :  -139.5160568 Eh     change       -0.8056702E-04 Eh
 * total energy  :  -139.5161188 Eh     change       -0.6202526E-04 Eh
 * total energy  :  -139.5161695 Eh     change       -0.5064835E-04 Eh
 * total energy  :  -139.5189799 Eh     change       -0.2167099E-06 Eh
 * total energy  :  -139.5189802 Eh     change       -0.2864790E-06 Eh
 * total energy  :  -139.5189806 Eh     change       -0.3992654E-06 Eh
 * total energy  :  -139.5189810 Eh     change       -0.4396291E-06 Eh
 * total energy  :  -139.5189815 Eh     change       -0.4670383E-06 Eh
 * total energy  :  -139.5189820 Eh     change       -0.5122670E-06 Eh
 * total energy  :  -139.5189825 Eh     change       -0.5114476E-06 Eh
 * total energy  :  -139.5189829 Eh     change       -0.4063924E-06 Eh
 * total energy  :  -139.5189829 Eh     change       -0.7035197E-08 Eh
   *** GEOMETRY OPTIMIZATION CONVERGED AFTER 152 ITERATIONS ***

 final structure:
================
97
 xtb: 6.7.1 (edcfbbe)
C           -8.39319892684224        2.79896743073973       -2.29590902465110
C           -7.37871494978205        2.01010803283771       -1.47535147276274
C           -6.57024547759603        2.92040736251985       -0.55163469318529
C           -5.49069949682301        2.17838517934638        0.23712487314729
C           -6.06118796041303        1.29171122209645        1.34301748767526
C           -4.95648459599281        0.52141828500579        2.07431947297761
N           -4.23163715888658       -0.34647436207965        1.16685523357788
C           -2.83441359543794       -0.36296383693248        1.20106751666979
C           -2.13287202287832       -0.10046589932814        2.31675199590099
C           -0.64186832029970       -0.03728416030539        2.37778962459822
C            0.06711651217021       -0.24233765550499        1.05947394631760
C            1.40403901624269       -0.11687431543824        1.01084359092926
C            2.30215442746613       -0.28886976944084       -0.17583605215383
C            3.24060905600954        0.88277363852945       -0.33825366362162
C            2.92947194968320        2.20603248911695       -0.55560497278752
C            3.96234894666133        3.13932769252421       -0.65920862034632
C            3.65166753273647        4.55634963298110       -0.92425741416917
C            2.91673843824048        4.88287809816955       -2.04005766150811
C            2.64768977287584        6.21754206560602       -2.36925118952743
C            3.11548913113959        7.22894231869207       -1.57815175261673
C            3.84731979040597        6.94191470383535       -0.40677021370232
C            4.31603715719243        7.97051981458573        0.43851636754393
C            4.99750713380434        7.68054272828323        1.58665771631038
C            5.22951067331343        6.34428259750112        1.94670317771572
C            4.79653613309166        5.32496175934449        1.14478449660748
C            4.11341704444520        5.58907213847482       -0.06215470304479
C            5.28845724913466        2.71687141474567       -0.55809319941210
C            5.60544983444266        1.38729854746727       -0.34389213103693
C            4.57614006205082        0.46595554565163       -0.22710593554016
C            4.59427938175601       -0.96807502654054        0.00037927226925
C            5.64539283616694       -1.85344122425430        0.18069755546973
C            5.36067669786097       -3.19230130143526        0.38333489341454
C            4.04755764110522       -3.66173171666515        0.39938424079547
C            3.78574907939378       -5.09351525856166        0.63635015376615
C            4.27898724540859       -5.68486071258438        1.77610042599521
C            4.02490692578256       -7.03127610754338        2.06645000593000
C            3.27667316819742       -7.78988013272680        1.21078273114474
C            2.77216065408808       -7.23476313341344        0.01607804513055
C            2.02173458986864       -8.00925574995730       -0.89465928092338
C            1.56335039637932       -7.47095691663191       -2.06370266928645
C            1.84900789537577       -6.13406327059015       -2.38002560509172
C            2.56755536546340       -5.35517624502950       -1.51596020735167
C            3.03352078615041       -5.87103679728228       -0.28717072922072
C            2.99066676424255       -2.76495781177897        0.22571931806727
C            3.26984030214307       -1.43226289112887        0.02543340180459
C           -0.75093957993597       -0.57601078489374       -0.07307029029561
C           -2.09681736612818       -0.64421318674185       -0.01682333272544
S           -2.97711599133030       -0.99028652588257       -1.50615040898297
C           -4.45561403679726       -1.69609126258201       -0.83537622709027
C           -5.15311637148498       -2.61186296951623       -1.60586932660639
C           -6.34438355034311       -3.14196252060578       -1.14661884048185
C           -6.82025940162863       -2.75969047756044        0.09719858937457
C           -6.12066018245636       -1.85232599192380        0.86934714342346
C           -4.92602429692251       -1.28567531253178        0.41609169708763
H           -9.09424196672430        3.31462518325059       -1.64242670268107
H           -7.89152677611078        3.54188163169296       -2.91298455675876
H           -8.95661373435296        2.13505320180420       -2.94821547274112
H           -7.90667381821047        1.25596652209515       -0.88859786557008
H           -6.69651463277993        1.48537923184744       -2.14923205840384
H           -6.08977278913521        3.69072892902277       -1.16031186197988
H           -7.24586399359948        3.42412181025215        0.14409729089178
H           -4.81173063674372        2.90862060024145        0.68570612259680
H           -4.90605732161654        1.56658400393743       -0.45327600989728
H           -6.77793210279696        0.59193626688516        0.91533243941807
H           -6.58625112474466        1.91023705826621        2.07372861769383
H           -5.37648467422823       -0.03542010287033        2.92177602618059
H           -4.24031478418954        1.24461900215563        2.46788347346227
H           -2.63438648846475        0.08118439063241        3.25514402504347
H           -0.34712034409428        0.92972343063178        2.80308594058467
H           -0.29720693565543       -0.79622868064830        3.09236608286898
H            1.93272931594171        0.12919279057344        1.92361916921992
H            1.71701512614584       -0.43757102079628       -1.08672662968912
H            1.90049040230715        2.52843393837531       -0.63128989159319
H            2.56161954515327        4.09499268510022       -2.68954415780578
H            2.07749946392849        6.43730291901493       -3.26057487072611
H            2.92628148101091        8.26221277882782       -1.83274803151152
H            4.11707999105697        8.99644216165070        0.16124845183363
H            5.35213392941815        8.47438295857468        2.22837884384099
H            5.75033829113825        6.12567338102010        2.86805681277006
H            4.96534023425973        4.29868045870767        1.43581487315193
H            6.07907565789978        3.44607080361751       -0.66647154753001
H            6.63747611145658        1.07660248309175       -0.27237516857353
H            6.66889329745334       -1.50862095900147        0.16404353917132
H            6.16822704769431       -3.89821034227702        0.51717468921603
H            4.85508985999098       -5.09243472039625        2.47314452265258
H            4.41974944712047       -7.45911379533502        2.97685360668330
H            3.06598435281749       -8.82676731851200        1.43176286549449
H            1.82245403558212       -9.04341082399879       -0.64997581356875
H            0.99011292602177       -8.07109109893655       -2.75574903644004
H            1.50012944983276       -5.72446102094541       -3.31725425001914
H            2.79805300633251       -4.33235416728368       -1.77488115548443
H            1.96955195938536       -3.11732589158326        0.26490533150148
H           -0.27246676123924       -0.76891943526722       -1.02141904879836
H           -4.75860850430091       -2.88883245391935       -2.57228633886451
H           -6.89186525087827       -3.84701944840928       -1.75286576182976
H           -7.74342557428178       -3.17472089472345        0.47412403860785
H           -6.50377002631695       -1.58346381707500        1.84066511197317

          :  Hamiltonian                  GFN2-xTB          :
         :: gradient norm              0.000051385682 Eh/a0 ::
         :: HOMO-LUMO gap              2.184811827986 eV    ::
         :: SCC energy              -142.052769351762 Eh    ::
         :: -> dispersion             -0.127390685080 Eh    ::
         :: -> Gsolv                  -0.057799773979 Eh    ::
         :: repulsion energy           2.533786456640 Eh    ::

    * Orbital Energies and Occupations

         #    Occupation            Energy/Eh            Energy/eV
      -------------------------------------------------------------
         1        2.0000           -0.7182178             -19.5437
       ...           ...                  ...                  ...
       119        2.0000           -0.4102300             -11.1629
       120        2.0000           -0.4073166             -11.0836
       121        2.0000           -0.4069698             -11.0742
       122        2.0000           -0.4030246             -10.9669
       123        2.0000           -0.3987367             -10.8502
       124        2.0000           -0.3986977             -10.8491
       125        2.0000           -0.3931252             -10.6975
       126        2.0000           -0.3896811             -10.6038
       127        2.0000           -0.3830439             -10.4232
       128        2.0000           -0.3739111             -10.1746
       129        2.0000           -0.3656011              -9.9485
       130        2.0000           -0.3484843              -9.4827
       131        2.0000           -0.3455139              -9.4019 (HOMO)
       132                         -0.2652236              -7.2171 (LUMO)
       133                         -0.2639125              -7.1814
       134                         -0.2583572              -7.0303
       135                         -0.2423740              -6.5953
       136                         -0.2307728              -6.2796
       137                         -0.2266674              -6.1679
       138                         -0.2266157              -6.1665
       139                         -0.2232561              -6.0751
       140                         -0.2212725              -6.0211
       141                         -0.2179834              -5.9316
       142                         -0.2001865              -5.4474
       ...                                ...                  ...
       264                          0.7336698              19.9642
      -------------------------------------------------------------
                  HL-Gap            0.0802903 Eh            2.1848 eV

     #   Z          covCN         q      C6AA      α(0)
     1   6 C        3.752    -0.102    22.506     6.765
     2   6 C        3.800    -0.051    21.496     6.601
     3   6 C        3.802    -0.059    21.639     6.623
     4   6 C        3.802    -0.056    21.580     6.614
     5   6 C        3.802    -0.064    21.731     6.637
     6   6 C        3.747     0.001    20.631     6.479
     7   7 N        2.745    -0.088    22.958     7.116
     8   6 C        2.929     0.052    26.838     8.496
     9   6 C        2.909    -0.072    29.807     8.952
    10   6 C        3.814    -0.060    21.635     6.620
    11   6 C        2.948     0.004    27.934     8.669
    12   6 C        2.907    -0.051    29.256     8.869
    13   6 C        3.891    -0.020    20.877     6.496
    14   6 C        3.052     0.003    27.898     8.662
    15   6 C        2.919    -0.041    29.013     8.833
    16   6 C        2.980     0.008    27.830     8.653
    17   6 C        2.974     0.004    27.934     8.669
    18   6 C        2.924    -0.037    28.909     8.817
    19   6 C        2.913    -0.032    28.799     8.800
    20   6 C        2.919    -0.039    28.978     8.828
    21   6 C        2.986     0.011    27.772     8.645
    22   6 C        2.919    -0.037    28.914     8.818
    23   6 C        2.915    -0.032    28.786     8.798
    24   6 C        2.916    -0.032    28.806     8.801
    25   6 C        2.917    -0.035    28.875     8.812
    26   6 C        2.986     0.008    27.844     8.656
    27   6 C        2.925    -0.037    28.927     8.820
    28   6 C        2.912    -0.037    28.909     8.817
    29   6 C        3.036    -0.003    28.054     8.688
    30   6 C        3.036    -0.002    28.052     8.687
    31   6 C        2.913    -0.036    28.897     8.815
    32   6 C        2.926    -0.039    28.967     8.826
    33   6 C        2.980     0.008    27.833     8.654
    34   6 C        2.974     0.004    27.935     8.670
    35   6 C        2.924    -0.037    28.922     8.819
    36   6 C        2.913    -0.032    28.806     8.801
    37   6 C        2.919    -0.039    28.978     8.828
    38   6 C        2.986     0.011    27.773     8.645
    39   6 C        2.919    -0.037    28.914     8.818
    40   6 C        2.915    -0.031    28.781     8.797
    41   6 C        2.916    -0.032    28.796     8.800
    42   6 C        2.917    -0.035    28.868     8.811
    43   6 C        2.986     0.008    27.841     8.655
    44   6 C        2.918    -0.039    28.974     8.827
    45   6 C        3.052     0.003    27.903     8.663
    46   6 C        2.978    -0.051    29.256     8.872
    47   6 C        2.961     0.039    27.132     8.544
    48  16 S        2.139    -0.164   147.985    20.474
    49   6 C        2.974     0.031    27.298     8.570
    50   6 C        2.971    -0.041    29.010     8.835
    51   6 C        2.919    -0.042    29.041     8.837
    52   6 C        2.918    -0.036    28.889     8.814
    53   6 C        2.925    -0.057    29.420     8.895
    54   6 C        2.952     0.064    26.565     8.454
    55   1 H        0.925     0.034     2.532     2.489
    56   1 H        0.925     0.033     2.545     2.495
    57   1 H        0.925     0.033     2.549     2.497
    58   1 H        0.924     0.028     2.616     2.529
    59   1 H        0.924     0.027     2.633     2.538
    60   1 H        0.924     0.032     2.560     2.502
    61   1 H        0.924     0.033     2.550     2.497
    62   1 H        0.924     0.030     2.581     2.512
    63   1 H        0.924     0.033     2.539     2.492
    64   1 H        0.925     0.044     2.399     2.422
    65   1 H        0.924     0.042     2.427     2.436
    66   1 H        0.924     0.034     2.533     2.489
    67   1 H        0.924     0.053     2.286     2.364
    68   1 H        0.926     0.033     2.541     2.493
    69   1 H        0.924     0.054     2.265     2.354
    70   1 H        0.924     0.056     2.251     2.346
    71   1 H        0.925     0.025     2.656     2.548
    72   1 H        0.924     0.053     2.279     2.361
    73   1 H        0.926     0.030     2.592     2.518
    74   1 H        0.926     0.030     2.590     2.517
    75   1 H        0.926     0.031     2.577     2.510
    76   1 H        0.926     0.031     2.568     2.506
    77   1 H        0.926     0.031     2.567     2.505
    78   1 H        0.926     0.030     2.584     2.514
    79   1 H        0.926     0.029     2.593     2.518
    80   1 H        0.926     0.033     2.540     2.492
    81   1 H        0.926     0.031     2.574     2.509
    82   1 H        0.926     0.031     2.568     2.506
    83   1 H        0.926     0.032     2.564     2.504
    84   1 H        0.926     0.030     2.584     2.514
    85   1 H        0.926     0.030     2.589     2.516
    86   1 H        0.926     0.031     2.578     2.511
    87   1 H        0.926     0.031     2.570     2.507
    88   1 H        0.925     0.031     2.568     2.506
    89   1 H        0.926     0.030     2.584     2.514
    90   1 H        0.926     0.029     2.594     2.519
    91   1 H        0.926     0.033     2.543     2.494
    92   1 H        0.926     0.030     2.586     2.515
    93   1 H        0.926     0.039     2.468     2.457
    94   1 H        0.926     0.037     2.490     2.467
    95   1 H        0.926     0.035     2.522     2.483
    96   1 H        0.926     0.036     2.508     2.477
    97   1 H        0.926     0.040     2.444     2.445

molecular dipole:
                 x           y           z       tot (Debye)
 q only:       -0.708       0.397       0.912
   full:       -0.767       0.305       1.156       3.610

 projected vibrational frequencies (cm⁻¹)
eigval :       -0.00    -0.00    -0.00     0.00     0.00     0.00
eigval :      -12.38     2.06     8.33    10.06    14.82    17.86
eigval :       19.79    25.27    32.16    41.16    44.15    50.75
eigval :       54.48    60.51    62.51    77.14    87.81    93.76
eigval :      123.65   125.03   132.48   144.79   147.16   149.20
eigval :      154.47   159.50   163.42   168.54   189.55   203.68
eigval :      209.35   225.33   234.62   244.74   256.74   262.37
eigval :      267.62   271.44   287.22   290.86   301.07   313.19
eigval :      317.03   324.11   349.89   353.07   375.11   385.70
eigval :      393.63   399.00   403.64   411.92   416.26   419.55
eigval :      422.91   433.32   436.97   448.38   458.73   469.45
eigval :      476.96   491.18   493.65   498.67   501.43   508.13
eigval :      512.75   526.25   529.92   538.06   552.14   555.55
eigval :      563.94   573.52   587.50   591.06   609.13   611.86
eigval :      628.24   630.44   633.32   647.92   657.67   664.20
eigval :      675.46   688.59   703.53   720.63   722.43   723.78
eigval :      725.96   760.96   761.90   769.57   771.43   772.82
eigval :      777.01   777.82   779.13   796.45   802.33   812.41
eigval :      813.88   824.89   832.73   836.28   840.83   846.08
eigval :      852.56   864.19   872.63   874.51   875.14   876.48
eigval :      883.17   885.46   889.67   891.47   894.35   896.82
eigval :      899.53   901.09   914.00   915.17   916.65   917.31
eigval :      918.47   921.64   925.74   925.88   928.69   929.91
eigval :      931.67   969.08   984.73   991.61   996.92  1000.61
eigval :     1020.75  1041.44  1053.54  1060.32  1081.18  1081.37
eigval :     1083.77  1095.51  1099.39  1106.53  1106.93  1111.63
eigval :     1121.21  1125.15  1129.78  1132.47  1138.33  1143.34
eigval :     1146.29  1158.06  1160.84  1167.71  1169.07  1171.34
eigval :     1173.08  1179.00  1179.91  1181.34  1183.20  1184.78
eigval :     1189.20  1200.71  1203.62  1216.32  1218.98  1222.64
eigval :     1224.70  1239.53  1240.18  1243.12  1246.02  1249.15
eigval :     1253.13  1259.43  1272.04  1277.28  1283.28  1285.53
eigval :     1287.85  1299.36  1307.48  1315.13  1317.46  1320.18
eigval :     1323.17  1331.68  1334.99  1336.86  1342.02  1354.70
eigval :     1356.32  1369.11  1369.79  1375.32  1378.10  1382.90
eigval :     1390.12  1390.32  1413.12  1413.21  1415.91  1420.36
eigval :     1421.55  1435.23  1439.30  1442.51  1448.33  1465.00
eigval :     1466.60  1473.99  1476.73  1480.25  1486.54  1491.71
eigval :     1494.97  1502.15  1503.59  1507.76  1508.20  1558.86
eigval :     1563.40  1563.79  1568.31  1572.26  1581.62  1582.95
eigval :     1594.68  1594.99  1596.60  1603.87  1608.99  1609.15
eigval :     1637.17  1649.53  2881.80  2889.07  2920.27  2949.13
eigval :     2954.10  2956.88  2964.34  2973.94  2977.26  2981.72
eigval :     2985.63  2990.77  3014.79  3023.22  3025.71  3032.94
eigval :     3047.95  3062.72  3062.82  3064.71  3064.81  3068.45
eigval :     3068.67  3069.11  3069.55  3070.10  3070.79  3073.15
eigval :     3075.38  3077.83  3078.65  3079.53  3080.68  3081.69
eigval :     3082.14  3082.20  3083.29  3084.17  3085.09  3088.31
eigval :     3091.37  3096.11  3107.19

   temp. (K)  partition function   enthalpy   heat capacity  entropy
                                   cal/mol     cal/K/mol   cal/K/mol   J/K/mol
 298.15  VIB  0.108E+25            27382.977    167.794    174.776
         ROT  0.172E+09              888.752      2.981     40.666
         INT  0.186E+33            28271.730    170.775    215.442
         TR   0.185E+29             1481.254      4.968     45.557
         TOT                       29752.9835   175.7435   260.9985  1092.0177

       T/K    H(0)-H(T)+PV         H(T)/Eh          T*S/Eh         G(T)/Eh
   ------------------------------------------------------------------------
    298.15    0.474144E-01    0.823589E+00    0.124009E+00    0.699581E+00
   ------------------------------------------------------------------------

         :::::::::::::::::::::::::::::::::::::::::::::::::::::
         ::                  THERMODYNAMIC                  ::
         :::::::::::::::::::::::::::::::::::::::::::::::::::::
         :: total free energy        -138.819402237332 Eh   ::
         ::.................................................::
         :: total energy             -139.518982891055 Eh   ::
         :: zero point energy           0.776175065306 Eh   ::
         :: G(RRHO) w/o ZPVE           -0.076594411583 Eh   ::
         :: G(RRHO) contrib.            0.699580653724 Eh   ::
         :::::::::::::::::::::::::::::::::::::::::::::::::::::

           -------------------------------------------------
          | TOTAL ENERGY             -139.518982891055 Eh   |
          | TOTAL ENTHALPY           -138.695393428455 Eh   |
          | TOTAL FREE ENERGY        -138.819402237332 Eh   |
          | GRADIENT NORM               0.000051404384 Eh/α |
          | HOMO-LUMO GAP               2.184810780100 eV   |
           -------------------------------------------------

 * finished run on 2025/09/09 at 19:32:43.738
