   * xtb version 6.7.1 (edcfbbe) compiled by 'albert@albert-system' on 2024-07-22

   ID    Z sym.   atoms
    1    6 C      1-6, 8-47, 49-54
    2    7 N      7
    3   16 S      48
    4    1 H      55-97

          program call               : xtb data2507/toluene/DNFPh/DNFPh_toluene_S0_crest.xyz --gfn 2 --gbsa toluene --ohess vtight --parallel 40 --molden --ceasefiles --namespace data2507/toluene/DNFPh/DNFPh_toluene_S0_finalOpt
      * Solvation model:               GBSA
        Solvent                        toluene
        Solvent mass                       9.2140E+01 g/mol
          :  Hamiltonian                  GFN2-xTB          :
 * total energy  :  -139.5205842 Eh     change       -0.4644363E-08 Eh
 * total energy  :  -139.5207077 Eh     change       -0.1235323E-03 Eh
 * total energy  :  -139.5208110 Eh     change       -0.1032390E-03 Eh
 * total energy  :  -139.5208628 Eh     change       -0.5183380E-04 Eh
 * total energy  :  -139.5209376 Eh     change       -0.7478796E-04 Eh
 * total energy  :  -139.5210164 Eh     change       -0.7884626E-04 Eh
 * total energy  :  -139.5210807 Eh     change       -0.6429272E-04 Eh
 * total energy  :  -139.5211076 Eh     change       -0.2692392E-04 Eh
 * total energy  :  -139.5211303 Eh     change       -0.2262537E-04 Eh
 * total energy  :  -139.5211471 Eh     change       -0.1678822E-04 Eh
 * total energy  :  -139.5214049 Eh     change       -0.6346105E-06 Eh
 * total energy  :  -139.5214055 Eh     change       -0.6269451E-06 Eh
 * total energy  :  -139.5214060 Eh     change       -0.5421698E-06 Eh
 * total energy  :  -139.5214065 Eh     change       -0.4518631E-06 Eh
 * total energy  :  -139.5214069 Eh     change       -0.3928305E-06 Eh
 * total energy  :  -139.5214073 Eh     change       -0.3857299E-06 Eh
 * total energy  :  -139.5214077 Eh     change       -0.4546747E-06 Eh
 * total energy  :  -139.5214083 Eh     change       -0.5750778E-06 Eh
 * total energy  :  -139.5214083 Eh     change       -0.1890243E-08 Eh
   *** GEOMETRY OPTIMIZATION CONVERGED AFTER 68 ITERATIONS ***

 final structure:
================
97
 xtb: 6.7.1 (edcfbbe)
C            0.41609550727948       -4.90814293705935       -1.71484159540368
C            0.87717575517512       -6.14208718470694       -0.94659174861185
C            2.38793254340648       -6.37793130808357       -1.02251809777535
C            3.24813536010734       -5.22369658511284       -0.50624463267408
C            3.02410574585350       -4.91668217629198        0.97292631612933
C            3.90129843752947       -3.75130645067310        1.44494554820767
N            3.64719778826053       -2.54986954109518        0.67232973157351
C            2.34774203309564       -2.04198779208453        0.61092478070131
C            1.44627996598508       -2.23092723331229        1.59070904816454
C            0.02239775755599       -1.78186054033212        1.51166700279842
C           -0.25964402378666       -0.79979637914095        0.40371753642175
C           -1.34117196322300       -0.00765348267131        0.45738506033066
C           -1.72690315547523        1.04481057678715       -0.54576426356702
C           -3.15291060587527        1.49531031580310       -0.36875351990951
C           -4.30645458751703        0.75758548676564       -0.50718062786532
C           -5.53948805300977        1.36902588835827       -0.26672758595588
C           -6.79386845033558        0.61248295829594       -0.43533807194598
C           -7.75108168314476        1.08601700885106       -1.30234740072155
C           -8.93667504980671        0.37781817829630       -1.53559500044878
C           -9.16589938528077       -0.80896599058630       -0.89791696435811
C           -8.22604779300736       -1.32136032789976        0.02072207022691
C           -8.45532190889267       -2.53245468742866        0.70858764844107
C           -7.55318762646608       -3.00503561356809        1.61928025655959
C           -6.38625615016905       -2.27587588433987        1.89393459762820
C           -6.13111414526059       -1.10326710153454        1.23869428928194
C           -7.02659089517541       -0.60091818991016        0.26985301861594
C           -5.58189809558803        2.71386565044873        0.09922272130559
C           -4.42429505848189        3.45786275763855        0.24770886149878
C           -3.20295348185069        2.84520128354849        0.01578779107760
C           -1.84455256677914        3.35554651998638        0.08410537671039
C           -1.34618576350278        4.60568679603299        0.41858717520425
C            0.02298213858076        4.80857195735506        0.39806703095116
C            0.90302570391572        3.78670661160285        0.04117776430372
C            2.35545319279484        4.02115989204415       -0.01079248632709
C            2.83604788904923        5.11460101344128       -0.69470168530501
C            4.21054499238781        5.33686853067727       -0.84261594870768
C            5.10999102481039        4.45573436925248       -0.31158751402409
C            4.66741970248950        3.33438401849677        0.42109810867477
C            5.58377364512455        2.43081687037164        1.00021753286267
C            5.15097710810430        1.36596131182227        1.73739981285626
C            3.77818678372275        1.17178847724592        1.94577836711251
C            2.86435965675041        2.02828480662587        1.39748231348163
C            3.27367497105273        3.11609973845745        0.59555050285203
C            0.39341426119525        2.53469343892633       -0.31069625111175
C           -0.96425810314083        2.32357854115017       -0.27533223203149
C            0.69236275367283       -0.76890267098648       -0.67479311439468
C            1.91818830275210       -1.31907823194305       -0.57386269622091
S            3.00520238567548       -1.21191147530102       -1.96180124838375
C            4.55538367337315       -1.17555250803397       -1.10986810494265
C            5.61255357699333       -0.50395974866405       -1.69946039124135
C            6.86020678967144       -0.51411500925149       -1.10453305677268
C            7.03240058977817       -1.18590983842776        0.09411378099606
C            5.97232029934840       -1.83982692381058        0.69234592691078
C            4.70795814497015       -1.86459015620947        0.09735428211690
H            0.76539378457787       -4.94623932944592       -2.74489287195605
H           -0.67086270612149       -4.85401005968250       -1.72409187733718
H            0.79309023999990       -3.99622709907983       -1.25879744056426
H            0.56636829556115       -6.05733878735311        0.09644414083785
H            0.37881081109650       -7.02301314371667       -1.36032475698625
H            2.62706929199536       -7.28114760154423       -0.45463382144833
H            2.65840691329629       -6.56382257505953       -2.06531203259851
H            3.04294664797678       -4.33037789021542       -1.09729622393569
H            4.29986010242534       -5.48076372105403       -0.66182955960569
H            3.27114729498754       -5.79402151462022        1.57412855061534
H            1.97579734237146       -4.67508020392789        1.13910953817107
H            4.94364699914768       -4.02881845612403        1.28516007379508
H            3.75468797658145       -3.57650580433688        2.51832748291757
H            1.70670709769388       -2.76949830722112        2.48798487719012
H           -0.61112055935777       -2.66995649272787        1.36568980938045
H           -0.27367869199465       -1.35429428408642        2.47399826982013
H           -1.98172551962184       -0.06017581603493        1.32775012765940
H           -1.54662320974403        0.68778380604357       -1.56480126087284
H           -4.26750833796860       -0.27808700880322       -0.81446756902793
H           -7.57383264466169        2.01074901125796       -1.83352300576421
H           -9.66126426995923        0.77510805433043       -2.23196202939468
H          -10.07153305599891       -1.36944405457462       -1.08262559544185
H           -9.36658194046160       -3.07702548250568        0.50349025585386
H           -7.73687968112697       -3.93313551433251        2.14144107074083
H           -5.69089090734559       -2.64644393169402        2.63357270724285
H           -5.23981873175144       -0.53864811517343        1.46808849572388
H           -6.54246631632714        3.17357563305190        0.28492964092829
H           -4.47593697252306        4.49629910899885        0.54047440345861
H           -2.01201174650291        5.40924889253890        0.69772467079467
H            0.42481647811742        5.77165180220497        0.67944937442072
H            2.13815658654134        5.80007212247557       -1.15459901597254
H            4.54989142808579        6.20214620393466       -1.39395370972885
H            6.17269749058834        4.60640368291279       -0.43902988739376
H            6.64072602962292        2.60356449217285        0.85384953365356
H            5.85982131222423        0.67878512092993        2.17439371655244
H            3.44384890472837        0.34221524796790        2.55194574567443
H            1.81229706392858        1.88234935272334        1.59080421889264
H            1.06860031093725        1.75058846700426       -0.61619777735811
H            0.42660050002684       -0.25744976742920       -1.58786614874910
H            5.44861753715496        0.00945827459351       -2.63538779399355
H            7.68562021903171        0.00079482885025       -1.57121227574612
H            7.99875839409850       -1.19248764847068        0.57677167124300
H            6.12527478870928       -2.32848506888527        1.64234825900952

          :  Hamiltonian                  GFN2-xTB          :
         :: gradient norm              0.000037276434 Eh/a0 ::
         :: HOMO-LUMO gap              2.123577134543 eV    ::
         :: SCC energy              -142.056326836590 Eh    ::
         :: -> dispersion             -0.141289705530 Eh    ::
         :: -> Gsolv                  -0.051817505124 Eh    ::
         :: repulsion energy           2.534918526150 Eh    ::

    * Orbital Energies and Occupations

         #    Occupation            Energy/Eh            Energy/eV
      -------------------------------------------------------------
         1        2.0000           -0.7171407             -19.5144
       ...           ...                  ...                  ...
       119        2.0000           -0.4094012             -11.1404
       120        2.0000           -0.4078365             -11.0978
       121        2.0000           -0.4066949             -11.0667
       122        2.0000           -0.4021813             -10.9439
       123        2.0000           -0.3988611             -10.8536
       124        2.0000           -0.3987231             -10.8498
       125        2.0000           -0.3932548             -10.7010
       126        2.0000           -0.3888320             -10.5807
       127        2.0000           -0.3837941             -10.4436
       128        2.0000           -0.3736116             -10.1665
       129        2.0000           -0.3648151              -9.9271
       130        2.0000           -0.3490326              -9.4977
       131        2.0000           -0.3444449              -9.3728 (HOMO)
       132                         -0.2664049              -7.2492 (LUMO)
       133                         -0.2627135              -7.1488
       134                         -0.2587707              -7.0415
       135                         -0.2415370              -6.5726
       136                         -0.2308457              -6.2816
       137                         -0.2267923              -6.1713
       138                         -0.2266644              -6.1679
       139                         -0.2234322              -6.0799
       140                         -0.2208438              -6.0095
       141                         -0.2173015              -5.9131
       142                         -0.2013889              -5.4801
       ...                                ...                  ...
       264                          0.7352705              20.0077
      -------------------------------------------------------------
                  HL-Gap            0.0780400 Eh            2.1236 eV

     #   Z          covCN         q      C6AA      α(0)
     1   6 C        3.751    -0.097    22.423     6.753
     2   6 C        3.799    -0.052    21.508     6.603
     3   6 C        3.801    -0.058    21.611     6.619
     4   6 C        3.802    -0.055    21.561     6.611
     5   6 C        3.802    -0.065    21.746     6.639
     6   6 C        3.748     0.001    20.624     6.477
     7   7 N        2.744    -0.086    22.919     7.110
     8   6 C        2.929     0.057    26.728     8.478
     9   6 C        2.910    -0.071    29.778     8.948
    10   6 C        3.814    -0.058    21.597     6.614
    11   6 C        2.950     0.005    27.917     8.666
    12   6 C        2.907    -0.050    29.245     8.867
    13   6 C        3.892    -0.019    20.862     6.493
    14   6 C        3.051     0.002    27.934     8.668
    15   6 C        2.918    -0.040    28.983     8.828
    16   6 C        2.979     0.008    27.840     8.655
    17   6 C        2.974     0.004    27.936     8.670
    18   6 C        2.923    -0.037    28.919     8.819
    19   6 C        2.913    -0.032    28.802     8.800
    20   6 C        2.919    -0.039    28.978     8.828
    21   6 C        2.986     0.011    27.773     8.645
    22   6 C        2.919    -0.037    28.913     8.818
    23   6 C        2.915    -0.032    28.787     8.798
    24   6 C        2.916    -0.032    28.806     8.801
    25   6 C        2.917    -0.035    28.869     8.811
    26   6 C        2.986     0.008    27.841     8.655
    27   6 C        2.926    -0.039    28.967     8.826
    28   6 C        2.912    -0.036    28.896     8.815
    29   6 C        3.037    -0.003    28.055     8.688
    30   6 C        3.035    -0.003    28.061     8.689
    31   6 C        2.913    -0.036    28.904     8.816
    32   6 C        2.924    -0.039    28.978     8.828
    33   6 C        2.979     0.008    27.847     8.656
    34   6 C        2.973     0.004    27.936     8.670
    35   6 C        2.923    -0.037    28.921     8.819
    36   6 C        2.913    -0.032    28.801     8.800
    37   6 C        2.919    -0.039    28.966     8.826
    38   6 C        2.987     0.011    27.766     8.644
    39   6 C        2.920    -0.036    28.908     8.817
    40   6 C        2.915    -0.031    28.784     8.798
    41   6 C        2.916    -0.032    28.792     8.799
    42   6 C        2.917    -0.035    28.869     8.811
    43   6 C        2.986     0.008    27.834     8.654
    44   6 C        2.920    -0.041    29.020     8.834
    45   6 C        3.054     0.003    27.894     8.662
    46   6 C        2.977    -0.049    29.212     8.866
    47   6 C        2.962     0.038    27.142     8.545
    48  16 S        2.138    -0.170   148.245    20.492
    49   6 C        2.974     0.032    27.279     8.567
    50   6 C        2.972    -0.040    28.999     8.833
    51   6 C        2.919    -0.041    29.028     8.835
    52   6 C        2.918    -0.034    28.855     8.809
    53   6 C        2.926    -0.058    29.452     8.900
    54   6 C        2.952     0.061    26.635     8.465
    55   1 H        0.925     0.032     2.561     2.503
    56   1 H        0.925     0.029     2.601     2.522
    57   1 H        0.925     0.033     2.539     2.492
    58   1 H        0.924     0.030     2.587     2.515
    59   1 H        0.924     0.028     2.622     2.532
    60   1 H        0.924     0.029     2.602     2.522
    61   1 H        0.924     0.030     2.583     2.513
    62   1 H        0.924     0.038     2.479     2.462
    63   1 H        0.924     0.026     2.639     2.540
    64   1 H        0.924     0.040     2.444     2.445
    65   1 H        0.925     0.047     2.354     2.399
    66   1 H        0.924     0.052     2.298     2.370
    67   1 H        0.924     0.034     2.529     2.487
    68   1 H        0.926     0.035     2.514     2.479
    69   1 H        0.923     0.056     2.246     2.344
    70   1 H        0.924     0.050     2.315     2.379
    71   1 H        0.925     0.028     2.621     2.532
    72   1 H        0.924     0.054     2.276     2.359
    73   1 H        0.926     0.032     2.562     2.503
    74   1 H        0.926     0.030     2.592     2.518
    75   1 H        0.926     0.030     2.583     2.513
    76   1 H        0.926     0.031     2.573     2.509
    77   1 H        0.925     0.031     2.572     2.508
    78   1 H        0.926     0.030     2.585     2.514
    79   1 H        0.926     0.030     2.588     2.516
    80   1 H        0.926     0.034     2.536     2.490
    81   1 H        0.926     0.030     2.592     2.518
    82   1 H        0.926     0.031     2.577     2.510
    83   1 H        0.926     0.031     2.566     2.505
    84   1 H        0.926     0.031     2.577     2.510
    85   1 H        0.926     0.031     2.570     2.507
    86   1 H        0.926     0.031     2.571     2.507
    87   1 H        0.926     0.031     2.570     2.507
    88   1 H        0.926     0.031     2.579     2.511
    89   1 H        0.926     0.029     2.607     2.525
    90   1 H        0.926     0.026     2.650     2.546
    91   1 H        0.926     0.033     2.543     2.494
    92   1 H        0.926     0.035     2.522     2.483
    93   1 H        0.926     0.040     2.445     2.445
    94   1 H        0.926     0.035     2.518     2.482
    95   1 H        0.926     0.034     2.526     2.485
    96   1 H        0.926     0.036     2.505     2.475
    97   1 H        0.926     0.037     2.486     2.466

molecular dipole:
                 x           y           z       tot (Debye)
 q only:        0.149      -0.873       0.802
   full:        0.266      -0.830       0.982       3.338

 projected vibrational frequencies (cm⁻¹)
eigval :       -0.00    -0.00    -0.00    -0.00     0.00     0.00
eigval :        7.02    12.65    17.38    18.41    20.60    26.65
eigval :       31.64    36.27    44.36    46.28    50.32    53.08
eigval :       63.75    65.61    74.11    82.57    89.81   117.89
eigval :      124.70   129.38   141.27   152.36   155.76   159.84
eigval :      163.69   165.48   173.40   183.91   204.34   208.07
eigval :      218.99   231.72   238.22   245.06   265.58   270.23
eigval :      276.78   279.35   283.51   293.85   311.19   313.59
eigval :      330.32   345.22   351.08   362.37   373.46   382.96
eigval :      396.85   402.86   413.70   415.65   422.40   431.85
eigval :      435.07   436.12   437.36   441.84   463.05   469.29
eigval :      477.00   490.22   497.08   498.71   504.12   509.77
eigval :      512.01   522.82   528.56   536.18   542.55   550.55
eigval :      570.94   581.14   589.01   599.78   603.60   610.26
eigval :      623.95   631.63   642.25   647.61   659.25   664.07
eigval :      675.48   684.33   703.01   714.51   725.11   725.52
eigval :      727.37   757.11   761.25   762.79   766.80   772.03
eigval :      777.39   778.50   780.30   794.24   811.85   812.62
eigval :      818.99   829.59   833.52   838.19   840.60   847.45
eigval :      860.12   862.98   872.07   872.69   876.27   878.01
eigval :      881.65   882.62   892.35   894.33   897.68   900.16
eigval :      903.14   908.92   915.82   916.15   917.02   917.65
eigval :      920.34   921.31   925.13   925.22   928.55   932.17
eigval :      940.93   973.66   984.83   990.48   997.95  1006.64
eigval :     1018.50  1030.77  1046.83  1057.23  1068.35  1082.24
eigval :     1084.78  1097.01  1099.24  1109.53  1112.76  1113.37
eigval :     1122.09  1124.56  1127.28  1133.60  1140.94  1142.89
eigval :     1151.64  1159.52  1160.84  1163.28  1165.64  1169.32
eigval :     1171.12  1176.66  1180.18  1180.98  1181.95  1182.47
eigval :     1188.17  1200.77  1202.81  1214.68  1221.09  1222.70
eigval :     1224.50  1237.68  1239.82  1240.65  1246.61  1249.60
eigval :     1252.39  1255.77  1266.68  1271.50  1274.50  1285.77
eigval :     1289.07  1300.35  1311.40  1321.23  1324.05  1326.41
eigval :     1332.25  1334.01  1337.79  1342.16  1350.24  1355.68
eigval :     1357.22  1362.11  1368.72  1371.98  1376.60  1377.36
eigval :     1390.01  1390.50  1414.04  1415.14  1416.39  1421.20
eigval :     1421.46  1436.87  1439.87  1443.88  1447.91  1464.41
eigval :     1467.21  1475.14  1476.27  1478.90  1485.38  1492.03
eigval :     1500.19  1505.75  1507.76  1507.94  1517.72  1560.03
eigval :     1562.73  1563.62  1568.80  1576.02  1582.17  1584.54
eigval :     1593.92  1594.68  1597.14  1605.31  1609.37  1610.56
eigval :     1640.12  1646.61  2856.26  2893.36  2920.29  2949.02
eigval :     2953.32  2954.29  2957.93  2972.99  2978.78  2983.84
eigval :     2997.94  3000.75  3022.58  3023.70  3027.55  3043.33
eigval :     3056.72  3062.63  3064.37  3064.77  3067.83  3068.52
eigval :     3069.35  3069.78  3070.37  3071.23  3072.92  3073.15
eigval :     3076.45  3079.53  3080.56  3081.65  3081.79  3082.13
eigval :     3082.23  3083.09  3088.20  3091.43  3091.79  3095.44
eigval :     3095.94  3099.14  3100.63

   temp. (K)  partition function   enthalpy   heat capacity  entropy
                                   cal/mol     cal/K/mol   cal/K/mol   J/K/mol
 298.15  VIB  0.332E+22            26966.580    168.579    168.315
         ROT  0.121E+09              888.752      2.981     39.959
         INT  0.400E+30            27855.333    171.560    208.274
         TR   0.185E+29             1481.254      4.968     45.557
         TOT                       29336.5866   176.5281   253.8306  1062.0273

       T/K    H(0)-H(T)+PV         H(T)/Eh          T*S/Eh         G(T)/Eh
   ------------------------------------------------------------------------
    298.15    0.467508E-01    0.824170E+00    0.120603E+00    0.703567E+00
   ------------------------------------------------------------------------

         :::::::::::::::::::::::::::::::::::::::::::::::::::::
         ::                  THERMODYNAMIC                  ::
         :::::::::::::::::::::::::::::::::::::::::::::::::::::
         :: total free energy        -138.817841249787 Eh   ::
         ::.................................................::
         :: total energy             -139.521408313238 Eh   ::
         :: zero point energy           0.777419353041 Eh   ::
         :: G(RRHO) w/o ZPVE           -0.073852289590 Eh   ::
         :: G(RRHO) contrib.            0.703567063451 Eh   ::
         :::::::::::::::::::::::::::::::::::::::::::::::::::::

           -------------------------------------------------
          | TOTAL ENERGY             -139.521408313238 Eh   |
          | TOTAL ENTHALPY           -138.697238133639 Eh   |
          | TOTAL FREE ENERGY        -138.817841249787 Eh   |
          | GRADIENT NORM               0.000037275827 Eh/α |
          | HOMO-LUMO GAP               2.123577298743 eV   |
           -------------------------------------------------

 * finished run on 2025/09/09 at 20:14:27.461
