   * xtb version 6.7.1 (edcfbbe) compiled by 'albert@albert-system' on 2024-07-22

   ID    Z sym.   atoms
    1    8 O      1
    2   15 P      2
    3    6 C      3-36
    4    1 H      37-59

          program call               : xtb data2507/gas/CH3OH–CHCl3/CH3OH–CHCl3_gas_S0_finalOpt.xtbopt.xyz --gfn 2 --spinpol --tblite --uhf 2 --ohess vtight --parallel 40 --molden --ceasefiles --namespace data2507/gas/CH3OH–CHCl3/CH3OH–CHCl3_gas_T1_preOpt
 * total energy  :   -91.1023012 Eh     change       -0.4845106E-08 Eh
 * total energy  :   -91.1093675 Eh     change       -0.7066252E-02 Eh
 * total energy  :   -91.1109572 Eh     change       -0.1589731E-02 Eh
 * total energy  :   -91.1110650 Eh     change       -0.1078086E-03 Eh
 * total energy  :   -91.1111642 Eh     change       -0.9916929E-04 Eh
 * total energy  :   -91.1112255 Eh     change       -0.6130689E-04 Eh
 * total energy  :   -91.1112929 Eh     change       -0.6740807E-04 Eh
 * total energy  :   -91.1113441 Eh     change       -0.5121714E-04 Eh
 * total energy  :   -91.1113823 Eh     change       -0.3819496E-04 Eh
 * total energy  :   -91.1114109 Eh     change       -0.2855073E-04 Eh
 * total energy  :   -91.1115704 Eh     change       -0.1390002E-06 Eh
 * total energy  :   -91.1115704 Eh     change        0.4319563E-07 Eh
 * total energy  :   -91.1115706 Eh     change       -0.1848445E-06 Eh
 * total energy  :   -91.1115707 Eh     change       -0.1715237E-06 Eh
 * total energy  :   -91.1115709 Eh     change       -0.1742174E-06 Eh
 * total energy  :   -91.1115710 Eh     change       -0.1213568E-06 Eh
 * total energy  :   -91.1115712 Eh     change       -0.1718652E-06 Eh
 * total energy  :   -91.1115714 Eh     change       -0.1458448E-06 Eh
 * total energy  :   -91.1115714 Eh     change       -0.2255123E-07 Eh
   *** GEOMETRY OPTIMIZATION CONVERGED AFTER 44 ITERATIONS ***

 final structure:
================
59
 xtb: 6.7.1 (edcfbbe)
O           -4.44355677879265       -0.52646113467490        1.70771231717098
P           -3.38497118063872       -0.29998466054549        0.71720962675640
C           -4.01835890943026        0.07953224913758       -0.94843948722775
C           -5.27670082006812       -0.41758882207841       -1.25807945340399
C           -5.82672441274573       -0.18396103636500       -2.50530550561085
C           -5.11843310968011        0.54938744224613       -3.44354676619081
C           -3.86568629690763        1.05362240121047       -3.13224772729251
C           -3.31215126620245        0.82148280449592       -1.88563138015537
C           -2.25513185895302       -1.71904728023424        0.51368369676251
C           -2.05601768821713       -2.50918989861469        1.63716741561979
C           -1.15917284931593       -3.56139082998855        1.59577262371741
C           -0.45611291497002       -3.82094980648727        0.43039679581397
C           -0.65822443766868       -3.03714765224758       -0.69424614180707
C           -1.55803094784493       -1.98697999077165       -0.65678864831815
C           -2.25570928524866        1.06032285924047        1.16074467261104
C           -2.73140697933413        2.05484708909591        2.00708955942510
C           -1.88438264293746        3.08320557207078        2.39020887491335
C           -0.57111900759995        3.10385511237917        1.96441929274424
C           -0.06456022882576        2.08820049182409        1.13968493245142
C            1.31604309882885        2.07499698359362        0.70241513239975
C            1.94113846349186        3.26738006417084        0.31061832123063
C            3.16523693612719        3.27570840442294       -0.29569357711146
C            3.87307817096047        2.05326130661474       -0.54455963114176
C            5.09790863220083        2.03466303241948       -1.20141005977681
C            5.77587001868858        0.83862136961605       -1.41984989730121
C            5.25836647678661       -0.37018639317154       -0.95302984368971
C            5.94156828373913       -1.60695312437832       -1.14102062676077
C            5.41304824188219       -2.78786862537664       -0.65599955502818
C            4.21896029522083       -2.79781571679172        0.03367936320512
C            3.49610317442655       -1.58708851566110        0.25316796055945
C            2.30915411340876       -1.55232693330418        0.98025782280450
C            1.61119441765871       -0.35955819451114        1.15924987197498
C            2.05356011587608        0.83070051881428        0.58783005678511
C            3.30709461663699        0.83670462337734       -0.08052564849595
C            4.01803612927849       -0.37178899548096       -0.26194789229757
C           -0.94525043921595        1.08160950068470        0.72436925315349
H           -5.81263797461247       -0.97544366735882       -0.50350019694634
H           -6.80613095227434       -0.57021174685410       -2.74665969433202
H           -5.54538237170391        0.73465669283188       -4.41835183707185
H           -3.31944478493213        1.63231442893104       -3.86319370846693
H           -2.34083282753527        1.22548743907702       -1.63673019867162
H           -2.62065159948151       -2.28829121181728        2.53200673502151
H           -1.00573370762446       -4.17672088028716        2.47048685274658
H            0.24690896357906       -4.64060904379742        0.39395797928441
H           -0.11105895198534       -3.24443736270382       -1.60244878093604
H           -1.72650876453862       -1.38268102851821       -1.53737661255030
H           -3.75230298463992        2.00265684483873        2.35518352898337
H           -2.24812544921146        3.86500512538028        3.04119292805785
H            0.09062392283952        3.88577093659021        2.30684944031306
H            1.40230853817791        4.19643600153467        0.43243963233822
H            3.61025966959870        4.20204556790225       -0.62676408307910
H            5.52709228788017        2.96445810788179       -1.54607851392097
H            6.71832529126569        0.84295743613029       -1.94771460579517
H            6.88487439021988       -1.60170083907931       -1.66603557057698
H            5.94751900011236       -3.71417008422029       -0.81259338572185
H            3.81295605949581       -3.71890151957091        0.42371960580742
H            1.92003635198657       -2.46233284047343        1.41257691319083
H            0.72023269696165       -0.36977744250027        1.76872047888149
H           -0.59454281336500        0.32463733152033        0.03788109870251

 projected vibrational frequencies (cm⁻¹)
eigval :       -0.00     0.00     0.00     0.00     0.00     0.00
eigval :       10.38    21.45    24.93    28.78    35.21    48.18
eigval :       50.76    55.96    67.93    98.25   114.79   146.34
eigval :      157.11   162.53   187.91   195.28   216.86   223.18
eigval :      229.31   237.23   241.98   259.89   278.13   283.72
eigval :      326.47   362.45   364.17   365.49   368.92   393.99
eigval :      398.42   420.70   423.43   424.51   445.97   447.46
eigval :      456.76   476.93   491.84   500.44   512.16   516.20
eigval :      532.06   545.38   578.00   585.78   586.38   616.02
eigval :      626.90   654.29   658.21   658.86   662.33   668.41
eigval :      677.10   686.03   715.41   721.82   726.31   741.38
eigval :      743.86   747.93   755.90   761.77   783.46   796.67
eigval :      799.69   812.36   827.85   852.24   874.26   876.43
eigval :      879.08   881.86   886.39   903.40   903.95   907.18
eigval :      911.52   923.12   927.17   927.57   931.80   934.55
eigval :      936.17   965.02   973.00   975.53   982.11  1017.31
eigval :     1078.31  1078.73  1110.74  1113.37  1115.15  1117.45
eigval :     1121.74  1123.67  1127.52  1128.96  1138.64  1150.53
eigval :     1157.83  1180.38  1180.77  1182.68  1185.93  1191.64
eigval :     1194.24  1203.39  1206.68  1220.44  1229.01  1256.90
eigval :     1263.26  1264.10  1269.84  1275.03  1293.85  1306.38
eigval :     1321.20  1321.70  1322.01  1335.40  1364.01  1369.53
eigval :     1379.34  1389.71  1402.39  1413.75  1424.02  1425.17
eigval :     1441.89  1454.37  1454.88  1455.17  1471.02  1483.16
eigval :     1498.23  1510.04  1518.45  1537.02  1561.57  1577.14
eigval :     1583.34  1583.62  1586.72  1587.54  3066.85  3068.37
eigval :     3070.10  3070.49  3071.97  3073.07  3074.91  3074.98
eigval :     3076.25  3077.64  3078.26  3080.00  3083.22  3083.49
eigval :     3084.71  3085.80  3086.07  3087.94  3089.75  3091.03
eigval :     3091.54  3092.32  3093.62

   temp. (K)  partition function   enthalpy   heat capacity  entropy
                                   cal/mol     cal/K/mol   cal/K/mol   J/K/mol
 298.15  VIB  0.368E+13            16563.993    106.410    101.356
         ROT  0.302E+08              888.752      2.981     37.207
         INT  0.111E+21            17452.745    109.391    138.563
         TR   0.101E+29             1481.254      4.968     44.364
         TOT                       18933.9994   114.3588   182.9275   765.3687

       T/K    H(0)-H(T)+PV         H(T)/Eh          T*S/Eh         G(T)/Eh
   ------------------------------------------------------------------------
    298.15    0.301732E-01    0.477159E+00    0.869148E-01    0.390244E+00
   ------------------------------------------------------------------------

         :::::::::::::::::::::::::::::::::::::::::::::::::::::
         ::                  THERMODYNAMIC                  ::
         :::::::::::::::::::::::::::::::::::::::::::::::::::::
         :: total free energy         -90.721326883302 Eh   ::
         ::.................................................::
         :: total energy              -91.111571324097 Eh   ::
         :: zero point energy           0.446985960271 Eh   ::
         :: G(RRHO) w/o ZPVE           -0.056741519476 Eh   ::
         :: G(RRHO) contrib.            0.390244440795 Eh   ::
         :::::::::::::::::::::::::::::::::::::::::::::::::::::

           -------------------------------------------------
          | TOTAL ENERGY              -91.111571324097 Eh   |
          | TOTAL ENTHALPY            -90.634412115138 Eh   |
          | TOTAL FREE ENERGY         -90.721326883302 Eh   |
          | GRADIENT NORM               0.000031738373 Eh/α |
           -------------------------------------------------

 * finished run on 2025/09/10 at 05:46:39.247
