   * xtb version 6.7.1 (edcfbbe) compiled by 'albert@albert-system' on 2024-07-22

   ID    Z sym.   atoms
    1    8 O      1
    2   15 P      2
    3    6 C      3-36
    4    1 H      37-59

          program call               : xtb data2507/gas/CH3OH–CHCl3/CH3OH–CHCl3_gas_T1_crest.xyz --gfn 2 --spinpol --tblite --uhf 2 --ohess vtight --parallel 40 --molden --ceasefiles --namespace data2507/gas/CH3OH–CHCl3/CH3OH–CHCl3_gas_T1_finalOpt
 * total energy  :   -91.1115185 Eh     change       -0.7627051E-08 Eh
 * total energy  :   -91.1115436 Eh     change       -0.2511567E-04 Eh
 * total energy  :   -91.1115558 Eh     change       -0.1222804E-04 Eh
 * total energy  :   -91.1115594 Eh     change       -0.3569082E-05 Eh
 * total energy  :   -91.1115632 Eh     change       -0.3848259E-05 Eh
 * total energy  :   -91.1115661 Eh     change       -0.2838668E-05 Eh
 * total energy  :   -91.1115687 Eh     change       -0.2624562E-05 Eh
 * total energy  :   -91.1115709 Eh     change       -0.2239004E-05 Eh
 * total energy  :   -91.1115728 Eh     change       -0.1877495E-05 Eh
 * total energy  :   -91.1115744 Eh     change       -0.1533095E-05 Eh
 * total energy  :   -91.1115752 Eh     change       -0.8224613E-06 Eh
 * total energy  :   -91.1115756 Eh     change       -0.4381234E-06 Eh
 * total energy  :   -91.1115758 Eh     change       -0.2320250E-06 Eh
 * total energy  :   -91.1115760 Eh     change       -0.1427367E-06 Eh
 * total energy  :   -91.1115761 Eh     change       -0.1348370E-06 Eh
 * total energy  :   -91.1115763 Eh     change       -0.1759557E-06 Eh
 * total energy  :   -91.1115765 Eh     change       -0.1768879E-06 Eh
 * total energy  :   -91.1115766 Eh     change       -0.7365625E-07 Eh
   *** GEOMETRY OPTIMIZATION CONVERGED AFTER 18 ITERATIONS ***

 final structure:
================
59
 xtb: 6.7.1 (edcfbbe)
O           -4.47397139363301       -0.40583815847797       -1.69744351160743
P           -3.39683048166809       -0.24700789269585       -0.71383573261484
C           -2.27029753857238       -1.68038858660336       -0.62301679114866
C           -1.55152869139619       -2.02468800660516        0.51390784060198
C           -0.65871281768398       -3.08043966393137        0.46751334907073
C           -0.48527042636606       -3.79411845288125       -0.70751557718379
C           -1.20966913994893       -3.45825803710570       -1.83984793726871
C           -2.09953018653944       -2.40019253049564       -1.79727641081950
C           -3.99886189329269        0.02339444765762        0.98459172730851
C           -5.25032328192840       -0.49676865785486        1.28429986222705
C           -5.77759875712429       -0.34682322526190        2.55399852273591
C           -5.05341034194379        0.32580720283175        3.52502973221356
C           -3.80761135348580        0.85308269815265        3.22431591168658
C           -3.27682007819132        0.70459467727259        1.95520542445443
C           -2.26983488779824        1.13532879970171       -1.08919190030907
C           -2.75002088482346        2.17549512010519       -1.87601235581130
C           -1.90408304301554        3.22247744663130       -2.20783053028031
C           -0.58824028056245        3.21884717950058       -1.78975120369905
C           -0.07754345703634        2.15926219330245       -1.02481243836919
C            1.30449313906933        2.12276035559485       -0.59395357896361
C            1.93125676188881        3.29295960837342       -0.14198167316971
C            3.15531031680862        3.26876557708696        0.46377756688479
C            3.86132715280250        2.03419872750844        0.65052993151557
C            5.08533888468154        1.98028129261355        1.30691327082663
C            5.76116542380336        0.77361223862005        1.46498866184014
C            5.24256737592628       -0.40903086520598        0.93633100366632
C            5.92347481909703       -1.65485194423832        1.06207379519475
C            5.39400189906241       -2.80858446666248        0.51638890981667
C            4.20122061036423       -2.78132028262334       -0.17507869950441
C            3.48053788238665       -1.55983910964341       -0.33349374774337
C            2.29488611846883       -1.48596056813725       -1.05985847815875
C            1.59855179353321       -0.28467331172108       -1.17779726275740
C            2.04133476781775        0.87373888987439       -0.54458666727523
C            3.29424486460115        0.84380099500775        0.12421823890160
C            4.00335981687991       -0.37338425396004        0.24417134419816
C           -0.95648121107203        1.13134729499747       -0.66109679161582
H           -1.69802137317091       -1.47576958551640        1.43382334713041
H           -0.09468087964380       -3.34693429111972        1.34959215839608
H            0.21189663066571       -4.61909347324499       -0.73660091435244
H           -1.07853554877029       -4.01901993770661       -2.75396580462570
H           -2.68066413537923       -2.12079949929047       -2.66476795147914
H           -5.79918841403057       -1.00583528082196        0.50492287340097
H           -6.75160559782976       -0.75110649970120        2.78753103534843
H           -5.46250661259006        0.44562208193712        4.51757261961540
H           -3.24887555264406        1.38438813185432        3.98133990995448
H           -2.31106516584349        1.12713406701905        1.71578789427694
H           -3.77341062900484        2.14371930181062       -2.21915746624211
H           -2.27104195720940        4.03905524466667       -2.81268960577607
H            0.07206774865869        4.01799215571865       -2.09292387689278
H            1.39346822208594        4.22763899457982       -0.21578308283141
H            3.60148979765543        4.17641517899082        0.84173236197292
H            5.51539217061325        2.89066031169202        1.69906680134476
H            6.70282994371512        0.74946445576640        1.99372817775236
H            6.86580198594669       -1.67806495609210        1.58836830357836
H            5.92674289228519       -3.74254585649077        0.62644940478185
H            3.79455938561119       -3.68060967104950       -0.61243557412550
H            1.90533783027571       -2.37192362832200       -1.53920448850902
H            0.70850292900841       -0.26205433412581       -1.78830064970884
H           -0.60210624961323        0.33680106711881       -0.02054143775307

 projected vibrational frequencies (cm⁻¹)
eigval :       -0.00    -0.00    -0.00     0.00     0.00     0.00
eigval :       10.40    21.41    24.83    28.15    34.86    47.87
eigval :       50.99    56.47    67.90    98.24   114.99   146.21
eigval :      157.17   162.74   187.89   195.39   217.22   223.27
eigval :      229.11   237.12   242.06   260.10   278.08   283.80
eigval :      326.36   362.40   364.05   365.46   369.21   393.92
eigval :      398.44   420.67   423.21   424.85   445.93   447.57
eigval :      456.67   476.66   491.89   500.40   512.20   516.19
eigval :      532.07   545.12   577.83   585.72   586.31   616.02
eigval :      626.76   654.29   658.17   658.88   662.29   668.38
eigval :      677.08   685.84   715.01   721.75   726.27   741.20
eigval :      743.70   747.87   755.89   761.69   783.36   796.70
eigval :      799.78   812.32   827.85   852.16   874.16   876.37
eigval :      878.90   881.65   886.27   903.24   903.69   907.02
eigval :      911.39   922.95   927.00   927.56   931.74   934.36
eigval :      935.98   964.97   972.96   975.46   982.02  1017.50
eigval :     1078.42  1078.77  1110.83  1113.70  1115.38  1117.54
eigval :     1121.73  1123.58  1127.41  1128.85  1138.64  1150.42
eigval :     1157.72  1180.02  1180.45  1182.26  1185.86  1191.40
eigval :     1193.99  1203.40  1206.45  1220.49  1228.88  1256.45
eigval :     1263.24  1263.68  1269.79  1275.03  1293.98  1306.46
eigval :     1321.22  1321.69  1322.09  1335.36  1363.94  1369.02
eigval :     1379.05  1389.57  1402.21  1413.69  1423.82  1424.93
eigval :     1441.51  1453.81  1454.67  1455.03  1471.14  1483.06
eigval :     1498.43  1510.17  1518.53  1536.84  1561.57  1577.11
eigval :     1583.50  1583.78  1586.83  1587.66  3066.57  3068.65
eigval :     3069.99  3070.40  3071.62  3072.76  3074.55  3074.96
eigval :     3076.08  3077.58  3078.24  3079.58  3082.83  3083.06
eigval :     3084.41  3085.50  3085.82  3087.95  3089.29  3090.57
eigval :     3091.38  3092.34  3093.57

   temp. (K)  partition function   enthalpy   heat capacity  entropy
                                   cal/mol     cal/K/mol   cal/K/mol   J/K/mol
 298.15  VIB  0.378E+13            16565.224    106.410    101.363
         ROT  0.302E+08              888.752      2.981     37.207
         INT  0.114E+21            17453.976    109.391    138.569
         TR   0.101E+29             1481.254      4.968     44.364
         TOT                       18935.2301   114.3587   182.9337   765.3944

       T/K    H(0)-H(T)+PV         H(T)/Eh          T*S/Eh         G(T)/Eh
   ------------------------------------------------------------------------
    298.15    0.301752E-01    0.477130E+00    0.869177E-01    0.390213E+00
   ------------------------------------------------------------------------

         :::::::::::::::::::::::::::::::::::::::::::::::::::::
         ::                  THERMODYNAMIC                  ::
         :::::::::::::::::::::::::::::::::::::::::::::::::::::
         :: total free energy         -90.721363942507 Eh   ::
         ::.................................................::
         :: total energy              -91.111576585319 Eh   ::
         :: zero point energy           0.446955113217 Eh   ::
         :: G(RRHO) w/o ZPVE           -0.056742470405 Eh   ::
         :: G(RRHO) contrib.            0.390212642812 Eh   ::
         :::::::::::::::::::::::::::::::::::::::::::::::::::::

           -------------------------------------------------
          | TOTAL ENERGY              -91.111576585319 Eh   |
          | TOTAL ENTHALPY            -90.634446262129 Eh   |
          | TOTAL FREE ENERGY         -90.721363942507 Eh   |
          | GRADIENT NORM               0.000068745088 Eh/α |
           -------------------------------------------------

 * finished run on 2025/09/10 at 05:51:18.475
