   * xtb version 6.7.1 (edcfbbe) compiled by 'albert@albert-system' on 2024-07-22

   ID    Z sym.   atoms
    1    8 O      1
    2   15 P      2
    3    6 C      3-36
    4    1 H      37-59

          program call               : xtb data2507/gas/CH3OH–CHCl3/CH3OH–CHCl3.xyz --gfn 2 --ohess vtight --parallel 40 --molden --ceasefiles --namespace data2507/gas/CH3OH–CHCl3/CH3OH–CHCl3_gas_S0_preOpt
          :  Hamiltonian                  GFN2-xTB          :
 * total energy  :   -91.1632037 Eh     change       -0.2239716E-08 Eh
 * total energy  :   -91.1742111 Eh     change       -0.1100742E-01 Eh
 * total energy  :   -91.1770413 Eh     change       -0.2830202E-02 Eh
 * total energy  :   -91.1773637 Eh     change       -0.3223935E-03 Eh
 * total energy  :   -91.1775537 Eh     change       -0.1899677E-03 Eh
 * total energy  :   -91.1776163 Eh     change       -0.6259509E-04 Eh
 * total energy  :   -91.1776941 Eh     change       -0.7784975E-04 Eh
 * total energy  :   -91.1777743 Eh     change       -0.8011196E-04 Eh
 * total energy  :   -91.1778594 Eh     change       -0.8519547E-04 Eh
 * total energy  :   -91.1779314 Eh     change       -0.7195760E-04 Eh
 * total energy  :   -91.1797911 Eh     change       -0.6323759E-06 Eh
 * total energy  :   -91.1797918 Eh     change       -0.6281436E-06 Eh
 * total energy  :   -91.1797924 Eh     change       -0.6465582E-06 Eh
 * total energy  :   -91.1797931 Eh     change       -0.6779117E-06 Eh
 * total energy  :   -91.1797938 Eh     change       -0.6821077E-06 Eh
 * total energy  :   -91.1797944 Eh     change       -0.6492115E-06 Eh
 * total energy  :   -91.1797950 Eh     change       -0.5976984E-06 Eh
 * total energy  :   -91.1797956 Eh     change       -0.5606396E-06 Eh
 * total energy  :   -91.1797956 Eh     change       -0.3348575E-08 Eh
   *** GEOMETRY OPTIMIZATION CONVERGED AFTER 94 ITERATIONS ***

 final structure:
================
59
 xtb: 6.7.1 (edcfbbe)
O           -1.92790493082480       -0.61876020674480       -2.04038147794185
P           -2.70137062951334       -0.21891559062209       -0.85930534627864
C           -4.05372978516164       -1.37346544863657       -0.45689861165490
C           -3.88973184351249       -2.68767382920370       -0.87166084978075
C           -4.86437296063835       -3.62912047583495       -0.59484587793796
C           -6.00543017695647       -3.25587497946707        0.09669099898336
C           -6.17400561160975       -1.94212224323637        0.50451920245154
C           -5.20088847875318       -0.99806400852195        0.22915092813348
C           -3.50529866588008        1.40809446115153       -1.03191620227298
C           -3.84605197424143        1.79496125800761       -2.32047809850692
C           -4.48248613965039        3.00379198796951       -2.53581270863352
C           -4.77742387517578        3.82768726141528       -1.46154010695056
C           -4.42980313776987        3.44628576761934       -0.17542818310754
C           -3.79373096401376        2.23722149491604        0.04342527618554
C           -1.69553911869219       -0.10284133184821        0.65618083147867
C           -2.20726776336075       -0.28501392597563        1.93414319009543
C           -1.36740720261614       -0.15320512948298        3.02595994347909
C           -0.02919800216633        0.14985497152110        2.84614118592439
C            0.49874166285893        0.31348730654121        1.56722548656760
C            1.92213887277128        0.64728350076542        1.39171232538161
C            2.42800553388304        1.75947897928969        2.05852142852055
C            3.74138320281990        2.15168430641336        1.90965792764128
C            4.60845355615289        1.43264907671428        1.08592541169461
C            5.96789039407665        1.81870499786697        0.90077015898500
C            6.79787482503972        1.10658218399107        0.10478546100357
C            6.34392386164870       -0.06129796112819       -0.57555804196853
C            7.18436025880171       -0.81343170910563       -1.39771745317445
C            6.71653827922780       -1.94445255886152       -2.04119402503919
C            5.40553281273963       -2.35286939103698       -1.87994600987280
C            4.52923143329096       -1.63040469114245       -1.06867776557326
C            3.17679004325144       -2.02950335989211       -0.86461305707307
C            2.33936547663051       -1.31269214278756       -0.08002253966933
C            2.77054929509094       -0.11904637578804        0.57309149251645
C            4.12261204059702        0.28160776906157        0.41735202075056
C            4.99668089948430       -0.46816319405284       -0.40807492273946
C           -0.35377437469308        0.19168529311644        0.47447316407472
H           -2.99608202579350       -2.94910061745679       -1.42023733184044
H           -4.73750536405530       -4.65185236487470       -0.91840523078374
H           -6.76926256132654       -3.98821705070932        0.31365694238872
H           -7.06890485378309       -1.65238516669518        1.03628022702548
H           -5.33671425250021        0.03026680060184        0.53403935328437
H           -3.59425144527988        1.13876541349951       -3.14141890009521
H           -4.74825120684147        3.30530222714363       -3.53839683233209
H           -5.27453951939465        4.77247670527760       -1.62614487094813
H           -4.65391019909051        4.09474414856390        0.65936800470098
H           -3.51126915376895        1.94260536965882        1.04460368437235
H           -3.24921101577053       -0.53675738896156        2.07152197799990
H           -1.75725733484396       -0.29189151884644        4.02419566307272
H            0.62354400507385        0.24007850568838        3.70258964440214
H            1.76355532094022        2.33680987402884        2.68627335195646
H            4.10752191921497        3.02643222903548        2.42801720814726
H            6.31893367326903        2.70145223954539        1.41680049732862
H            7.82733455656721        1.40717741540780       -0.03089732029781
H            8.21092025410290       -0.50118883327034       -1.52728962717296
H            7.38177784210735       -2.51437191443575       -2.67385786168014
H            5.04695514255918       -3.23933957663917       -2.38328862634729
H            2.83279377570336       -2.93064429043344       -1.35203451083172
H            1.32357082341546       -1.64547390771752        0.07113812591908
H            0.01559580634564        0.33096663858348       -0.53216672399064

          :  Hamiltonian                  GFN2-xTB          :
         :: gradient norm              0.000046456367 Eh/a0 ::
         :: HOMO-LUMO gap              2.312037750796 eV    ::
         :: SCC energy               -92.897209211040 Eh    ::
         :: -> dispersion             -0.082837973390 Eh    ::
         :: repulsion energy           1.717413622792 Eh    ::

    * Orbital Energies and Occupations

         #    Occupation            Energy/Eh            Energy/eV
      -------------------------------------------------------------
         1        2.0000           -0.6895208             -18.7628
       ...           ...                  ...                  ...
        73        2.0000           -0.4192652             -11.4088
        74        2.0000           -0.4180752             -11.3764
        75        2.0000           -0.4148918             -11.2898
        76        2.0000           -0.4145305             -11.2799
        77        2.0000           -0.4116148             -11.2006
        78        2.0000           -0.4086758             -11.1206
        79        2.0000           -0.4055916             -11.0367
        80        2.0000           -0.4031496             -10.9703
        81        2.0000           -0.4009941             -10.9116
        82        2.0000           -0.3980683             -10.8320
        83        2.0000           -0.3965563             -10.7908
        84        2.0000           -0.3887157             -10.5775
        85        2.0000           -0.3614303              -9.8350 (HOMO)
        86                         -0.2764645              -7.5230 (LUMO)
        87                         -0.2499501              -6.8015
        88                         -0.2485057              -6.7622
        89                         -0.2414015              -6.5689
        90                         -0.2357031              -6.4138
        91                         -0.2333666              -6.3502
        92                         -0.2328701              -6.3367
        93                         -0.2309206              -6.2837
        94                         -0.2180417              -5.9332
        95                         -0.1972144              -5.3665
        96                         -0.1782704              -4.8510
       ...                                ...                  ...
       172                          1.1909456              32.4073
      -------------------------------------------------------------
                  HL-Gap            0.0849658 Eh            2.3120 eV

     #   Z          covCN         q      C6AA      α(0)
     1   8 O        0.808    -0.355    20.831     6.118
     2  15 P        4.085     0.063   157.462    22.541
     3   6 C        2.921     0.013    27.720     8.634
     4   6 C        3.031    -0.019    28.459     8.750
     5   6 C        2.919    -0.027    28.667     8.780
     6   6 C        2.920    -0.025    28.632     8.775
     7   6 C        2.920    -0.028    28.703     8.786
     8   6 C        2.971    -0.026    28.659     8.781
     9   6 C        2.921     0.013    27.715     8.633
    10   6 C        3.032    -0.019    28.456     8.750
    11   6 C        2.919    -0.027    28.664     8.780
    12   6 C        2.920    -0.025    28.633     8.775
    13   6 C        2.920    -0.028    28.703     8.786
    14   6 C        2.970    -0.026    28.659     8.781
    15   6 C        2.919     0.011    27.766     8.641
    16   6 C        2.969    -0.030    28.751     8.795
    17   6 C        2.918    -0.029    28.734     8.790
    18   6 C        2.926    -0.031    28.779     8.798
    19   6 C        2.977     0.016    27.653     8.626
    20   6 C        2.976     0.001    27.997     8.679
    21   6 C        2.921    -0.035    28.875     8.812
    22   6 C        2.918    -0.038    28.945     8.822
    23   6 C        2.983     0.010    27.780     8.646
    24   6 C        2.913    -0.036    28.897     8.815
    25   6 C        2.913    -0.036    28.886     8.813
    26   6 C        2.982     0.012    27.748     8.641
    27   6 C        2.921    -0.037    28.916     8.818
    28   6 C        2.914    -0.030    28.749     8.792
    29   6 C        2.920    -0.036    28.897     8.815
    30   6 C        2.982     0.013    27.725     8.637
    31   6 C        2.913    -0.034    28.852     8.808
    32   6 C        2.912    -0.034    28.847     8.807
    33   6 C        2.982     0.009    27.818     8.652
    34   6 C        2.995     0.003    27.937     8.670
    35   6 C        2.997     0.004    27.931     8.669
    36   6 C        3.042    -0.024    28.565     8.766
    37   1 H        0.926     0.060     2.195     2.317
    38   1 H        0.926     0.039     2.460     2.453
    39   1 H        0.926     0.037     2.488     2.467
    40   1 H        0.926     0.035     2.515     2.480
    41   1 H        0.926     0.037     2.484     2.464
    42   1 H        0.926     0.060     2.202     2.320
    43   1 H        0.926     0.039     2.461     2.453
    44   1 H        0.926     0.037     2.488     2.467
    45   1 H        0.926     0.035     2.515     2.480
    46   1 H        0.926     0.037     2.483     2.464
    47   1 H        0.926     0.036     2.498     2.472
    48   1 H        0.926     0.034     2.524     2.484
    49   1 H        0.926     0.037     2.489     2.467
    50   1 H        0.926     0.029     2.607     2.525
    51   1 H        0.926     0.031     2.571     2.507
    52   1 H        0.926     0.030     2.582     2.513
    53   1 H        0.926     0.031     2.576     2.510
    54   1 H        0.926     0.030     2.583     2.513
    55   1 H        0.926     0.030     2.590     2.516
    56   1 H        0.926     0.032     2.559     2.502
    57   1 H        0.926     0.034     2.531     2.488
    58   1 H        0.926     0.037     2.491     2.468
    59   1 H        0.925     0.061     2.186     2.312

molecular dipole:
                 x           y           z       tot (Debye)
 q only:       -0.563       0.281       0.978
   full:       -0.767       0.383       1.220       3.791

 projected vibrational frequencies (cm⁻¹)
eigval :       -0.00    -0.00    -0.00     0.00     0.00     0.00
eigval :        6.90    16.19    22.50    24.99    35.24    42.05
eigval :       46.81    58.98    64.32    90.24   106.90   154.19
eigval :      158.26   161.18   182.96   203.00   216.82   223.13
eigval :      227.85   237.17   245.11   270.36   282.87   285.59
eigval :      325.48   362.71   364.09   370.26   372.48   394.14
eigval :      410.34   414.52   430.67   441.55   453.19   471.37
eigval :      477.32   485.30   495.32   508.52   514.71   517.88
eigval :      539.47   565.41   585.77   586.51   600.15   626.97
eigval :      651.48   655.46   658.24   659.28   673.24   679.66
eigval :      684.43   691.23   715.40   731.47   741.74   743.74
eigval :      757.54   760.49   773.64   792.34   802.09   820.28
eigval :      835.92   850.92   864.09   879.23   881.11   886.10
eigval :      899.07   901.13   902.93   907.51   914.98   920.09
eigval :      924.46   927.42   928.06   930.05   933.08   934.02
eigval :      935.01   971.53   975.47   975.75   996.08  1031.03
eigval :     1078.29  1078.67  1108.68  1113.23  1115.21  1117.57
eigval :     1121.66  1125.70  1127.68  1129.28  1148.28  1162.17
eigval :     1180.71  1180.82  1181.90  1187.33  1191.38  1194.38
eigval :     1198.05  1208.66  1224.19  1236.33  1251.40  1260.96
eigval :     1263.04  1269.70  1273.70  1288.08  1313.00  1318.94
eigval :     1321.64  1321.83  1332.58  1360.85  1387.70  1389.95
eigval :     1408.72  1413.83  1419.93  1424.44  1425.36  1449.57
eigval :     1453.93  1454.64  1460.36  1489.58  1504.16  1541.74
eigval :     1562.82  1567.58  1579.25  1583.81  1583.98  1584.89
eigval :     1587.07  1587.98  1604.43  1608.03  3063.93  3066.68
eigval :     3067.11  3067.68  3068.98  3069.62  3072.90  3074.45
eigval :     3074.52  3075.02  3075.99  3077.28  3077.46  3077.84
eigval :     3078.08  3080.87  3084.10  3084.21  3086.30  3086.71
eigval :     3091.65  3092.17  3094.88

   temp. (K)  partition function   enthalpy   heat capacity  entropy
                                   cal/mol     cal/K/mol   cal/K/mol   J/K/mol
 298.15  VIB  0.992E+13            16405.137    104.610    101.309
         ROT  0.381E+08              888.752      2.981     37.668
         INT  0.378E+21            17293.889    107.591    138.978
         TR   0.101E+29             1481.254      4.968     44.364
         TOT                       18775.1434   112.5593   183.3419   767.1026

       T/K    H(0)-H(T)+PV         H(T)/Eh          T*S/Eh         G(T)/Eh
   ------------------------------------------------------------------------
    298.15    0.299201E-01    0.480137E+00    0.871117E-01    0.393026E+00
   ------------------------------------------------------------------------

         :::::::::::::::::::::::::::::::::::::::::::::::::::::
         ::                  THERMODYNAMIC                  ::
         :::::::::::::::::::::::::::::::::::::::::::::::::::::
         :: total free energy         -90.786769762101 Eh   ::
         ::.................................................::
         :: total energy              -91.179795588247 Eh   ::
         :: zero point energy           0.450217397605 Eh   ::
         :: G(RRHO) w/o ZPVE           -0.057191571458 Eh   ::
         :: G(RRHO) contrib.            0.393025826147 Eh   ::
         :::::::::::::::::::::::::::::::::::::::::::::::::::::

           -------------------------------------------------
          | TOTAL ENERGY              -91.179795588247 Eh   |
          | TOTAL ENTHALPY            -90.699658095153 Eh   |
          | TOTAL FREE ENERGY         -90.786769762101 Eh   |
          | GRADIENT NORM               0.000046454529 Eh/α |
          | HOMO-LUMO GAP               2.312037722627 eV   |
           -------------------------------------------------

 * finished run on 2025/09/10 at 05:41:48.185
