   * xtb version 6.7.1 (edcfbbe) compiled by 'albert@albert-system' on 2024-07-22

   ID    Z sym.   atoms
    1    8 O      1
    2   15 P      2
    3    6 C      3-36
    4    1 H      37-59

          program call               : xtb data2507/gas/CH3OH–CHCl3/CH3OH–CHCl3_gas_S0_crest.xyz --gfn 2 --ohess vtight --parallel 40 --molden --ceasefiles --namespace data2507/gas/CH3OH–CHCl3/CH3OH–CHCl3_gas_S0_finalOpt
          :  Hamiltonian                  GFN2-xTB          :
 * total energy  :   -91.1817067 Eh     change       -0.4276913E-08 Eh
 * total energy  :   -91.1817085 Eh     change       -0.1760977E-05 Eh
 * total energy  :   -91.1817115 Eh     change       -0.2967970E-05 Eh
 * total energy  :   -91.1817140 Eh     change       -0.2569181E-05 Eh
 * total energy  :   -91.1817168 Eh     change       -0.2822757E-05 Eh
 * total energy  :   -91.1817210 Eh     change       -0.4180752E-05 Eh
 * total energy  :   -91.1817274 Eh     change       -0.6409885E-05 Eh
 * total energy  :   -91.1817347 Eh     change       -0.7294031E-05 Eh
 * total energy  :   -91.1817398 Eh     change       -0.5096548E-05 Eh
 * total energy  :   -91.1817432 Eh     change       -0.3403001E-05 Eh
 * total energy  :   -91.1817714 Eh     change       -0.8290355E-06 Eh
 * total energy  :   -91.1817719 Eh     change       -0.5419821E-06 Eh
 * total energy  :   -91.1817722 Eh     change       -0.3091028E-06 Eh
 * total energy  :   -91.1817724 Eh     change       -0.2161036E-06 Eh
 * total energy  :   -91.1817726 Eh     change       -0.2108954E-06 Eh
 * total energy  :   -91.1817728 Eh     change       -0.2023086E-06 Eh
 * total energy  :   -91.1817730 Eh     change       -0.2007004E-06 Eh
 * total energy  :   -91.1817732 Eh     change       -0.1816651E-06 Eh
 * total energy  :   -91.1817732 Eh     change       -0.1356184E-08 Eh
   *** GEOMETRY OPTIMIZATION CONVERGED AFTER 44 ITERATIONS ***

 final structure:
================
59
 xtb: 6.7.1 (edcfbbe)
O           -4.50168411885652       -0.47783725832786        1.70091366304520
P           -3.44175531715800       -0.27273344759900        0.70738377936520
C           -4.07271223901594        0.11406939267387       -0.95780255687742
C           -5.32849748995090       -0.39003126468290       -1.26773623659253
C           -5.88133027673541       -0.15733195819781       -2.51381102645482
C           -5.17868246013969        0.58237723118606       -3.45134926692512
C           -3.92900508759304        1.09372468667087       -3.13986816747627
C           -3.37245688675243        0.86228422894206       -1.89431047374455
C           -2.33289333637201       -1.70889662832566        0.50573617681658
C           -2.10465210315028       -2.46721064100045        1.64563638066191
C           -1.20767815663900       -3.51936848856512        1.61128260698837
C           -0.53340181889707       -3.81055125169175        0.43640954000196
C           -0.76586556758591       -3.05960786067876       -0.70448992391132
C           -1.66551536364613       -2.00891948810347       -0.67384948522163
C           -2.27149889469211        1.04977560908882        1.15589882786037
C           -2.66514848204054        1.98396707912868        2.10310447855389
C           -1.76886202083769        2.95189138058661        2.52258069863136
C           -0.47771109276729        2.96838372398446        2.02422354157256
C           -0.06579839030314        2.02137755875100        1.08845650125265
C            1.30634336406794        2.00995416908221        0.55940472275230
C            1.85055614553078        3.19175770847387        0.06447642227424
C            3.10064382338176        3.21992024412401       -0.51634373267578
C            3.85644740172676        2.05252432485224       -0.63444754153044
C            5.13459501242320        2.04138949749657       -1.26487967831505
C            5.85169674040209        0.90008671864494       -1.37859698464441
C            5.35755732384122       -0.33469749000829       -0.86469110431012
C            6.07874014662688       -1.52463626291044       -0.97501756408979
C            5.57586515173338       -2.70660352561005       -0.46287486212645
C            4.34900765600929       -2.73017477160618        0.17406763649108
C            3.59330238329536       -1.56435922277701        0.30672243430012
C            2.34096466372465       -1.54183756633006        0.98484627997921
C            1.61504843036428       -0.40493590650369        1.08875019448492
C            2.06035302179421        0.82164430646576        0.50858774064542
C            3.33561074346673        0.84210694872226       -0.11282310364001
C            4.09407889262941       -0.34989013753091       -0.22273069191354
C           -0.98505785754718        1.07727830521248        0.64245615804897
H           -5.86059909332453       -0.95269540106867       -0.51400514737258
H           -6.85843098502495       -0.54948708213665       -2.75494172673124
H           -5.60753635687278        0.76676025558981       -4.42547763897203
H           -3.38683013286118        1.67732252754663       -3.86994468762614
H           -2.40331707495599        1.27188431312198       -1.64740972448271
H           -2.64628713548299       -2.22112705621631        2.54818989361306
H           -1.03107998317334       -4.10943476627623        2.49889895704695
H            0.17097765157635       -4.62916749912856        0.40579400523668
H           -0.24208424413810       -3.29244849964474       -1.62024345627800
H           -1.85657194883260       -1.42876994496317       -1.56615417016099
H           -3.66661634772890        1.92967434002767        2.50427567683800
H           -2.07094896954662        3.68664931780552        3.25459858078362
H            0.23041797603958        3.70221639977681        2.38144541198791
H            1.26256747518156        4.09735046629763        0.11543431477676
H            3.49805384164997        4.14822494705446       -0.90121209978211
H            5.51591577717735        2.97500794540557       -1.65410185242958
H            6.81886538539012        0.90015913370235       -1.86120417511930
H            7.04026047307857       -1.51319969271706       -1.46821344741404
H            6.14832265596786       -3.61802326336426       -0.55820587944420
H            3.96408309619482       -3.65522474265049        0.57899591006722
H            1.98201176833130       -2.45918135923766        1.42951324094923
H            0.68526841940259       -0.41425569576250        1.63783058196126
H           -0.68456585508673        0.35589137190013       -0.10423093532072

          :  Hamiltonian                  GFN2-xTB          :
         :: gradient norm              0.000026862792 Eh/a0 ::
         :: HOMO-LUMO gap              2.293558993815 eV    ::
         :: SCC energy               -92.899080971233 Eh    ::
         :: -> dispersion             -0.086540946025 Eh    ::
         :: repulsion energy           1.717307748859 Eh    ::

    * Orbital Energies and Occupations

         #    Occupation            Energy/Eh            Energy/eV
      -------------------------------------------------------------
         1        2.0000           -0.6897999             -18.7704
       ...           ...                  ...                  ...
        73        2.0000           -0.4205184             -11.4429
        74        2.0000           -0.4187697             -11.3953
        75        2.0000           -0.4151449             -11.2967
        76        2.0000           -0.4147327             -11.2855
        77        2.0000           -0.4132997             -11.2465
        78        2.0000           -0.4114783             -11.1969
        79        2.0000           -0.4102677             -11.1640
        80        2.0000           -0.4077104             -11.0944
        81        2.0000           -0.4052035             -11.0261
        82        2.0000           -0.3985734             -10.8457
        83        2.0000           -0.3979884             -10.8298
        84        2.0000           -0.3939658             -10.7204
        85        2.0000           -0.3667189              -9.9789 (HOMO)
        86                         -0.2824322              -7.6854 (LUMO)
        87                         -0.2511235              -6.8334
        88                         -0.2482107              -6.7542
        89                         -0.2468784              -6.7179
        90                         -0.2359977              -6.4218
        91                         -0.2337394              -6.3604
        92                         -0.2330283              -6.3410
        93                         -0.2327998              -6.3348
        94                         -0.2241341              -6.0990
        95                         -0.2018951              -5.4938
        96                         -0.1831628              -4.9841
       ...                                ...                  ...
       172                          1.1990788              32.6286
      -------------------------------------------------------------
                  HL-Gap            0.0842867 Eh            2.2936 eV

     #   Z          covCN         q      C6AA      α(0)
     1   8 O        0.808    -0.354    20.806     6.114
     2  15 P        4.079     0.065   157.367    22.534
     3   6 C        2.921     0.015    27.689     8.629
     4   6 C        3.036    -0.019    28.450     8.749
     5   6 C        2.919    -0.026    28.664     8.780
     6   6 C        2.920    -0.025    28.629     8.774
     7   6 C        2.920    -0.028    28.702     8.785
     8   6 C        2.969    -0.026    28.660     8.781
     9   6 C        2.920     0.012    27.743     8.637
    10   6 C        3.034    -0.020    28.470     8.752
    11   6 C        2.919    -0.027    28.665     8.780
    12   6 C        2.921    -0.024    28.604     8.771
    13   6 C        2.920    -0.027    28.671     8.781
    14   6 C        2.968    -0.025    28.636     8.778
    15   6 C        2.919     0.010    27.789     8.645
    16   6 C        3.012    -0.022    28.543     8.764
    17   6 C        2.918    -0.028    28.699     8.785
    18   6 C        2.924    -0.031    28.769     8.796
    19   6 C        2.977     0.013    27.710     8.635
    20   6 C        2.976     0.001    28.000     8.680
    21   6 C        2.920    -0.035    28.877     8.812
    22   6 C        2.918    -0.038    28.934     8.821
    23   6 C        2.983     0.010    27.780     8.646
    24   6 C        2.913    -0.036    28.890     8.814
    25   6 C        2.913    -0.036    28.887     8.813
    26   6 C        2.982     0.012    27.742     8.640
    27   6 C        2.921    -0.037    28.913     8.818
    28   6 C        2.914    -0.030    28.747     8.792
    29   6 C        2.920    -0.036    28.907     8.817
    30   6 C        2.982     0.012    27.741     8.640
    31   6 C        2.913    -0.036    28.900     8.815
    32   6 C        2.912    -0.035    28.876     8.812
    33   6 C        2.982     0.007    27.849     8.656
    34   6 C        2.995     0.003    27.946     8.672
    35   6 C        2.997     0.003    27.940     8.671
    36   6 C        2.993    -0.032    28.789     8.802
    37   1 H        0.926     0.061     2.188     2.313
    38   1 H        0.926     0.039     2.456     2.451
    39   1 H        0.926     0.037     2.486     2.466
    40   1 H        0.926     0.035     2.513     2.479
    41   1 H        0.926     0.039     2.464     2.455
    42   1 H        0.926     0.058     2.221     2.330
    43   1 H        0.926     0.038     2.473     2.459
    44   1 H        0.926     0.036     2.506     2.476
    45   1 H        0.926     0.035     2.520     2.482
    46   1 H        0.925     0.036     2.506     2.476
    47   1 H        0.926     0.059     2.205     2.322
    48   1 H        0.926     0.039     2.462     2.454
    49   1 H        0.926     0.038     2.481     2.463
    50   1 H        0.926     0.031     2.568     2.506
    51   1 H        0.926     0.032     2.553     2.499
    52   1 H        0.926     0.032     2.564     2.504
    53   1 H        0.926     0.032     2.562     2.503
    54   1 H        0.926     0.031     2.566     2.505
    55   1 H        0.926     0.031     2.579     2.511
    56   1 H        0.926     0.030     2.581     2.512
    57   1 H        0.926     0.029     2.599     2.521
    58   1 H        0.926     0.030     2.582     2.513
    59   1 H        0.926     0.041     2.439     2.442

molecular dipole:
                 x           y           z       tot (Debye)
 q only:        1.126       0.167      -0.928
   full:        1.325       0.203      -1.121       4.441

 projected vibrational frequencies (cm⁻¹)
eigval :       -0.00    -0.00     0.00     0.00     0.00     0.00
eigval :       10.68    21.79    24.19    25.46    33.22    46.25
eigval :       47.35    57.65    65.65    93.56   117.29   152.07
eigval :      157.01   163.55   196.41   203.94   221.84   224.87
eigval :      231.66   237.35   241.24   256.66   281.94   291.35
eigval :      328.73   362.00   363.84   370.12   372.11   394.93
eigval :      411.08   423.36   427.56   449.41   453.34   472.30
eigval :      474.28   485.93   495.76   508.71   515.08   520.50
eigval :      538.61   559.92   585.66   586.34   600.82   628.75
eigval :      651.28   656.69   657.87   658.81   674.03   679.75
eigval :      687.04   692.04   715.58   731.55   741.57   744.19
eigval :      757.18   759.05   774.17   792.09   801.76   820.92
eigval :      837.12   851.57   863.08   878.73   880.69   886.06
eigval :      901.35   902.12   904.31   909.75   915.62   920.43
eigval :      925.18   927.29   929.26   929.64   934.36   934.62
eigval :      944.94   971.50   975.26   976.24   996.30  1031.49
eigval :     1078.65  1078.82  1108.37  1113.69  1115.08  1118.71
eigval :     1122.26  1123.28  1127.56  1129.27  1148.17  1162.45
eigval :     1180.43  1180.74  1181.76  1183.50  1192.05  1194.32
eigval :     1197.86  1208.36  1223.90  1236.79  1253.67  1263.02
eigval :     1264.06  1270.34  1275.04  1289.31  1313.13  1320.40
eigval :     1321.31  1321.54  1332.01  1360.64  1387.30  1389.42
eigval :     1409.92  1413.52  1419.82  1424.18  1425.04  1449.41
eigval :     1453.84  1455.02  1458.85  1489.30  1502.38  1540.79
eigval :     1562.17  1567.68  1578.66  1583.60  1584.05  1585.09
eigval :     1587.05  1587.91  1604.77  1607.76  3065.28  3065.57
eigval :     3069.32  3070.07  3070.82  3071.73  3072.22  3074.34
eigval :     3074.94  3075.51  3076.02  3076.16  3079.05  3079.41
eigval :     3082.23  3083.12  3083.58  3085.08  3086.86  3090.00
eigval :     3090.23  3090.72  3092.30

   temp. (K)  partition function   enthalpy   heat capacity  entropy
                                   cal/mol     cal/K/mol   cal/K/mol   J/K/mol
 298.15  VIB  0.368E+13            16344.471    104.643    100.147
         ROT  0.305E+08              888.752      2.981     37.225
         INT  0.112E+21            17233.224    107.624    137.372
         TR   0.101E+29             1481.254      4.968     44.364
         TOT                       18714.4775   112.5924   181.7360   760.3836

       T/K    H(0)-H(T)+PV         H(T)/Eh          T*S/Eh         G(T)/Eh
   ------------------------------------------------------------------------
    298.15    0.298234E-01    0.480256E+00    0.863487E-01    0.393908E+00
   ------------------------------------------------------------------------

         :::::::::::::::::::::::::::::::::::::::::::::::::::::
         ::                  THERMODYNAMIC                  ::
         :::::::::::::::::::::::::::::::::::::::::::::::::::::
         :: total free energy         -90.787865536513 Eh   ::
         ::.................................................::
         :: total energy              -91.181773222374 Eh   ::
         :: zero point energy           0.450432928494 Eh   ::
         :: G(RRHO) w/o ZPVE           -0.056525242633 Eh   ::
         :: G(RRHO) contrib.            0.393907685861 Eh   ::
         :::::::::::::::::::::::::::::::::::::::::::::::::::::

           -------------------------------------------------
          | TOTAL ENERGY              -91.181773222374 Eh   |
          | TOTAL ENTHALPY            -90.701516875718 Eh   |
          | TOTAL FREE ENERGY         -90.787865536513 Eh   |
          | GRADIENT NORM               0.000026861715 Eh/α |
          | HOMO-LUMO GAP               2.293558977567 eV   |
           -------------------------------------------------

 * finished run on 2025/09/10 at 05:46:33.770
