   * xtb version 6.7.1 (edcfbbe) compiled by 'albert@albert-system' on 2024-07-22

   ID    Z sym.   atoms
    1    7 N      1, 9, 25, 31, 49, 55
    2    6 C      2-8, 10-15, 17-24, 26-30, 32-37, 39-48, 50-54, 56-61, 63-70
    3    8 O      16, 38, 62
    4    1 H      71-106

          program call               : xtb data2507/gas/Tri-PXZ-PCN/Tri-PXZ-PCN_gas_T1_crest.xyz --gfn 2 --spinpol --tblite --uhf 2 --ohess vtight --parallel 40 --molden --ceasefiles --namespace data2507/gas/Tri-PXZ-PCN/Tri-PXZ-PCN_gas_T1_finalOpt
 * total energy  :  -178.6772577 Eh     change       -0.4067456E-07 Eh
 * total energy  :  -178.6772602 Eh     change       -0.2535329E-05 Eh
 * total energy  :  -178.6772609 Eh     change       -0.6986107E-06 Eh
 * total energy  :  -178.6772613 Eh     change       -0.3762193E-06 Eh
 * total energy  :  -178.6772625 Eh     change       -0.1180391E-05 Eh
 * total energy  :  -178.6772629 Eh     change       -0.3947487E-06 Eh
 * total energy  :  -178.6772642 Eh     change       -0.1303376E-05 Eh
 * total energy  :  -178.6772653 Eh     change       -0.1141287E-05 Eh
 * total energy  :  -178.6772664 Eh     change       -0.1098985E-05 Eh
 * total energy  :  -178.6772673 Eh     change       -0.9096472E-06 Eh
 * total energy  :  -178.6772789 Eh     change       -0.1382395E-05 Eh
 * total energy  :  -178.6772803 Eh     change       -0.1409741E-05 Eh
 * total energy  :  -178.6772806 Eh     change       -0.2791860E-06 Eh
 * total energy  :  -178.6772811 Eh     change       -0.5228591E-06 Eh
 * total energy  :  -178.6772821 Eh     change       -0.9751913E-06 Eh
 * total energy  :  -178.6772824 Eh     change       -0.2567342E-06 Eh
 * total energy  :  -178.6772824 Eh     change       -0.4791349E-07 Eh
 * total energy  :  -178.6772827 Eh     change       -0.2707909E-06 Eh
 * total energy  :  -178.6772827 Eh     change       -0.6591975E-07 Eh
   *** GEOMETRY OPTIMIZATION CONVERGED AFTER 28 ITERATIONS ***

 final structure:
================
106
 xtb: 6.7.1 (edcfbbe)
N           -2.31689274906947        3.37660461611733        0.45463295745715
C           -1.67832862273376        2.43515237797643        0.25159450355063
C           -0.97293810182439        1.25040754541553        0.04992754054947
C            0.47240143260791        1.16211611807024       -0.01387902835417
C            1.35392783387201        2.30285894445506       -0.08688465045165
C            0.93388799928546        3.57534272083399       -0.50392057639006
C            1.82047568500012        4.62618610560018       -0.56876946301098
C            3.15649272484666        4.44242491983978       -0.22124679443647
N            4.06493092394412        5.53055971758539       -0.27686546675404
C            3.93995182287424        6.59581251233632        0.60352777239859
C            2.95284411783146        6.63424986576775        1.58525922019043
C            2.85702333084705        7.71387099690150        2.44505441000701
C            3.74605899547810        8.76993266108010        2.34842236717611
C            4.74808144156638        8.73898480793027        1.39197353453511
C            4.85147587242575        7.66240436226876        0.52854960633938
O            5.87684559011993        7.68322325291025       -0.37831475976013
C            5.98657963096890        6.62424281609259       -1.23782639770961
C            7.02059426727914        6.65867226068311       -2.15701195548167
C            7.17490562945100        5.62794510757968       -3.07015616711587
C            6.28256439112265        4.57041584988424       -3.06798570257236
C            5.24682568541087        4.52760957249087       -2.15166807934527
C            5.08931634087596        5.54314565448814       -1.21157815427326
C            3.59692170224982        3.18041317065640        0.18034924110863
C            2.71196502627197        2.13296917834543        0.24092020545360
N            1.05209451729773       -0.02234426071486        0.00023791492890
C            0.40689422946944       -1.17243205809940        0.01449725953846
C            1.22265194390660       -2.36098532282298        0.08811728827353
C            2.58845564112240       -2.26817613483195       -0.23830365667588
C            3.41281390789163       -3.36387209321418       -0.17614506630334
C            2.90139250707684       -4.59877452523837        0.22558636021664
N            3.74690270237106       -5.73637219021497        0.28353831559452
C            4.76673291810882       -5.80636587789250        1.22067915925590
C            4.97958027968628       -4.80054029462372        2.16029856789937
C            6.00928174294965       -4.90119849594477        3.07889184701878
C            6.84021892134828       -6.00760949378412        3.08375763963982
C            6.62950928087730       -7.02884750675538        2.17120899521381
C            5.60096673618118       -6.93672866572455        1.24986430315939
O            5.43277245160945       -7.98879128246383        0.39127088227885
C            4.41214705139004       -7.91059248612519       -0.51783952234188
C            4.24905824945259       -8.98064938084498       -1.38015172597317
C            3.24902350870303       -8.95535873606428       -2.33886100972034
C            2.42229545979918       -7.85015095133096       -2.43890570675434
C            2.57788660866583       -6.77669851125205       -1.58012021731717
C            3.56330961469302       -6.79370406764275       -0.59610217133652
C            1.55666495260034       -4.70677428629343        0.57128935083406
C            0.73091453292860       -3.60761483528838        0.50492392739576
C           -1.04108485744364       -1.17936140411286       -0.04844013857894
C           -1.81213109533538       -2.32232821621464       -0.25084143382729
N           -2.50301582891319       -3.22581169742763       -0.45522957042479
C           -1.69549521506926        0.05488885204053        0.00145291110893
C           -3.16848448764243        0.09437632321392        0.00240225999494
C           -3.85246526841605        0.80612219187157       -0.97767154357387
C           -5.23232594782136        0.83608130203889       -0.98458739033965
C           -5.94194022029223        0.15969975501263       -0.00040008651860
N           -7.36029802277630        0.19009345590089       -0.00356436816317
C           -8.08446828516513       -0.95991720111342       -0.28943002168135
C           -7.46668514233888       -2.16445350018753       -0.61425866296736
C           -8.22351904583834       -3.28901387142512       -0.89339798689864
C           -9.60557440722517       -3.23138179844809       -0.86118024817654
C          -10.23692435115023       -2.03535092271362       -0.55974538347235
C           -9.48802383490835       -0.90552698724295       -0.28037532140705
O          -10.17214367610815        0.24920630564297       -0.01001382867261
C           -9.44132851609577        1.37418467983087        0.26339863843309
C          -10.14324650887399        2.53459334620912        0.53932854690736
C           -9.46347074418176        3.70305912132785        0.84357894337493
C           -8.08037549452658        3.70251584656980        0.88204197932202
C           -7.37030701299724        2.54702190627176        0.60637342797987
C           -8.03677059709243        1.36949272721067        0.27884229542478
C           -5.26693795053968       -0.54766675595763        0.98637646905008
C           -3.88727011182627       -0.58263880786202        0.98227117696330
H           -0.08977267863785        3.73794503163477       -0.79871776357286
H            1.48723350235391        5.59960542861472       -0.89872220752971
H            2.26242519618892        5.81073717254917        1.67264883439968
H            2.08146386505470        7.72317110830085        3.19483432804125
H            3.66983059361344        9.61296936759597        3.01655801156313
H            5.46453421457266        9.53942673691197        1.29984525276091
H            7.69012975204667        7.50362939799156       -2.14251610009759
H            7.98397550205942        5.66050013553925       -3.78239663310429
H            6.38629382718663        3.77085476864256       -3.78493471209757
H            4.54751417286136        3.70696146544048       -2.16274379308890
H            4.63386944825406        3.04272380620541        0.45234200161442
H            3.03986180154346        1.15629103398702        0.56080806363719
H            2.97131162062141       -1.31170801644580       -0.55820142984801
H            4.45623868220051       -3.28506694064129       -0.44679216177666
H            4.32791243512021       -3.94154649900048        2.16919443562814
H            6.15667978581862       -4.10815966702507        3.79543613831691
H            7.64474731244883       -6.08528140092356        3.79764973851566
H            7.25003844505540       -7.91045279177028        2.15890013159130
H            4.91817900175628       -9.82076658036790       -1.28541468561311
H            3.12603845480493       -9.79355206077847       -3.00611907369625
H            1.64926477802631       -7.81588734194953       -3.19057031962570
H            1.93603548676439       -5.91505301152962       -1.67004078543092
H            1.16859292415728       -5.65972334099847        0.90106642163642
H           -0.30066601229955       -3.71209991016947        0.79841206585790
H           -3.30037735350030        1.32613920649995       -1.74618638766185
H           -5.76529302998532        1.37994610378180       -1.75036503360499
H           -6.39031143813685       -2.21810889686575       -0.65200588562047
H           -7.72227899020602       -4.21187767536943       -1.13922927324787
H          -10.19547254713101       -4.10818075342825       -1.07619401836431
H          -11.31189463949823       -1.95467342158704       -0.53898498064531
H          -11.22055574903209        2.49924558466825        0.51370953109139
H          -10.01690971688596        4.60395506969543        1.05587560814175
H           -7.54193575144938        4.60358480861820        1.13008350775375
H           -6.29279820101175        2.55505248802635        0.64894727215196
H           -5.82650758125269       -1.06598236111521        1.75088850262495
H           -3.36186656563330       -1.12793822390233        1.75197875840407

 projected vibrational frequencies (cm⁻¹)
eigval :       -0.00     0.00     0.00     0.00     0.00     0.00
eigval :        6.84     7.07     8.37     8.70    10.41    11.84
eigval :       22.44    22.47    29.65    33.51    38.46    40.71
eigval :       46.32    53.82    56.46    57.48    59.19    62.95
eigval :       72.49    74.57    91.19   106.07   110.78   112.40
eigval :      114.53   116.91   121.09   132.76   139.67   160.93
eigval :      167.51   177.88   193.61   196.44   197.68   222.56
eigval :      229.00   240.56   242.66   245.13   249.11   249.76
eigval :      255.27   267.29   271.65   276.84   290.95   302.48
eigval :      337.10   338.06   344.50   355.93   358.44   370.80
eigval :      377.13   377.68   379.63   384.11   388.61   390.29
eigval :      399.56   402.17   412.19   412.57   418.55   424.36
eigval :      430.62   430.81   431.00   432.97   445.16   451.89
eigval :      457.02   460.90   464.17   478.70   495.68   496.86
eigval :      499.22   503.06   503.08   503.30   525.26   526.35
eigval :      526.48   541.93   542.38   545.84   552.74   555.09
eigval :      579.36   583.29   585.59   587.57   587.63   598.01
eigval :      601.64   603.78   615.13   620.15   621.47   644.02
eigval :      651.23   653.73   664.85   665.10   665.59   666.09
eigval :      667.49   668.61   668.67   680.09   680.23   686.46
eigval :      688.36   704.74   705.63   773.07   777.59   777.67
eigval :      778.77   778.79   779.47   780.27   790.10   801.10
eigval :      802.83   807.80   808.57   821.79   826.91   852.15
eigval :      855.50   855.57   855.61   856.52   866.38   866.70
eigval :      866.87   867.31   867.38   869.53   871.89   899.32
eigval :      899.39   900.21   900.32   901.19   901.99   906.82
eigval :      907.56   908.41   910.35   912.37   916.00   916.35
eigval :      916.61   916.64   918.14   918.39   918.44   918.57
eigval :      919.87   920.29   921.38   923.52   925.39   982.07
eigval :      989.14  1013.97  1018.18  1046.84  1085.70  1085.71
eigval :     1086.10  1086.36  1086.97  1087.39  1112.18  1112.21
eigval :     1112.79  1121.11  1121.65  1122.74  1128.75  1133.09
eigval :     1135.38  1138.93  1169.08  1170.54  1171.19  1174.00
eigval :     1174.12  1174.15  1175.53  1182.36  1183.36  1186.38
eigval :     1195.08  1196.69  1205.98  1206.11  1206.24  1206.69
eigval :     1222.76  1224.50  1224.83  1236.51  1238.78  1238.83
eigval :     1239.83  1255.61  1255.93  1256.80  1261.93  1262.39
eigval :     1266.57  1267.90  1304.15  1305.78  1313.09  1313.87
eigval :     1314.98  1315.19  1315.34  1317.11  1318.85  1327.18
eigval :     1329.61  1330.16  1345.45  1346.74  1349.19  1351.56
eigval :     1365.49  1383.88  1389.06  1404.92  1414.40  1415.19
eigval :     1417.94  1421.21  1421.50  1424.55  1441.79  1441.88
eigval :     1442.16  1454.20  1454.26  1456.60  1466.76  1474.76
eigval :     1482.72  1483.90  1488.94  1491.79  1514.44  1516.92
eigval :     1559.05  1559.08  1560.32  1565.78  1566.94  1566.97
eigval :     1567.22  1568.86  1577.79  1578.40  1579.07  1580.67
eigval :     1588.90  1589.67  1591.34  1596.37  2269.64  2300.18
eigval :     3073.05  3073.27  3079.77  3079.81  3083.63  3084.91
eigval :     3093.73  3093.73  3095.09  3095.39  3095.40  3096.01
eigval :     3096.61  3096.72  3101.85  3102.74  3102.78  3102.82
eigval :     3103.54  3103.57  3104.00  3104.14  3111.89  3111.92
eigval :     3112.31  3112.79  3112.89  3112.91  3114.71  3114.82
eigval :     3115.21  3115.24  3115.40  3115.54  3121.98  3122.15

   temp. (K)  partition function   enthalpy   heat capacity  entropy
                                   cal/mol     cal/K/mol   cal/K/mol   J/K/mol
 298.15  VIB  0.266E+29            33352.903    204.957    211.507
         ROT  0.413E+09              888.752      2.981     42.408
         INT  0.110E+38            34241.656    207.938    253.916
         TR   0.262E+29             1481.254      4.968     46.250
         TOT                       35722.9097   212.9060   300.1655  1255.8925

       T/K    H(0)-H(T)+PV         H(T)/Eh          T*S/Eh         G(T)/Eh
   ------------------------------------------------------------------------
    298.15    0.569281E-01    0.836337E+00    0.142618E+00    0.693718E+00
   ------------------------------------------------------------------------

         :::::::::::::::::::::::::::::::::::::::::::::::::::::
         ::                  THERMODYNAMIC                  ::
         :::::::::::::::::::::::::::::::::::::::::::::::::::::
         :: total free energy        -177.983564252301 Eh   ::
         ::.................................................::
         :: total energy             -178.677282708305 Eh   ::
         :: zero point energy           0.779408700041 Eh   ::
         :: G(RRHO) w/o ZPVE           -0.085690244037 Eh   ::
         :: G(RRHO) contrib.            0.693718456003 Eh   ::
         :::::::::::::::::::::::::::::::::::::::::::::::::::::

           -------------------------------------------------
          | TOTAL ENERGY             -178.677282708305 Eh   |
          | TOTAL ENTHALPY           -177.840945928060 Eh   |
          | TOTAL FREE ENERGY        -177.983564252301 Eh   |
          | GRADIENT NORM               0.000083404860 Eh/α |
           -------------------------------------------------

 * finished run on 2025/09/08 at 08:20:01.692
