   * xtb version 6.7.1 (edcfbbe) compiled by 'albert@albert-system' on 2024-07-22

   ID    Z sym.   atoms
    1    7 N      1, 9, 25, 31, 49, 55
    2    6 C      2-8, 10-15, 17-24, 26-30, 32-37, 39-48, 50-54, 56-61, 63-70
    3    8 O      16, 38, 62
    4    1 H      71-106

          program call               : xtb data2507/gas/Tri-PXZ-PCN/Tri-PXZ-PCN.xyz --gfn 2 --ohess vtight --parallel 40 --molden --ceasefiles --namespace data2507/gas/Tri-PXZ-PCN/Tri-PXZ-PCN_gas_S0_preOpt
          :  Hamiltonian                  GFN2-xTB          :
 * total energy  :  -178.6949763 Eh     change       -0.4919031E-08 Eh
 * total energy  :  -178.7124017 Eh     change       -0.1742536E-01 Eh
 * total energy  :  -178.7180874 Eh     change       -0.5685792E-02 Eh
 * total energy  :  -178.7202633 Eh     change       -0.2175837E-02 Eh
 * total energy  :  -178.7220732 Eh     change       -0.1809922E-02 Eh
 * total energy  :  -178.7235212 Eh     change       -0.1448021E-02 Eh
 * total energy  :  -178.7248269 Eh     change       -0.1305627E-02 Eh
 * total energy  :  -178.7259630 Eh     change       -0.1136114E-02 Eh
 * total energy  :  -178.7267697 Eh     change       -0.8067176E-03 Eh
 * total energy  :  -178.7272850 Eh     change       -0.5153517E-03 Eh
 * total energy  :  -178.7345356 Eh     change       -0.9348360E-06 Eh
 * total energy  :  -178.7345364 Eh     change       -0.8771123E-06 Eh
 * total energy  :  -178.7345374 Eh     change       -0.1009443E-05 Eh
 * total energy  :  -178.7345385 Eh     change       -0.1066051E-05 Eh
 * total energy  :  -178.7345394 Eh     change       -0.9241197E-06 Eh
 * total energy  :  -178.7345402 Eh     change       -0.7623952E-06 Eh
 * total energy  :  -178.7345408 Eh     change       -0.5566687E-06 Eh
 * total energy  :  -178.7345410 Eh     change       -0.2710639E-06 Eh
 * total energy  :  -178.7345411 Eh     change       -0.7810394E-07 Eh
   *** GEOMETRY OPTIMIZATION CONVERGED AFTER 90 ITERATIONS ***

 final structure:
================
106
 xtb: 6.7.1 (edcfbbe)
N           -2.24723819812341        3.33681187908109        0.46479503225309
C           -1.65672830662836        2.37839929261760        0.23941223834119
C           -0.94112006378983        1.18021886295596        0.03759536324659
C            0.46965968435220        1.16123939183483       -0.03160041944047
C            1.27213656721526        2.37887320210196       -0.12311526425560
C            0.82532873549015        3.51057670139248       -0.80499852751057
C            1.61131763094583        4.64120839371929       -0.87095255209368
C            2.86098828589237        4.66885224499372       -0.25403357651636
N            3.65110941819034        5.82969201699771       -0.30531293053210
C            3.18021749712071        7.03593963053568        0.22706865028874
C            1.95220032156398        7.13797709736071        0.86910945730037
C            1.52034631783689        8.34846994439751        1.38901040958544
C            2.31229444174817        9.47436409491286        1.28869860525266
C            3.55634885638832        9.38135384096262        0.68374162869903
C            3.99267801091794        8.17571976278623        0.16569901605078
O            5.25090279667982        8.15702935668222       -0.38181565433176
C            5.69759094613746        6.96943253266629       -0.90180917356894
C            6.95831500788070        6.97141347401837       -1.47011057754478
C            7.46670290176892        5.81984456555157       -2.05148739414809
C            6.69526810569458        4.67581763024495       -2.07897484139323
C            5.43164086483058        4.66795160430484       -1.50848517407077
C            4.92259728342503        5.80203871691390       -0.88756148064145
C            3.32115358227129        3.53091729959102        0.40871149727062
C            2.53912796777614        2.39885437272455        0.46398551396443
N            1.14284158764465        0.02213652020145        0.01120440044999
C            0.52016837195028       -1.14530596214047        0.05407188542034
C            1.37509848352655       -2.32690414317064        0.14287825797596
C            2.64008120040959       -2.29127512393579       -0.44779802140318
C            3.46968189687808       -3.38924095164958       -0.39840463514779
C            3.06035256973488       -4.54770664821942        0.26213187624687
N            3.89801214414976       -5.67496070341725        0.30602364006028
C            5.17099795192770       -5.59663847360949        0.88044302971289
C            5.63771551491528       -4.44386608570815        1.50023977209864
C            6.90439013897840       -4.40131315318781        2.06236693914603
C            7.72149348410844       -5.51298704112378        2.02766738023160
C            7.25629220141865       -6.68337160741518        1.44776035762759
C            5.99273116632116       -6.73169759954872        0.88785851945450
O            5.59112514556733       -7.93588490397087        0.36928157004940
C            4.33224818600020       -8.00418205377419       -0.17267930469196
C            3.94265469718260       -9.22539097665176       -0.69153950607077
C            2.70089873730785       -9.36719605539193       -1.29168097157137
C            1.86406313085308       -8.27376229052319       -1.38666440295742
C            2.24892473869057       -7.04798016484096       -0.86570809451560
C            3.47425300939355       -6.89796996289506       -0.22791598183003
C            1.81291047314911       -4.57451475285565        0.88372013194313
C            0.97931767537733       -3.47820240715296        0.82348739230220
C           -0.88850836770881       -1.22609767109413       -0.01542608332159
C           -1.55086426312748       -2.45456975425109       -0.21684747256198
N           -2.09857964856481       -3.43828199978091       -0.44119766639870
C           -1.63475710523005       -0.03872151750485        0.01045670640104
C           -3.09949006340436       -0.06961126067226        0.00785078671706
C           -3.82016522922551        0.73101973073012       -0.87689041013370
C           -5.19786573051831        0.69839563656513       -0.88564670963251
C           -5.88649542110913       -0.12421110247807        0.00379990618973
N           -7.29129368909526       -0.15002738133298        0.00254421580193
C           -7.98179620112090       -1.33916912061526       -0.25739508419057
C           -7.33035781844604       -2.52270950341306       -0.58200901444108
C           -8.04761555343453       -3.68163991995477       -0.83677580213676
C           -9.42668101414760       -3.67539766026314       -0.78456459900286
C          -10.09328028611147       -2.49356625700858       -0.49857799398066
C           -9.38284956269104       -1.33439948205726       -0.24626768874919
O          -10.11525549025741       -0.19839187136829       -0.00952868434742
C           -9.42432574565546        0.96232338814084        0.23188334082653
C          -10.17610310164720        2.09688984895617        0.47611388917723
C           -9.55275594291532        3.30106861940357        0.76637414769895
C           -8.17523836944415        3.35432057920550        0.83126504472578
C           -7.41665343621221        2.22026909650770        0.58447146048770
C           -8.02443516704914        1.01497063437841        0.25519916907710
C           -5.16878732078513       -0.92004272134680        0.89455020972921
C           -3.79070910617605       -0.89867683048861        0.88976596102697
H           -0.12560893130804        3.49977404753680       -1.31517275637139
H            1.26718360037375        5.50966275304539       -1.41220355057709
H            1.32813943271713        6.26470469569209        0.97438155439360
H            0.55890503413389        8.39741256664436        1.87612751253248
H            1.97866694759310       10.41949794444183        1.68674357348505
H            4.21094196129661       10.23483415952422        0.60836393498384
H            7.52378180869254        7.88925489251877       -1.45195254818683
H            8.45255714720022        5.82974893091021       -2.48853163233656
H            7.06633550110584        3.77778439756139       -2.54834663770660
H            4.83307953818111        3.77197243524313       -1.55673082238116
H            4.28889487248526        3.55044130483612        0.88752455577247
H            2.88420695019145        1.51674878191929        0.98063173074168
H            2.94566101006784       -1.39394384561532       -0.96309943782159
H            4.43550639722744       -3.36631902320420       -0.88090098646534
H            5.00362415742190       -3.57302270595808        1.55432288334676
H            7.24173048771231       -3.48973928350080        2.53112331859084
H            8.70981238950249       -5.48355000478375        2.45826102571037
H            7.85823466718829       -7.57759733961827        1.42435523699591
H            4.63140358397151      -10.05194509638447       -0.62058405563436
H            2.40383270919798      -10.32422972629348       -1.69025014846047
H            0.90350778840707       -8.36028585623149       -1.87027635950585
H            1.58982717107205       -6.20032509308160       -0.96673079939146
H            1.50777421280878       -5.45827288191281        1.42357867112456
H            0.03051144625621       -3.50914940080030        1.33679403008684
H           -3.29689770443295        1.35704628449761       -1.58462636129578
H           -5.75078256148818        1.30408048383628       -1.58758375450538
H           -6.25388177383766       -2.54213704453995       -0.64692139588431
H           -7.51309483884300       -4.58677510028194       -1.07986243566870
H           -9.98908854766270       -4.57546609837484       -0.97618556304070
H          -11.17021892070877       -2.44695330795109       -0.47229262004791
H          -11.25054865939040        2.01362384968785        0.44013707327707
H          -10.14719927650267        4.18170884387895        0.95151975849446
H           -7.67406346878493        4.27733246581405        1.07810170562542
H           -6.34209914296647        2.27648628195983        0.65901092297261
H           -5.69952141312165       -1.54685776306320        1.59505118810558
H           -3.24534010279504       -1.50406439658156        1.59875847936954

          :  Hamiltonian                  GFN2-xTB          :
         :: gradient norm              0.000110707975 Eh/a0 ::
         :: HOMO-LUMO gap              0.987875914147 eV    ::
         :: SCC energy              -181.934988976986 Eh    ::
         :: -> dispersion             -0.156695209521 Eh    ::
         :: repulsion energy           3.200447877126 Eh    ::

    * Orbital Energies and Occupations

         #    Occupation            Energy/Eh            Energy/eV
      -------------------------------------------------------------
         1        2.0000           -0.7309821             -19.8910
       ...           ...                  ...                  ...
       152        2.0000           -0.4163979             -11.3308
       153        2.0000           -0.4153276             -11.3016
       154        2.0000           -0.4152430             -11.2993
       155        2.0000           -0.4144798             -11.2786
       156        2.0000           -0.4113912             -11.1945
       157        2.0000           -0.4111795             -11.1888
       158        2.0000           -0.3941717             -10.7260
       159        2.0000           -0.3928385             -10.6897
       160        2.0000           -0.3926772             -10.6853
       161        2.0000           -0.3889170             -10.5830
       162        2.0000           -0.3472274              -9.4485
       163        2.0000           -0.3469009              -9.4397
       164        2.0000           -0.3432113              -9.3393 (HOMO)
       165                         -0.3069078              -8.3514 (LUMO)
       166                         -0.2973865              -8.0923
       167                         -0.2628711              -7.1531
       168                         -0.2465208              -6.7082
       169                         -0.2456769              -6.6852
       170                         -0.2452767              -6.6743
       171                         -0.2411154              -6.5611
       172                         -0.2410989              -6.5606
       173                         -0.2378061              -6.4710
       174                         -0.2371142              -6.4522
       175                         -0.2352173              -6.4006
       ...                                ...                  ...
       316                          1.1549449              31.4277
      -------------------------------------------------------------
                  HL-Gap            0.0363036 Eh            0.9879 eV

     #   Z          covCN         q      C6AA      α(0)
     1   7 N        0.911    -0.245    26.396     7.431
     2   6 C        1.909     0.113    28.322     8.595
     3   6 C        2.970    -0.013    28.324     8.730
     4   6 C        2.949     0.106    25.663     8.309
     5   6 C        2.982     0.001    27.989     8.678
     6   6 C        2.921    -0.027    28.686     8.783
     7   6 C        2.921    -0.039    28.970     8.826
     8   6 C        2.921     0.070    26.424     8.430
     9   7 N        2.751    -0.067    22.538     7.051
    10   6 C        2.922     0.042    27.070     8.532
    11   6 C        2.924    -0.059    29.460     8.901
    12   6 C        2.919    -0.038    28.935     8.821
    13   6 C        2.919    -0.039    28.965     8.826
    14   6 C        2.920    -0.056    29.381     8.889
    15   6 C        2.885     0.125    25.254     8.239
    16   8 O        1.709    -0.253    18.190     5.758
    17   6 C        2.885     0.126    25.243     8.237
    18   6 C        2.920    -0.056    29.387     8.890
    19   6 C        2.919    -0.039    28.977     8.827
    20   6 C        2.919    -0.039    28.959     8.825
    21   6 C        2.924    -0.060    29.484     8.905
    22   6 C        2.922     0.042    27.063     8.531
    23   6 C        2.920    -0.040    28.995     8.830
    24   6 C        2.925    -0.025    28.621     8.773
    25   7 N        1.857    -0.242    27.175     7.727
    26   6 C        2.949     0.106    25.663     8.309
    27   6 C        2.982     0.001    27.989     8.678
    28   6 C        2.925    -0.025    28.621     8.773
    29   6 C        2.920    -0.040    28.996     8.830
    30   6 C        2.921     0.070    26.424     8.430
    31   7 N        2.751    -0.067    22.537     7.051
    32   6 C        2.921     0.042    27.063     8.531
    33   6 C        2.924    -0.060    29.484     8.905
    34   6 C        2.919    -0.039    28.959     8.825
    35   6 C        2.919    -0.039    28.977     8.827
    36   6 C        2.920    -0.056    29.387     8.890
    37   6 C        2.885     0.126    25.243     8.237
    38   8 O        1.709    -0.253    18.189     5.758
    39   6 C        2.885     0.125    25.254     8.239
    40   6 C        2.920    -0.056    29.381     8.889
    41   6 C        2.919    -0.039    28.965     8.826
    42   6 C        2.919    -0.038    28.935     8.821
    43   6 C        2.924    -0.059    29.459     8.901
    44   6 C        2.922     0.041    27.070     8.532
    45   6 C        2.921    -0.039    28.970     8.826
    46   6 C        2.921    -0.027    28.686     8.783
    47   6 C        2.970    -0.013    28.324     8.730
    48   6 C        1.909     0.113    28.322     8.595
    49   7 N        0.911    -0.245    26.394     7.430
    50   6 C        2.997     0.035    27.199     8.555
    51   6 C        2.978     0.003    27.961     8.674
    52   6 C        2.923    -0.026    28.643     8.777
    53   6 C        2.921    -0.038    28.944     8.822
    54   6 C        2.922     0.071    26.404     8.427
    55   7 N        2.751    -0.069    22.570     7.056
    56   6 C        2.921     0.041    27.070     8.532
    57   6 C        2.924    -0.059    29.473     8.903
    58   6 C        2.919    -0.038    28.943     8.822
    59   6 C        2.919    -0.039    28.981     8.828
    60   6 C        2.920    -0.056    29.393     8.891
    61   6 C        2.884     0.125    25.256     8.239
    62   8 O        1.709    -0.254    18.209     5.761
    63   6 C        2.884     0.125    25.256     8.239
    64   6 C        2.920    -0.056    29.393     8.891
    65   6 C        2.919    -0.039    28.980     8.828
    66   6 C        2.919    -0.038    28.943     8.822
    67   6 C        2.924    -0.059    29.472     8.903
    68   6 C        2.922     0.041    27.071     8.532
    69   6 C        2.921    -0.038    28.945     8.823
    70   6 C        2.923    -0.026    28.643     8.777
    71   1 H        0.926     0.043     2.403     2.424
    72   1 H        0.926     0.049     2.331     2.388
    73   1 H        0.926     0.039     2.469     2.457
    74   1 H        0.926     0.040     2.449     2.447
    75   1 H        0.926     0.040     2.448     2.447
    76   1 H        0.926     0.052     2.299     2.371
    77   1 H        0.926     0.052     2.299     2.371
    78   1 H        0.926     0.039     2.457     2.451
    79   1 H        0.926     0.037     2.492     2.469
    80   1 H        0.926     0.036     2.508     2.477
    81   1 H        0.926     0.047     2.353     2.399
    82   1 H        0.926     0.057     2.233     2.337
    83   1 H        0.926     0.057     2.234     2.337
    84   1 H        0.926     0.047     2.353     2.399
    85   1 H        0.926     0.036     2.507     2.476
    86   1 H        0.926     0.037     2.492     2.468
    87   1 H        0.926     0.039     2.457     2.451
    88   1 H        0.926     0.052     2.299     2.371
    89   1 H        0.926     0.052     2.299     2.371
    90   1 H        0.926     0.040     2.447     2.446
    91   1 H        0.926     0.040     2.448     2.447
    92   1 H        0.926     0.039     2.468     2.457
    93   1 H        0.926     0.049     2.331     2.388
    94   1 H        0.926     0.043     2.403     2.424
    95   1 H        0.926     0.039     2.466     2.456
    96   1 H        0.926     0.049     2.327     2.386
    97   1 H        0.926     0.038     2.472     2.458
    98   1 H        0.926     0.040     2.455     2.450
    99   1 H        0.926     0.039     2.463     2.454
   100   1 H        0.926     0.051     2.310     2.377
   101   1 H        0.926     0.051     2.310     2.377
   102   1 H        0.926     0.039     2.462     2.454
   103   1 H        0.926     0.040     2.454     2.450
   104   1 H        0.926     0.038     2.471     2.458
   105   1 H        0.926     0.049     2.326     2.385
   106   1 H        0.926     0.039     2.465     2.455

molecular dipole:
                 x           y           z       tot (Debye)
 q only:        0.997       0.019      -0.001
   full:        1.026       0.020      -0.001       2.609

 projected vibrational frequencies (cm⁻¹)
eigval :       -0.00    -0.00    -0.00     0.00     0.00     0.00
eigval :        7.55     7.63    10.04    10.10    11.34    12.19
eigval :       22.06    25.09    27.47    34.46    34.54    45.13
eigval :       49.17    50.27    57.65    59.33    64.03    70.09
eigval :       76.62    83.57    95.83   104.32   112.29   117.02
eigval :      120.44   123.17   129.51   140.62   144.18   162.66
eigval :      168.62   185.35   196.82   198.86   201.40   221.48
eigval :      234.15   241.38   242.58   246.37   254.12   254.49
eigval :      256.28   267.41   271.02   274.39   294.03   295.07
eigval :      327.09   348.75   350.07   357.19   363.63   367.82
eigval :      377.38   383.72   383.83   386.27   387.25   391.50
eigval :      401.27   402.22   411.83   412.37   422.77   424.44
eigval :      432.35   432.40   433.22   433.66   446.98   447.02
eigval :      449.29   480.45   480.53   486.72   492.12   500.29
eigval :      509.65   509.73   509.88   523.04   523.09   523.30
eigval :      534.69   546.59   548.33   548.34   559.85   565.16
eigval :      585.87   588.25   588.69   589.57   594.73   604.67
eigval :      606.50   618.71   624.86   630.05   649.93   651.75
eigval :      657.23   659.05   661.21   661.80   661.83   662.18
eigval :      662.24   664.10   679.74   689.27   694.55   704.11
eigval :      708.52   709.93   733.13   777.08   779.46   779.54
eigval :      780.16   780.30   780.41   781.01   794.70   802.54
eigval :      808.55   823.21   823.98   824.80   838.13   855.73
eigval :      856.13   856.17   863.55   863.82   864.25   868.17
eigval :      868.46   868.94   874.95   875.17   877.26   898.37
eigval :      898.59   899.01   899.75   899.90   899.93   911.33
eigval :      913.96   914.25   914.41   915.86   915.95   916.14
eigval :      916.95   917.37   917.49   917.54   925.56   926.28
eigval :      927.69   928.33   932.55   934.34   934.98   987.37
eigval :      997.98  1016.96  1028.94  1065.92  1090.77  1090.93
eigval :     1090.95  1091.75  1092.05  1092.09  1109.17  1109.18
eigval :     1109.33  1122.03  1122.10  1122.50  1135.74  1135.78
eigval :     1140.19  1170.87  1171.22  1171.51  1175.25  1175.37
eigval :     1175.39  1183.41  1183.67  1184.60  1185.42  1190.70
eigval :     1195.67  1197.49  1202.75  1203.12  1203.20  1212.53
eigval :     1226.17  1228.23  1231.00  1243.40  1243.43  1243.66
eigval :     1262.22  1262.27  1262.53  1264.58  1264.77  1264.93
eigval :     1269.05  1281.46  1309.99  1310.44  1310.52  1311.52
eigval :     1312.82  1314.81  1315.21  1317.28  1320.36  1337.33
eigval :     1337.41  1337.64  1349.39  1354.04  1354.12  1374.02
eigval :     1388.19  1391.62  1407.40  1409.34  1413.47  1424.29
eigval :     1424.41  1424.57  1442.69  1442.97  1443.06  1468.05
eigval :     1481.29  1485.05  1485.65  1486.25  1486.72  1489.14
eigval :     1499.45  1504.17  1504.54  1505.57  1552.44  1553.86
eigval :     1553.92  1568.23  1568.27  1568.30  1580.27  1580.28
eigval :     1580.51  1585.23  1586.07  1587.62  1591.29  1591.61
eigval :     1592.17  1602.28  1602.33  1602.67  2350.86  2353.62
eigval :     3082.45  3084.16  3088.67  3088.76  3089.80  3089.92
eigval :     3090.59  3090.65  3091.74  3091.83  3092.44  3092.50
eigval :     3098.42  3098.96  3099.97  3099.97  3100.06  3100.16
eigval :     3100.83  3100.88  3101.67  3101.69  3104.26  3104.57
eigval :     3106.93  3106.98  3107.74  3108.31  3108.87  3108.91
eigval :     3113.15  3113.68  3113.72  3113.74  3114.29  3114.35

   temp. (K)  partition function   enthalpy   heat capacity  entropy
                                   cal/mol     cal/K/mol   cal/K/mol   J/K/mol
 298.15  VIB  0.613E+28            33053.001    203.847    208.660
         ROT  0.206E+09              888.752      2.981     41.026
         INT  0.126E+37            33941.754    206.828    249.686
         TR   0.262E+29             1481.254      4.968     46.250
         TOT                       35423.0076   211.7964   295.9358  1238.1954

       T/K    H(0)-H(T)+PV         H(T)/Eh          T*S/Eh         G(T)/Eh
   ------------------------------------------------------------------------
    298.15    0.564502E-01    0.839542E+00    0.140609E+00    0.698933E+00
   ------------------------------------------------------------------------

         :::::::::::::::::::::::::::::::::::::::::::::::::::::
         ::                  THERMODYNAMIC                  ::
         :::::::::::::::::::::::::::::::::::::::::::::::::::::
         :: total free energy        -178.035607743662 Eh   ::
         ::.................................................::
         :: total energy             -178.734541099836 Eh   ::
         :: zero point energy           0.783091849922 Eh   ::
         :: G(RRHO) w/o ZPVE           -0.084158493748 Eh   ::
         :: G(RRHO) contrib.            0.698933356174 Eh   ::
         :::::::::::::::::::::::::::::::::::::::::::::::::::::

           -------------------------------------------------
          | TOTAL ENERGY             -178.734541099836 Eh   |
          | TOTAL ENTHALPY           -177.894999094023 Eh   |
          | TOTAL FREE ENERGY        -178.035607743662 Eh   |
          | GRADIENT NORM               0.000110829909 Eh/α |
          | HOMO-LUMO GAP               0.987870220106 eV   |
           -------------------------------------------------

 * finished run on 2025/09/08 at 07:51:54.710
