   * xtb version 6.7.1 (edcfbbe) compiled by 'albert@albert-system' on 2024-07-22

   ID    Z sym.   atoms
    1    7 N      1, 9, 25, 31, 49, 55
    2    6 C      2-8, 10-15, 17-24, 26-30, 32-37, 39-48, 50-54, 56-61, 63-70
    3    8 O      16, 38, 62
    4    1 H      71-106

          program call               : xtb data2507/gas/Tri-PXZ-PCN/Tri-PXZ-PCN_gas_S0_crest.xyz --gfn 2 --ohess vtight --parallel 40 --molden --ceasefiles --namespace data2507/gas/Tri-PXZ-PCN/Tri-PXZ-PCN_gas_S0_finalOpt
          :  Hamiltonian                  GFN2-xTB          :
 * total energy  :  -178.7345061 Eh     change       -0.5535270E-08 Eh
 * total energy  :  -178.7345069 Eh     change       -0.7963076E-06 Eh
 * total energy  :  -178.7345085 Eh     change       -0.1660651E-05 Eh
 * total energy  :  -178.7345097 Eh     change       -0.1196278E-05 Eh
 * total energy  :  -178.7345097 Eh     change        0.2617915E-07 Eh
 * total energy  :  -178.7345115 Eh     change       -0.1828654E-05 Eh
 * total energy  :  -178.7345137 Eh     change       -0.2142223E-05 Eh
 * total energy  :  -178.7345149 Eh     change       -0.1223235E-05 Eh
 * total energy  :  -178.7345161 Eh     change       -0.1220612E-05 Eh
 * total energy  :  -178.7345186 Eh     change       -0.2452781E-05 Eh
 * total energy  :  -178.7345398 Eh     change       -0.1858181E-06 Eh
 * total energy  :  -178.7345399 Eh     change       -0.1286460E-06 Eh
 * total energy  :  -178.7345401 Eh     change       -0.1826673E-06 Eh
 * total energy  :  -178.7345405 Eh     change       -0.3470908E-06 Eh
 * total energy  :  -178.7345411 Eh     change       -0.6056407E-06 Eh
 * total energy  :  -178.7345419 Eh     change       -0.8171500E-06 Eh
 * total energy  :  -178.7345421 Eh     change       -0.2026143E-06 Eh
 * total energy  :  -178.7345422 Eh     change       -0.1634728E-06 Eh
 * total energy  :  -178.7345423 Eh     change       -0.9277184E-07 Eh
   *** GEOMETRY OPTIMIZATION CONVERGED AFTER 46 ITERATIONS ***

 final structure:
================
106
 xtb: 6.7.1 (edcfbbe)
N           -2.13305662924114        3.38572715993424        0.51577588658344
C           -1.56802652949004        2.41619326216286        0.27328551672029
C           -0.88333924886215        1.20408000748955        0.04904112954558
C            0.52667129928715        1.14949823297527       -0.01886845556861
C            1.36310524187405        2.34546391922587       -0.08912900115829
C            0.94814020682764        3.50265892938850       -0.74795071643249
C            1.76861910025284        4.60939629395815       -0.79832949524594
C            3.02208170081602        4.58699732160874       -0.18898989368856
N            3.84958066474160        5.72201217093450       -0.22758520653931
C            3.42158651559001        6.93489002100770        0.32533447745018
C            2.20298657821557        7.06618246143373        0.97987963316002
C            1.81349668731529        8.28236941374943        1.51953531267075
C            2.63921847201054        9.38443029018967        1.42686794102967
C            3.87470583546663        9.26096766972549        0.80993263456038
C            4.26881171000995        8.04946819071871        0.27208441034656
O            5.52117991552150        7.99881536842127       -0.28672358372365
C            5.92628926953365        6.80473514352177       -0.82565082653135
C            7.18215458979658        6.77468753298633       -1.40384371913061
C            7.64974062234535        5.61552780217677       -2.00406054340828
C            6.84249268821760        4.49674514705178       -2.04036461169378
C            5.58350157653572        4.52100306361648       -1.46018657954687
C            5.11503016899936        5.66214758446145       -0.82054204082425
C            3.44922203679254        3.42429277648928        0.45257970457458
C            2.63250930709410        2.31642153447007        0.49259448498145
N            1.16906237873410       -0.00762786872317        0.00476895514259
C            0.51683487524016       -1.15955895094226        0.02318616418634
C            1.34360385342102       -2.36199309448010        0.09631278209924
C            2.62035211930959       -2.33736728310746       -0.46963269488464
C            3.42930733682072       -3.45073214886990       -0.42750748154378
C            2.98621761209025       -4.61552276190572        0.19925920124657
N            3.80577806452813       -5.75631452061330        0.23860520654789
C            5.06392220203943       -5.70897697600127        0.84788693404603
C            5.52777241870149       -4.57818325383832        1.50891355076932
C            6.77910445154455       -4.56630122995047        2.10577940002245
C            7.58297795449251       -5.68737256625840        2.06473273621067
C            7.11953679017310       -6.83657624529437        1.44254798053952
C            5.87119491478167       -6.85434502263455        0.84779880853586
O            5.46909567526415       -8.03929907633417        0.28700316722901
C            4.22283494441053       -8.07843407338633       -0.28623265992418
C            3.83104443178681       -9.28146349573615       -0.84431962255541
C            2.60220328228612       -9.39276287675585       -1.47669643753993
C            1.78072297920982       -8.28708721339480       -1.56351251242027
C            2.16777695863329       -7.07937930719456       -1.00337640674267
C            3.37972443201675       -6.96046523985815       -0.33434089714182
C            1.72531808968562       -4.63401919459957        0.79309918744353
C            0.91316869060805       -3.52113160417244        0.74172404491928
C           -0.89319662463669       -1.20181825581040       -0.05318667153909
C           -1.58824412951731       -2.40685981703765       -0.28366955317096
N           -2.16301747184676       -3.36921364272566       -0.53180361389823
C           -1.60800826021259        0.00420461505976       -0.00337326208671
C           -3.07311758226633        0.01034831862208       -0.00518693240567
C           -3.77505561233335        0.84650440108113       -0.87184840758717
C           -5.15325985487373        0.84756239532251       -0.87903668008070
C           -5.86061652798059        0.02350294480691       -0.00586280092485
N           -7.26569598349170        0.03068273370929       -0.00542617683264
C           -7.98350021346442       -1.13755923690208       -0.28523396810313
C           -7.35985788351386       -2.32712095295358       -0.64094669301459
C           -8.10356169043453       -3.46473396891163       -0.91518183397650
C           -9.48174442642521       -3.43050514592782       -0.85164059299747
C          -10.12085871553307       -2.24149809610208       -0.53433611044727
C           -9.38398098739458       -1.10345150737287       -0.26252464093050
O          -10.09001119724132        0.04227395191355        0.00549412809844
C           -9.37250444219610        1.18211489566363        0.26800976843902
C          -10.09799996924877        2.32609458153939        0.54552849556443
C           -9.44688680754749        3.50990739300786        0.85775704054761
C           -8.06802617639725        3.53301215316796        0.91049527544441
C           -7.33569930779344        2.38938859943315        0.63068464355042
C           -7.97163763413881        1.20484921310391        0.28005337561982
C           -5.16147167321144       -0.80766219745917        0.86721866225047
C           -3.78337399011318       -0.81956105148872        0.86077072565065
H           -0.00518510799123        3.53056428910969       -1.25294865306047
H            1.44886544117029        5.49759283046289       -1.32222473112398
H            1.55314168234465        6.21118513798847        1.07911848088723
H            0.85831272419023        8.35464438856756        2.01596690527247
H            2.33854377354720       10.33407490706761        1.84015258913136
H            4.55502808228288       10.09457835271979        0.74023404982441
H            7.77630240745858        7.67404935727194       -1.37830727170670
H            8.63207157935492        5.60030186549658       -2.44886528284136
H            7.18152954170936        3.59383036613512       -2.52441215521018
H            4.95672754219139        3.64496634668965       -1.51558189917888
H            4.41928109811174        3.40542947757984        0.92669380075861
H            2.95225448921629        1.41532233089846        0.99246867674045
H            2.95203787242220       -1.43475107651056       -0.95883938622759
H            4.40564216695958       -3.43472126688814       -0.88867420947582
H            4.90325541911947       -3.70072579303874        1.56763426351539
H            7.11479093971021       -3.67135311449296        2.60665695385547
H            8.55937618637240       -5.68171141997502        2.52262698594416
H            7.71106961648867       -7.73750983477050        1.41220980592765
H            4.50795722049761      -10.11811634116969       -0.77803390503924
H            2.30339645708510      -10.33579475381606       -1.90614658934525
H            0.83083041134671       -8.34980870716222       -2.07126549686138
H            1.52148727751285       -6.22118994324174       -1.09811897047452
H            1.39316517018662       -5.52399892631351        1.30613658102963
H           -0.04607834734207       -3.54640968677382        1.23544398164173
H           -3.23749921694893        1.47415240170020       -1.56731939954924
H           -5.69204281540464        1.48082919556752       -1.56749016904165
H           -6.28454285077323       -2.36782623255256       -0.71479679804554
H           -7.59031186206974       -4.37529789798109       -1.18261283040628
H          -10.06465373773759       -4.31399856432265       -1.05859934448375
H          -11.19632705827438       -2.17283831467092       -0.49806132289813
H          -11.17424047094571        2.26607868372359        0.51779793219012
H          -10.02101365789317        4.39806976754687        1.06923263201423
H           -7.54536319922685        4.43942428088075        1.17375864521984
H           -6.25958217323838        2.42148469398599        0.69639496810291
H           -5.70660967547916       -1.43602786224487        1.55517212091461
H           -3.25211901236943       -1.45222126234627        1.55655209911299

          :  Hamiltonian                  GFN2-xTB          :
         :: gradient norm              0.000101297206 Eh/a0 ::
         :: HOMO-LUMO gap              0.982498967673 eV    ::
         :: SCC energy              -181.934969111076 Eh    ::
         :: -> dispersion             -0.156683870742 Eh    ::
         :: repulsion energy           3.200426778309 Eh    ::

    * Orbital Energies and Occupations

         #    Occupation            Energy/Eh            Energy/eV
      -------------------------------------------------------------
         1        2.0000           -0.7310186             -19.8920
       ...           ...                  ...                  ...
       152        2.0000           -0.4163820             -11.3303
       153        2.0000           -0.4153915             -11.3034
       154        2.0000           -0.4153027             -11.3010
       155        2.0000           -0.4144434             -11.2776
       156        2.0000           -0.4113602             -11.1937
       157        2.0000           -0.4111336             -11.1875
       158        2.0000           -0.3941819             -10.7262
       159        2.0000           -0.3929047             -10.6915
       160        2.0000           -0.3927406             -10.6870
       161        2.0000           -0.3888868             -10.5821
       162        2.0000           -0.3472739              -9.4498
       163        2.0000           -0.3469463              -9.4409
       164        2.0000           -0.3431692              -9.3381 (HOMO)
       165                         -0.3070628              -8.3556 (LUMO)
       166                         -0.2974151              -8.0931
       167                         -0.2630278              -7.1574
       168                         -0.2465206              -6.7082
       169                         -0.2457177              -6.6863
       170                         -0.2453149              -6.6754
       171                         -0.2411618              -6.5623
       172                         -0.2411518              -6.5621
       173                         -0.2377999              -6.4709
       174                         -0.2370727              -6.4511
       175                         -0.2350841              -6.3970
       ...                                ...                  ...
       316                          1.1549584              31.4280
      -------------------------------------------------------------
                  HL-Gap            0.0361064 Eh            0.9825 eV

     #   Z          covCN         q      C6AA      α(0)
     1   7 N        0.911    -0.245    26.395     7.431
     2   6 C        1.909     0.113    28.322     8.595
     3   6 C        2.970    -0.013    28.324     8.730
     4   6 C        2.948     0.106    25.664     8.309
     5   6 C        2.982     0.001    27.989     8.678
     6   6 C        2.921    -0.027    28.686     8.783
     7   6 C        2.921    -0.039    28.970     8.826
     8   6 C        2.921     0.070    26.424     8.430
     9   7 N        2.751    -0.067    22.538     7.051
    10   6 C        2.922     0.042    27.070     8.532
    11   6 C        2.924    -0.059    29.459     8.901
    12   6 C        2.919    -0.038    28.935     8.821
    13   6 C        2.919    -0.039    28.965     8.826
    14   6 C        2.920    -0.056    29.381     8.889
    15   6 C        2.885     0.125    25.254     8.239
    16   8 O        1.709    -0.253    18.190     5.758
    17   6 C        2.885     0.126    25.243     8.237
    18   6 C        2.920    -0.056    29.387     8.890
    19   6 C        2.919    -0.039    28.977     8.827
    20   6 C        2.919    -0.039    28.959     8.825
    21   6 C        2.924    -0.060    29.485     8.905
    22   6 C        2.922     0.042    27.063     8.531
    23   6 C        2.920    -0.040    28.996     8.830
    24   6 C        2.925    -0.025    28.622     8.773
    25   7 N        1.857    -0.242    27.175     7.727
    26   6 C        2.948     0.106    25.666     8.309
    27   6 C        2.982     0.001    27.989     8.678
    28   6 C        2.925    -0.025    28.622     8.774
    29   6 C        2.920    -0.040    28.994     8.830
    30   6 C        2.921     0.071    26.423     8.430
    31   7 N        2.751    -0.067    22.539     7.051
    32   6 C        2.922     0.042    27.063     8.531
    33   6 C        2.924    -0.060    29.484     8.905
    34   6 C        2.919    -0.039    28.959     8.825
    35   6 C        2.919    -0.039    28.977     8.827
    36   6 C        2.920    -0.056    29.387     8.890
    37   6 C        2.885     0.126    25.243     8.237
    38   8 O        1.709    -0.253    18.190     5.758
    39   6 C        2.885     0.125    25.254     8.239
    40   6 C        2.920    -0.056    29.381     8.889
    41   6 C        2.919    -0.039    28.965     8.826
    42   6 C        2.919    -0.038    28.935     8.821
    43   6 C        2.924    -0.059    29.460     8.901
    44   6 C        2.922     0.042    27.069     8.532
    45   6 C        2.921    -0.039    28.970     8.826
    46   6 C        2.921    -0.027    28.688     8.783
    47   6 C        2.970    -0.013    28.324     8.730
    48   6 C        1.909     0.113    28.321     8.595
    49   7 N        0.911    -0.245    26.397     7.431
    50   6 C        2.997     0.035    27.200     8.555
    51   6 C        2.978     0.003    27.961     8.674
    52   6 C        2.923    -0.026    28.643     8.777
    53   6 C        2.921    -0.038    28.944     8.822
    54   6 C        2.922     0.071    26.404     8.426
    55   7 N        2.751    -0.069    22.571     7.056
    56   6 C        2.922     0.041    27.070     8.532
    57   6 C        2.924    -0.059    29.472     8.903
    58   6 C        2.919    -0.038    28.943     8.822
    59   6 C        2.919    -0.039    28.981     8.828
    60   6 C        2.920    -0.056    29.393     8.891
    61   6 C        2.884     0.125    25.256     8.239
    62   8 O        1.709    -0.254    18.210     5.762
    63   6 C        2.884     0.125    25.256     8.239
    64   6 C        2.920    -0.056    29.393     8.891
    65   6 C        2.919    -0.039    28.981     8.828
    66   6 C        2.919    -0.038    28.943     8.822
    67   6 C        2.924    -0.059    29.473     8.903
    68   6 C        2.922     0.041    27.070     8.532
    69   6 C        2.921    -0.038    28.944     8.822
    70   6 C        2.923    -0.026    28.643     8.777
    71   1 H        0.926     0.044     2.402     2.423
    72   1 H        0.926     0.049     2.332     2.388
    73   1 H        0.926     0.038     2.470     2.458
    74   1 H        0.926     0.040     2.449     2.447
    75   1 H        0.926     0.040     2.448     2.446
    76   1 H        0.926     0.052     2.299     2.371
    77   1 H        0.926     0.052     2.298     2.371
    78   1 H        0.926     0.039     2.457     2.451
    79   1 H        0.926     0.037     2.492     2.469
    80   1 H        0.926     0.036     2.508     2.477
    81   1 H        0.926     0.047     2.353     2.399
    82   1 H        0.926     0.057     2.232     2.336
    83   1 H        0.926     0.057     2.229     2.335
    84   1 H        0.926     0.047     2.354     2.399
    85   1 H        0.926     0.036     2.509     2.477
    86   1 H        0.926     0.037     2.492     2.468
    87   1 H        0.926     0.039     2.457     2.451
    88   1 H        0.926     0.052     2.298     2.371
    89   1 H        0.926     0.052     2.299     2.371
    90   1 H        0.926     0.040     2.448     2.447
    91   1 H        0.926     0.040     2.450     2.448
    92   1 H        0.926     0.038     2.470     2.458
    93   1 H        0.926     0.049     2.331     2.388
    94   1 H        0.926     0.044     2.399     2.422
    95   1 H        0.926     0.039     2.465     2.455
    96   1 H        0.926     0.049     2.326     2.385
    97   1 H        0.926     0.038     2.472     2.459
    98   1 H        0.926     0.040     2.454     2.450
    99   1 H        0.926     0.039     2.463     2.454
   100   1 H        0.926     0.051     2.310     2.377
   101   1 H        0.926     0.051     2.310     2.377
   102   1 H        0.926     0.039     2.463     2.454
   103   1 H        0.926     0.040     2.454     2.450
   104   1 H        0.926     0.038     2.471     2.458
   105   1 H        0.926     0.049     2.327     2.386
   106   1 H        0.926     0.039     2.466     2.456

molecular dipole:
                 x           y           z       tot (Debye)
 q only:        1.004      -0.005       0.005
   full:        1.032      -0.006       0.006       2.624

 projected vibrational frequencies (cm⁻¹)
eigval :       -0.00    -0.00    -0.00    -0.00     0.00     0.00
eigval :        7.58     7.66    10.00    10.10    11.30    12.14
eigval :       22.10    25.01    27.42    34.44    34.47    45.02
eigval :       49.11    50.28    57.62    59.30    64.04    69.84
eigval :       76.53    83.40    96.04   104.39   112.36   117.10
eigval :      120.50   122.96   129.21   140.26   143.91   162.85
eigval :      168.67   185.14   196.64   198.82   201.38   221.60
eigval :      233.98   241.41   242.57   246.42   254.02   254.40
eigval :      256.22   267.43   271.09   274.43   294.30   295.01
eigval :      327.41   348.85   349.45   357.20   363.47   367.93
eigval :      377.43   383.73   384.09   386.07   387.13   391.30
eigval :      401.26   402.22   411.86   412.50   422.70   424.43
eigval :      432.25   432.33   433.12   433.61   446.88   446.94
eigval :      449.20   480.15   480.48   486.72   491.92   500.29
eigval :      509.64   509.73   509.88   523.01   523.07   523.27
eigval :      534.59   546.60   548.30   548.38   559.94   565.11
eigval :      585.89   588.25   588.69   589.54   594.75   604.67
eigval :      606.52   618.88   624.89   629.99   649.86   651.76
eigval :      657.31   659.02   661.21   661.78   661.82   662.15
eigval :      662.22   664.11   679.63   689.29   694.58   704.19
eigval :      708.52   709.85   732.95   777.05   779.48   779.50
eigval :      780.12   780.26   780.41   781.00   794.65   802.53
eigval :      808.50   823.28   823.98   824.72   837.96   855.71
eigval :      856.12   856.13   863.53   863.82   864.27   868.07
eigval :      868.38   868.91   874.92   875.01   877.18   898.34
eigval :      898.57   899.00   899.75   899.82   899.88   911.35
eigval :      913.98   914.26   914.44   915.83   915.93   916.14
eigval :      916.97   917.39   917.51   917.55   925.48   926.27
eigval :      927.57   928.25   932.49   934.20   934.90   987.40
eigval :      997.99  1016.98  1028.90  1065.78  1090.76  1090.89
eigval :     1090.92  1091.74  1092.01  1092.06  1109.17  1109.18
eigval :     1109.32  1122.02  1122.09  1122.46  1135.73  1135.85
eigval :     1140.16  1170.87  1171.26  1171.52  1175.26  1175.40
eigval :     1175.42  1183.37  1183.66  1184.57  1185.42  1190.62
eigval :     1195.67  1197.48  1202.73  1203.10  1203.17  1212.35
eigval :     1226.15  1228.21  1230.91  1243.40  1243.43  1243.67
eigval :     1262.20  1262.24  1262.53  1264.57  1264.71  1264.91
eigval :     1269.04  1281.93  1310.00  1310.49  1310.58  1311.56
eigval :     1312.74  1314.83  1315.13  1317.21  1320.66  1337.36
eigval :     1337.51  1337.76  1349.39  1354.06  1354.17  1373.87
eigval :     1388.29  1391.32  1407.42  1409.35  1413.35  1424.32
eigval :     1424.43  1424.59  1442.70  1443.02  1443.10  1467.85
eigval :     1481.11  1484.93  1485.70  1486.28  1486.75  1489.06
eigval :     1499.49  1504.18  1504.53  1505.56  1552.45  1553.88
eigval :     1553.93  1568.24  1568.29  1568.30  1580.27  1580.28
eigval :     1580.52  1585.24  1586.09  1587.62  1591.30  1591.62
eigval :     1592.19  1602.29  1602.34  1602.68  2350.75  2353.52
eigval :     3082.46  3084.15  3088.71  3088.80  3089.79  3089.82
eigval :     3090.72  3090.93  3091.69  3091.79  3092.42  3092.44
eigval :     3098.36  3098.93  3099.91  3099.93  3099.98  3100.10
eigval :     3100.79  3100.85  3101.88  3102.22  3104.43  3104.84
eigval :     3106.86  3106.99  3107.71  3108.29  3108.77  3108.82
eigval :     3113.12  3113.64  3113.71  3113.74  3114.29  3114.34

   temp. (K)  partition function   enthalpy   heat capacity  entropy
                                   cal/mol     cal/K/mol   cal/K/mol   J/K/mol
 298.15  VIB  0.627E+28            33056.259    203.845    208.689
         ROT  0.412E+09              888.752      2.981     42.403
         INT  0.258E+37            33945.011    206.826    251.092
         TR   0.262E+29             1481.254      4.968     46.250
         TOT                       35426.2651   211.7938   297.3420  1244.0791

       T/K    H(0)-H(T)+PV         H(T)/Eh          T*S/Eh         G(T)/Eh
   ------------------------------------------------------------------------
    298.15    0.564553E-01    0.839535E+00    0.141277E+00    0.698259E+00
   ------------------------------------------------------------------------

         :::::::::::::::::::::::::::::::::::::::::::::::::::::
         ::                  THERMODYNAMIC                  ::
         :::::::::::::::::::::::::::::::::::::::::::::::::::::
         :: total free energy        -178.036283740100 Eh   ::
         ::.................................................::
         :: total energy             -178.734542332753 Eh   ::
         :: zero point energy           0.783080043309 Eh   ::
         :: G(RRHO) w/o ZPVE           -0.084821450656 Eh   ::
         :: G(RRHO) contrib.            0.698258592653 Eh   ::
         :::::::::::::::::::::::::::::::::::::::::::::::::::::

           -------------------------------------------------
          | TOTAL ENERGY             -178.734542332753 Eh   |
          | TOTAL ENTHALPY           -177.895006942433 Eh   |
          | TOTAL FREE ENERGY        -178.036283740100 Eh   |
          | GRADIENT NORM               0.000101401803 Eh/α |
          | HOMO-LUMO GAP               0.982506021842 eV   |
           -------------------------------------------------

 * finished run on 2025/09/08 at 08:03:07.063
