   * xtb version 6.7.1 (edcfbbe) compiled by 'albert@albert-system' on 2024-07-22

   ID    Z sym.   atoms
    1    7 N      1, 9, 25, 31, 49, 55
    2    6 C      2-8, 10-15, 17-24, 26-30, 32-37, 39-48, 50-54, 56-61, 63-70
    3    8 O      16, 38, 62
    4    1 H      71-106

          program call               : xtb data2507/gas/Tri-PXZ-PCN/Tri-PXZ-PCN_gas_S0_finalOpt.xtbopt.xyz --gfn 2 --spinpol --tblite --uhf 2 --ohess vtight --parallel 40 --molden --ceasefiles --namespace data2507/gas/Tri-PXZ-PCN/Tri-PXZ-PCN_gas_T1_preOpt
 * total energy  :  -178.6712545 Eh     change        0.9531931E-08 Eh
 * total energy  :  -178.6740622 Eh     change       -0.2807679E-02 Eh
 * total energy  :  -178.6750393 Eh     change       -0.9771414E-03 Eh
 * total energy  :  -178.6751471 Eh     change       -0.1077110E-03 Eh
 * total energy  :  -178.6753100 Eh     change       -0.1629760E-03 Eh
 * total energy  :  -178.6754029 Eh     change       -0.9290904E-04 Eh
 * total energy  :  -178.6755553 Eh     change       -0.1523084E-03 Eh
 * total energy  :  -178.6756954 Eh     change       -0.1401196E-03 Eh
 * total energy  :  -178.6757834 Eh     change       -0.8806715E-04 Eh
 * total energy  :  -178.6758450 Eh     change       -0.6161007E-04 Eh
 * total energy  :  -178.6772556 Eh     change       -0.1789853E-05 Eh
 * total energy  :  -178.6772576 Eh     change       -0.2054308E-05 Eh
 * total energy  :  -178.6772597 Eh     change       -0.2035419E-05 Eh
 * total energy  :  -178.6772615 Eh     change       -0.1859986E-05 Eh
 * total energy  :  -178.6772633 Eh     change       -0.1778289E-05 Eh
 * total energy  :  -178.6772653 Eh     change       -0.2006782E-05 Eh
 * total energy  :  -178.6772678 Eh     change       -0.2495646E-05 Eh
 * total energy  :  -178.6772704 Eh     change       -0.2622368E-05 Eh
 * total energy  :  -178.6772705 Eh     change       -0.7775574E-07 Eh
   *** GEOMETRY OPTIMIZATION CONVERGED AFTER 94 ITERATIONS ***

 final structure:
================
106
 xtb: 6.7.1 (edcfbbe)
N           -2.39075184043697        3.31667432211136        0.41927945713821
C           -1.73010190363972        2.38853026911019        0.22559744909628
C           -0.99680860490016        1.21881454866976        0.03614608289202
C            0.45029211906036        1.16490127890116       -0.02608889354068
C            1.30084263008326        2.32817343881285       -0.10976831076691
C            0.84756039858333        3.58164939147745       -0.54921366378251
C            1.70270181326903        4.65777736141897       -0.61923018261885
C            3.03961404903891        4.51938088170663       -0.25415363810525
N            3.91471894918156        5.63414402541301       -0.31252201987960
C            3.74035103163298        6.71057505765405        0.54596830400211
C            2.73316369787823        6.73705065976027        1.50757072898849
C            2.58773068433544        7.82873262945489        2.34491387609587
C            3.44643471396396        8.90940019225780        2.24601048972941
C            4.46828494330426        8.89108060822520        1.31049132028302
C            4.62127136723741        7.80254199208518        0.46967527422822
O            5.66457863091304        7.83774680724181       -0.41598407517716
C            5.82228742903961        6.76840620045962       -1.25484415324457
C            6.87340881448995        6.81800859524467       -2.15372822125308
C            7.07543774087342        5.77797932274004       -3.04675728387367
C            6.21296654914413        4.69594108588507       -3.04563583261823
C            5.16067679323562        4.63775523614770       -2.14926460030424
C            4.95610485959756        5.66226106021441       -1.22809340055325
C            3.51357176936866        3.27604315822868        0.16741834863298
C            2.66011099431634        2.20289381132111        0.23219673558751
N            1.05958804863167       -0.00451990850398        0.00188248097911
C            0.44152457897250       -1.16938062593396        0.02977947268878
C            1.28336702807144       -2.33894413498925        0.11346083608397
C            2.64379444497492       -2.22359131618530       -0.22748414461466
C            3.48938863850566       -3.30294074966058       -0.16215432231918
C            3.00602198479872       -4.54281975843114        0.25886577372869
N            3.87283182124636       -5.66396761546757        0.31902846634874
C            4.91077694730683       -5.70075967441620        1.23820090403721
C            5.12277053229471       -4.67647805793404        2.15792966929338
C            6.17126376027243       -4.74367368820640        3.05811503331260
C            7.02240395579621       -5.83461762360632        3.06458114477632
C            6.81281001455854       -6.87431189141809        2.17291139885763
C            5.76549542240664       -6.81565688919491        1.27013823911570
O            5.59977909725685       -7.88504852528348        0.43287563114252
C            4.56036446056023       -7.84071151283437       -0.45693246642875
C            4.39940732792559       -8.92906817113023       -1.29648385512831
C            3.38108696483281       -8.93841259553941       -2.23598060555986
C            2.53400514346289       -7.84909387176001       -2.34011237265828
C            2.68733700781400       -6.75760223170050       -1.50394052933965
C            3.69094403067028       -6.73994817729313       -0.53840516798899
C            1.66770688878261       -4.67161971351653        0.62234573938544
C            0.82050957590698       -3.58928279213622        0.55190372792570
C           -1.00596345407784       -1.21235907031176       -0.03269650602576
C           -1.74818448435690       -2.37648308439489       -0.22222121533586
N           -2.41595906085918       -3.29944249949776       -0.41584704373281
C           -1.69043509480241        0.00581639996079        0.00156609706275
C           -3.16385518602827        0.01146187814666        0.00077496538090
C           -3.86194096819468        0.69916876287916       -0.98654563880751
C           -5.24207122831344        0.70210445477217       -0.99295787063011
C           -5.93767233764325        0.02198356062645       -0.00147455931811
N           -7.35654820585131        0.02747580219821       -0.00288550280000
C           -8.06108541148118       -1.13405633682949       -0.28995627229214
C           -7.42266523978632       -2.32793507832476       -0.61403045887982
C           -8.16027936521550       -3.46454663228264       -0.89580494881534
C           -9.54316492667312       -3.42950093879329       -0.86678682879701
C          -10.19488616210784       -2.24453991257754       -0.56477422769399
C           -9.46537256448383       -1.10288116975285       -0.28238231488440
O          -10.16868741797352        0.03988535586776       -0.01020383818892
C           -9.45677664362141        1.17618884416460        0.26660605640601
C          -10.17760503030508        2.32407243546090        0.54606135433142
C           -9.51697749413534        3.50296340724899        0.85246040172811
C           -8.13400340607393        3.52571502620454        0.88877036671192
C           -7.40504043256455        2.38284451514354        0.60982979338950
C           -8.05233719607107        1.19493741417750        0.28143831043517
C           -5.24887890875455       -0.66328978685671        0.99119733274850
C           -3.86872475402465       -0.67082216512151        0.98702215919664
H           -0.17707139358157        3.70914733553417       -0.85768295539415
H            1.34394601490164        5.61596805973866       -0.96655784977375
H            2.06604453454367        5.89483789406723        1.59741976155326
H            1.79727998295449        7.82803168286323        3.07903763897048
H            3.33148165406210        9.76181875086966        2.89647697931276
H            5.16254807852344        9.71077027018898        1.21764810830426
H            7.51822702398210        7.68198381913079       -2.13964646720606
H            7.89773235473834        5.82237280541601       -3.74303012586047
H            6.35320617127008        3.88893386070202       -3.74787633781260
H            4.48485311955121        3.79769468970095       -2.16162290612892
H            4.55117270409965        3.17319220827074        0.45206245054409
H            3.01399993432804        1.24046380985507        0.56730580681463
H            3.00501489477933       -1.26366982588854       -0.56196525229774
H            4.52798842044875       -3.20754170273196       -0.44574524661826
H            4.45565774140003       -3.82943944374766        2.16623315742279
H            6.31744608362977       -3.93663365166552        3.75910663808975
H            7.84168372153867       -5.88610557687727        3.76391316314258
H            7.44862688184955       -7.74499108839242        2.16293690900395
H            5.08470587367016       -9.75579001836489       -1.19946562050998
H            3.25979050476390       -9.79077258412416       -2.88537420467118
H            1.74651371062250       -7.84151210623069       -3.07737166714362
H            2.02927861700269       -5.90869707592499       -1.59764740373819
H            1.30163733845330       -5.62733170296229        0.96887870122718
H           -0.20533642486010       -3.70947510289739        0.85924065821665
H           -3.32034918705191        1.22223610902373       -1.76043594163129
H           -5.78608632923690        1.22837200056699       -1.76323457293710
H           -6.34542102053907       -2.36347067845384       -0.64889312197454
H           -7.64348522428242       -4.37892342350715       -1.14117429908517
H          -10.11810022341791       -4.31555360583273       -1.08438360362773
H          -11.27108971307790       -2.18189613074870       -0.54580960431888
H          -11.25420759351381        2.27104224402127        0.52130235082096
H          -10.08515794667936        4.39392333641210        1.06775314954379
H           -7.61041467355511        4.43526532472079        1.13764874910285
H           -6.32771089696569        2.40878484131307        0.65020356175952
H           -5.79810294551678       -1.18528456801421        1.76068425698452
H           -3.33238491229667       -1.19801073548756        1.76177392222416

 projected vibrational frequencies (cm⁻¹)
eigval :       -0.00    -0.00    -0.00     0.00     0.00     0.00
eigval :        7.08     7.42     7.99     8.80    10.55    12.02
eigval :       22.24    22.72    29.93    33.54    38.80    40.77
eigval :       46.70    53.97    57.30    57.94    59.22    63.21
eigval :       72.55    75.03    90.93   106.02   110.82   112.80
eigval :      114.48   116.99   121.23   133.33   140.19   161.07
eigval :      167.44   178.20   194.12   196.27   197.63   222.47
eigval :      229.24   240.61   242.49   245.11   248.86   249.82
eigval :      255.13   267.38   271.76   276.92   291.01   302.36
eigval :      337.72   337.75   344.74   356.09   358.56   370.74
eigval :      376.94   378.22   380.02   384.19   388.85   390.02
eigval :      400.51   402.97   411.99   412.55   418.65   424.53
eigval :      430.81   431.06   431.21   433.14   445.12   451.69
eigval :      457.10   460.80   464.28   479.07   495.27   496.76
eigval :      499.64   503.09   503.13   503.36   525.23   526.45
eigval :      526.57   542.00   542.51   545.83   553.15   555.03
eigval :      579.43   583.38   585.67   587.68   587.80   598.21
eigval :      601.67   603.77   615.23   619.98   621.61   644.16
eigval :      651.44   653.55   664.88   665.08   665.56   666.35
eigval :      667.46   668.65   668.70   679.85   679.87   686.18
eigval :      688.46   704.76   705.59   773.01   777.74   777.84
eigval :      778.95   778.97   779.52   780.34   789.77   801.07
eigval :      803.33   808.25   808.97   821.68   826.97   852.40
eigval :      855.40   855.81   855.84   856.80   866.59   866.95
eigval :      866.97   867.63   867.72   869.55   871.67   899.45
eigval :      899.53   900.39   900.50   901.20   902.06   907.16
eigval :      907.45   908.86   910.12   912.29   916.13   916.46
eigval :      916.69   916.72   918.39   918.52   918.66   918.68
eigval :      920.22   920.32   921.85   923.56   925.25   981.69
eigval :      989.32  1013.71  1017.80  1046.47  1085.80  1085.81
eigval :     1085.96  1086.93  1087.12  1087.69  1112.41  1112.52
eigval :     1112.98  1120.92  1121.56  1122.69  1128.57  1132.57
eigval :     1135.48  1138.76  1169.91  1170.98  1171.94  1174.25
eigval :     1174.35  1174.39  1175.53  1182.40  1183.53  1186.56
eigval :     1195.39  1197.12  1206.15  1206.66  1206.69  1207.09
eigval :     1223.34  1225.39  1226.61  1236.66  1239.06  1239.06
eigval :     1240.05  1256.77  1257.31  1257.88  1262.23  1262.63
eigval :     1266.64  1267.96  1304.05  1305.69  1313.17  1314.27
eigval :     1315.32  1315.46  1315.57  1317.05  1318.84  1327.67
eigval :     1329.83  1330.22  1344.94  1346.82  1349.33  1351.09
eigval :     1365.75  1384.02  1389.45  1405.68  1414.50  1415.63
eigval :     1417.86  1421.73  1421.97  1424.36  1442.25  1442.29
eigval :     1442.62  1454.30  1454.32  1456.84  1466.10  1473.63
eigval :     1479.56  1480.78  1488.44  1493.45  1514.32  1516.72
eigval :     1559.07  1559.14  1560.49  1566.11  1566.95  1567.04
eigval :     1567.12  1568.97  1577.90  1578.45  1578.98  1580.73
eigval :     1588.80  1589.77  1591.27  1596.29  2269.44  2300.36
eigval :     3073.59  3073.74  3080.17  3080.29  3084.01  3085.57
eigval :     3094.18  3094.18  3095.79  3095.81  3095.86  3096.21
eigval :     3097.00  3097.06  3102.07  3103.05  3103.29  3103.35
eigval :     3103.93  3103.98  3104.37  3104.49  3112.48  3112.61
eigval :     3112.89  3113.28  3113.48  3113.54  3114.74  3114.85
eigval :     3115.43  3115.52  3115.72  3115.82  3121.77  3121.91

   temp. (K)  partition function   enthalpy   heat capacity  entropy
                                   cal/mol     cal/K/mol   cal/K/mol   J/K/mol
 298.15  VIB  0.230E+29            33340.752    204.977    211.349
         ROT  0.207E+09              888.752      2.981     41.032
         INT  0.475E+37            34229.504    207.958    252.381
         TR   0.262E+29             1481.254      4.968     46.250
         TOT                       35710.7582   212.9260   298.6308  1249.4713

       T/K    H(0)-H(T)+PV         H(T)/Eh          T*S/Eh         G(T)/Eh
   ------------------------------------------------------------------------
    298.15    0.569087E-01    0.836418E+00    0.141889E+00    0.694529E+00
   ------------------------------------------------------------------------

         :::::::::::::::::::::::::::::::::::::::::::::::::::::
         ::                  THERMODYNAMIC                  ::
         :::::::::::::::::::::::::::::::::::::::::::::::::::::
         :: total free energy        -177.982741533662 Eh   ::
         ::.................................................::
         :: total energy             -178.677270510503 Eh   ::
         :: zero point energy           0.779509396317 Eh   ::
         :: G(RRHO) w/o ZPVE           -0.084980419476 Eh   ::
         :: G(RRHO) contrib.            0.694528976840 Eh   ::
         :::::::::::::::::::::::::::::::::::::::::::::::::::::

           -------------------------------------------------
          | TOTAL ENERGY             -178.677270510503 Eh   |
          | TOTAL ENTHALPY           -177.840852398546 Eh   |
          | TOTAL FREE ENERGY        -177.982741533662 Eh   |
          | GRADIENT NORM               0.000194262414 Eh/α |
           -------------------------------------------------

 * finished run on 2025/09/08 at 08:03:52.743
