   * xtb version 6.7.1 (edcfbbe) compiled by 'albert@albert-system' on 2024-07-22

   ID    Z sym.   atoms
    1    6 C      1-6, 8-13, 15-19, 22-26, 28-33, 35-42, 44, 45
    2    8 O      7, 34, 43
    3    7 N      14, 20, 21, 27
    4    1 H      46-69

          program call               : xtb data2507/gas/2PXZ-OXD/2PXZ-OXD_gas_S0_crest.xyz --gfn 2 --ohess vtight --parallel 40 --molden --ceasefiles --namespace data2507/gas/2PXZ-OXD/2PXZ-OXD_gas_S0_finalOpt
          :  Hamiltonian                  GFN2-xTB          :
 * total energy  :  -117.5545721 Eh     change       -0.1934865E-08 Eh
 * total energy  :  -117.5545728 Eh     change       -0.7072583E-06 Eh
 * total energy  :  -117.5545737 Eh     change       -0.9392119E-06 Eh
 * total energy  :  -117.5545753 Eh     change       -0.1591042E-05 Eh
 * total energy  :  -117.5545762 Eh     change       -0.8604140E-06 Eh
 * total energy  :  -117.5545770 Eh     change       -0.8546127E-06 Eh
 * total energy  :  -117.5545780 Eh     change       -0.9428038E-06 Eh
 * total energy  :  -117.5545787 Eh     change       -0.6639069E-06 Eh
 * total energy  :  -117.5545791 Eh     change       -0.4570485E-06 Eh
 * total energy  :  -117.5545797 Eh     change       -0.5500878E-06 Eh
 * total energy  :  -117.5545823 Eh     change       -0.6030752E-06 Eh
 * total energy  :  -117.5545826 Eh     change       -0.3263272E-06 Eh
 * total energy  :  -117.5545828 Eh     change       -0.2172762E-06 Eh
 * total energy  :  -117.5545829 Eh     change       -0.1377049E-06 Eh
 * total energy  :  -117.5545831 Eh     change       -0.1666988E-06 Eh
 * total energy  :  -117.5545833 Eh     change       -0.2265595E-06 Eh
 * total energy  :  -117.5545836 Eh     change       -0.2418499E-06 Eh
 * total energy  :  -117.5545837 Eh     change       -0.1348108E-06 Eh
 * total energy  :  -117.5545838 Eh     change       -0.6952010E-07 Eh
   *** GEOMETRY OPTIMIZATION CONVERGED AFTER 21 ITERATIONS ***

 final structure:
================
69
 xtb: 6.7.1 (edcfbbe)
C           -7.87837614876914       -4.03628078012513       -0.03632737503424
C           -6.58135729713407       -3.78495309629508        0.36228568523824
C           -6.07616854190136       -2.49397053464667        0.33294577776016
C           -6.85707853554612       -1.43298358030976       -0.10815979033306
C           -8.18438128649220       -1.69372316851803       -0.47389347624377
C           -8.68267780230515       -2.98315923283031       -0.44519994917238
O           -9.05248227433147       -0.70209699599022       -0.85499736715410
C           -8.57664251182607        0.58490473191627       -0.87051642412047
C           -9.46272662629141        1.57341656966592       -1.25707964293704
C           -9.04829039895091        2.89451314745797       -1.33447293207698
C           -7.73785320434720        3.21328059535452       -1.04195585596004
C           -6.84602681194459        2.22607404030278       -0.65111216827238
C           -7.25418696848424        0.90330120175132       -0.53425910608940
N           -6.38040641404407       -0.11865258647286       -0.14785955727347
C           -5.04861911037953        0.17074747359824        0.20197999441699
C           -4.77136542692540        1.01269603073672        1.27985672936858
C           -3.46777261147807        1.29622915037553        1.62250926301729
C           -2.41618909107524        0.73867617105975        0.89229146834891
C           -1.05790614955311        1.04128676278642        1.26650253189398
N           -0.66890452003025        1.81778882891822        2.23761055854063
N            0.66742192945972        1.81740204797708        2.23895348349381
C            1.05799904529096        1.04113167352128        1.26837437810424
C            2.41674481711474        0.73880950723705        0.89573583542505
C            2.69324144396726       -0.09484648287923       -0.18820299067794
C            3.99932673092086       -0.37381825433877       -0.52992980565476
C            5.04978431114998        0.17197482522078        0.20651927025146
N            6.38158260818886       -0.11717672400249       -0.14310263873021
C            7.25849259013972        0.90569955096978       -0.52002889676356
C            6.85575224674526        2.23150091708736       -0.62045495424604
C            7.75083941802516        3.21944724947516       -1.00183394205347
C            9.05925607830261        2.89871054784727       -1.30117195953724
C            9.46818542459264        1.57506156720069       -1.24037667033978
C            8.57878409348709        0.58584114480310       -0.86331879144612
O            9.04933887076717       -0.70323057059858       -0.86456391973773
C            8.17768153935346       -1.69591075703611       -0.49474546486676
C            8.67002036075038       -2.98794010175845       -0.48507160717623
C            7.86206188159147       -4.04275586511747       -0.08801427304039
C            6.56758796296564       -3.79075089486152        0.31840149805385
C            6.06835761536223       -2.49718087593467        0.30798012702491
C            6.85261808371672       -1.43402319319459       -0.12187967050608
C            4.77157515589979        1.00470686069844        1.29132887249782
C            3.46768906558879        1.28792882645245        1.63323982686877
O            0.00056193420658        0.51231691402672        0.60534923735917
C           -2.69173579658722       -0.10380852291605       -0.18504938340848
C           -3.99761261167189       -0.38360055677102       -0.52717879809489
H           -8.27472864531784       -5.03913914646990       -0.02028757410800
H           -5.94935905545494       -4.58972563610653        0.70494096398148
H           -5.06701664853268       -2.31067277677399        0.66683408311943
H           -9.70739008895829       -3.14023812303145       -0.74163395610773
H          -10.47311613130527        1.28561026097031       -1.49972691226699
H           -9.74733070530168        3.65925710317308       -1.63376660421251
H           -7.39331006219521        4.23300398536330       -1.11809452738816
H           -5.82060027423268        2.48871773245587       -0.44398359539563
H           -5.58872189672875        1.43142220804328        1.84764245042416
H           -3.23481825937035        1.93855493261972        2.45638607072541
H            1.88011894661879       -0.51236047858750       -0.76257390351552
H            4.21829452983041       -1.01013045643576       -1.37459901870465
H            5.83196424055483        2.49616821234453       -0.40794657059197
H            7.41042503848356        4.24142456630482       -1.06527083571649
H            9.76078737941362        3.66400044547783       -1.59310423528153
H           10.47667138772894        1.28567161791034       -1.48895421006758
H            9.69303584829498       -3.14566991581880       -0.78693420150579
H            8.25364579881948       -5.04760908740104       -0.08706688484304
H            5.93293862330817       -4.59708971007270        0.65235830307788
H            5.06118704761530       -2.31375383267060        0.64772823701186
H            5.58832955102803        1.41620787828822        1.86523192441042
H            3.23401621263989        1.92335585219184        2.47220240136816
H           -1.87805865193795       -0.52794473744577       -0.75378503141728
H           -4.21593888672132       -1.02725337107394       -1.36644553821590

          :  Hamiltonian                  GFN2-xTB          :
         :: gradient norm              0.000106942862 Eh/a0 ::
         :: HOMO-LUMO gap              1.541267902374 eV    ::
         :: SCC energy              -119.505057892040 Eh    ::
         :: -> dispersion             -0.092495901134 Eh    ::
         :: repulsion energy           1.950474118822 Eh    ::

    * Orbital Energies and Occupations

         #    Occupation            Energy/Eh            Energy/eV
      -------------------------------------------------------------
         1        2.0000           -0.7706130             -20.9694
       ...           ...                  ...                  ...
        95        2.0000           -0.4245897             -11.5537
        96        2.0000           -0.4244080             -11.5487
        97        2.0000           -0.4229939             -11.5103
        98        2.0000           -0.4179572             -11.3732
        99        2.0000           -0.4179116             -11.3720
       100        2.0000           -0.4148296             -11.2881
       101        2.0000           -0.4147916             -11.2871
       102        2.0000           -0.4023433             -10.9483
       103        2.0000           -0.3925030             -10.6806
       104        2.0000           -0.3915518             -10.6547
       105        2.0000           -0.3888067             -10.5800
       106        2.0000           -0.3466742              -9.4335
       107        2.0000           -0.3455947              -9.4041 (HOMO)
       108                         -0.2889542              -7.8628 (LUMO)
       109                         -0.2653894              -7.2216
       110                         -0.2456786              -6.6853
       111                         -0.2456585              -6.6847
       112                         -0.2404868              -6.5440
       113                         -0.2404391              -6.5427
       114                         -0.2317389              -6.3059
       115                         -0.2316962              -6.3048
       116                         -0.2188125              -5.9542
       117                         -0.2177508              -5.9253
       118                         -0.2027889              -5.5182
       ...                                ...                  ...
       204                          0.6732615              18.3204
      -------------------------------------------------------------
                  HL-Gap            0.0566405 Eh            1.5413 eV

     #   Z          covCN         q      C6AA      α(0)
     1   6 C        2.919    -0.040    28.983     8.828
     2   6 C        2.919    -0.038    28.957     8.824
     3   6 C        2.924    -0.060    29.486     8.905
     4   6 C        2.922     0.042    27.061     8.531
     5   6 C        2.884     0.125    25.250     8.238
     6   6 C        2.920    -0.056    29.387     8.890
     7   8 O        1.709    -0.254    18.199     5.760
     8   6 C        2.884     0.125    25.253     8.238
     9   6 C        2.920    -0.056    29.386     8.889
    10   6 C        2.919    -0.039    28.979     8.828
    11   6 C        2.919    -0.038    28.950     8.823
    12   6 C        2.924    -0.060    29.485     8.905
    13   6 C        2.922     0.042    27.065     8.531
    14   7 N        2.751    -0.068    22.563     7.055
    15   6 C        2.921     0.070    26.423     8.430
    16   6 C        2.920    -0.037    28.930     8.820
    17   6 C        2.924    -0.028    28.702     8.786
    18   6 C        2.975    -0.007    28.202     8.711
    19   6 C        3.170     0.213    23.194     7.868
    20   7 N        2.048    -0.197    25.990     7.562
    21   7 N        2.048    -0.197    25.990     7.562
    22   6 C        3.170     0.213    23.194     7.868
    23   6 C        2.975    -0.008    28.202     8.711
    24   6 C        2.922    -0.027    28.672     8.781
    25   6 C        2.921    -0.040    28.993     8.830
    26   6 C        2.921     0.070    26.424     8.430
    27   7 N        2.751    -0.068    22.561     7.055
    28   6 C        2.922     0.042    27.064     8.531
    29   6 C        2.924    -0.060    29.485     8.905
    30   6 C        2.919    -0.038    28.950     8.823
    31   6 C        2.919    -0.039    28.978     8.828
    32   6 C        2.920    -0.056    29.385     8.889
    33   6 C        2.884     0.125    25.253     8.239
    34   8 O        1.709    -0.254    18.199     5.760
    35   6 C        2.884     0.125    25.249     8.238
    36   6 C        2.920    -0.056    29.388     8.890
    37   6 C        2.919    -0.040    28.982     8.828
    38   6 C        2.919    -0.039    28.957     8.824
    39   6 C        2.924    -0.060    29.486     8.905
    40   6 C        2.922     0.042    27.062     8.531
    41   6 C        2.920    -0.037    28.931     8.820
    42   6 C        2.924    -0.028    28.702     8.786
    43   8 O        1.721    -0.229    17.797     5.696
    44   6 C        2.922    -0.027    28.672     8.781
    45   6 C        2.921    -0.040    28.992     8.830
    46   1 H        0.926     0.039     2.459     2.452
    47   1 H        0.926     0.037     2.493     2.469
    48   1 H        0.926     0.035     2.522     2.483
    49   1 H        0.926     0.052     2.301     2.372
    50   1 H        0.926     0.052     2.301     2.372
    51   1 H        0.926     0.039     2.456     2.450
    52   1 H        0.926     0.038     2.480     2.463
    53   1 H        0.926     0.036     2.504     2.475
    54   1 H        0.926     0.051     2.302     2.373
    55   1 H        0.926     0.067     2.122     2.278
    56   1 H        0.926     0.049     2.328     2.386
    57   1 H        0.926     0.048     2.350     2.397
    58   1 H        0.926     0.036     2.503     2.474
    59   1 H        0.926     0.038     2.480     2.463
    60   1 H        0.926     0.040     2.455     2.450
    61   1 H        0.926     0.052     2.300     2.372
    62   1 H        0.926     0.052     2.301     2.372
    63   1 H        0.926     0.039     2.459     2.452
    64   1 H        0.926     0.037     2.493     2.469
    65   1 H        0.926     0.035     2.521     2.483
    66   1 H        0.926     0.051     2.302     2.372
    67   1 H        0.926     0.067     2.122     2.278
    68   1 H        0.926     0.049     2.328     2.386
    69   1 H        0.926     0.048     2.349     2.397

molecular dipole:
                 x           y           z       tot (Debye)
 q only:        0.005      -0.289      -0.404
   full:        0.005      -0.635      -0.833       2.663

 projected vibrational frequencies (cm⁻¹)
eigval :       -0.00    -0.00    -0.00     0.00     0.00     0.00
eigval :        8.24     8.87    14.42    24.28    26.59    35.95
eigval :       41.85    50.27    59.88    65.35    68.92    92.37
eigval :      105.45   107.28   118.77   122.78   124.66   178.80
eigval :      187.15   193.70   202.95   242.87   249.64   253.96
eigval :      255.10   270.41   274.29   281.52   332.46   354.74
eigval :      368.09   371.52   376.70   378.19   389.72   399.96
eigval :      401.83   422.10   423.66   430.61   431.18   432.75
eigval :      446.24   449.10   466.25   489.56   498.40   502.77
eigval :      509.93   509.99   522.78   522.95   548.96   552.03
eigval :      587.05   587.51   591.44   603.31   608.65   609.65
eigval :      653.56   658.97   661.69   661.76   661.91   666.76
eigval :      676.87   680.44   710.14   715.25   720.81   729.09
eigval :      779.16   779.27   779.52   779.62   802.49   804.03
eigval :      824.35   825.56   855.77   855.80   863.92   864.01
eigval :      866.86   866.97   876.50   877.19   897.73   897.79
eigval :      898.96   898.97   908.83   913.48   914.05   914.06
eigval :      915.38   915.39   917.18   917.25   926.09   926.55
eigval :      935.10   935.28   971.72   974.49  1009.10  1019.23
eigval :     1081.70  1090.72  1090.75  1091.84  1091.89  1097.72
eigval :     1108.69  1108.71  1121.09  1121.17  1126.69  1127.55
eigval :     1170.75  1170.83  1175.55  1175.57  1178.96  1180.94
eigval :     1184.82  1188.93  1190.95  1202.24  1202.31  1222.08
eigval :     1224.20  1243.09  1243.17  1258.32  1259.84  1262.24
eigval :     1262.34  1275.92  1298.98  1310.32  1310.48  1317.52
eigval :     1318.47  1320.68  1326.99  1338.80  1338.96  1355.49
eigval :     1355.70  1407.86  1408.60  1424.42  1424.47  1442.22
eigval :     1442.30  1460.55  1460.89  1487.33  1487.76  1503.19
eigval :     1504.00  1533.95  1535.57  1557.59  1560.05  1568.16
eigval :     1568.23  1580.58  1580.60  1585.21  1585.31  1591.16
eigval :     1591.35  1602.95  1602.96  3087.13  3087.50  3089.68
eigval :     3089.71  3090.50  3090.56  3092.99  3093.09  3098.45
eigval :     3099.01  3099.66  3099.71  3099.97  3100.10  3106.56
eigval :     3106.61  3107.41  3107.52  3113.52  3113.60  3114.06
eigval :     3114.16  3116.61  3116.79

   temp. (K)  partition function   enthalpy   heat capacity  entropy
                                   cal/mol     cal/K/mol   cal/K/mol   J/K/mol
 298.15  VIB  0.121E+17            19988.017    127.010    124.637
         ROT  0.107E+09              888.752      2.981     39.719
         INT  0.129E+25            20876.769    129.990    164.357
         TR   0.137E+29             1481.254      4.968     44.961
         TOT                       22358.0234   134.9586   209.3178   875.7859

       T/K    H(0)-H(T)+PV         H(T)/Eh          T*S/Eh         G(T)/Eh
   ------------------------------------------------------------------------
    298.15    0.356298E-01    0.548098E+00    0.994537E-01    0.448644E+00
   ------------------------------------------------------------------------

         :::::::::::::::::::::::::::::::::::::::::::::::::::::
         ::                  THERMODYNAMIC                  ::
         :::::::::::::::::::::::::::::::::::::::::::::::::::::
         :: total free energy        -117.105939727672 Eh   ::
         ::.................................................::
         :: total energy             -117.554583773218 Eh   ::
         :: zero point energy           0.512467929763 Eh   ::
         :: G(RRHO) w/o ZPVE           -0.063823884217 Eh   ::
         :: G(RRHO) contrib.            0.448644045546 Eh   ::
         :::::::::::::::::::::::::::::::::::::::::::::::::::::

           -------------------------------------------------
          | TOTAL ENERGY             -117.554583773218 Eh   |
          | TOTAL ENTHALPY           -117.006486065302 Eh   |
          | TOTAL FREE ENERGY        -117.105939727672 Eh   |
          | GRADIENT NORM               0.000106970195 Eh/α |
          | HOMO-LUMO GAP               1.541266946210 eV   |
           -------------------------------------------------

 * finished run on 2025/07/17 at 01:57:08.112
