   * xtb version 6.7.1 (edcfbbe) compiled by 'albert@albert-system' on 2024-07-22

   ID    Z sym.   atoms
    1    6 C      1-6, 8-13, 15-19, 22-26, 28-33, 35-42, 44, 45
    2    8 O      7, 34, 43
    3    7 N      14, 20, 21, 27
    4    1 H      46-69

          program call               : xtb data2507/gas/2PXZ-OXD/2PXZ-OXD_gas_S0_finalOpt.xtbopt.xyz --gfn 2 --spinpol --tblite --uhf 2 --ohess vtight --parallel 40 --molden --ceasefiles --namespace data2507/gas/2PXZ-OXD/2PXZ-OXD_gas_T1_preOpt
 * total energy  :  -117.4752949 Eh     change       -0.2015548E-07 Eh
 * total energy  :  -117.4798530 Eh     change       -0.4558185E-02 Eh
 * total energy  :  -117.4813971 Eh     change       -0.1544065E-02 Eh
 * total energy  :  -117.4814790 Eh     change       -0.8185373E-04 Eh
 * total energy  :  -117.4815148 Eh     change       -0.3584013E-04 Eh
 * total energy  :  -117.4815196 Eh     change       -0.4790381E-05 Eh
 * total energy  :  -117.4815266 Eh     change       -0.7017962E-05 Eh
 * total energy  :  -117.4815306 Eh     change       -0.3982764E-05 Eh
 * total energy  :  -117.4815336 Eh     change       -0.2957730E-05 Eh
 * total energy  :  -117.4815354 Eh     change       -0.1882451E-05 Eh
 * total energy  :  -117.4815652 Eh     change       -0.4739857E-06 Eh
 * total energy  :  -117.4815658 Eh     change       -0.6582183E-06 Eh
 * total energy  :  -117.4815662 Eh     change       -0.3338104E-06 Eh
 * total energy  :  -117.4815665 Eh     change       -0.3154988E-06 Eh
 * total energy  :  -117.4815666 Eh     change       -0.1126475E-06 Eh
 * total energy  :  -117.4815665 Eh     change        0.7136354E-07 Eh
 * total energy  :  -117.4815665 Eh     change        0.3612126E-07 Eh
 * total energy  :  -117.4815665 Eh     change        0.2436288E-07 Eh
 * total energy  :  -117.4815665 Eh     change       -0.6370679E-07 Eh
   *** GEOMETRY OPTIMIZATION CONVERGED AFTER 46 ITERATIONS ***

 final structure:
================
69
 xtb: 6.7.1 (edcfbbe)
C           -7.97619587208270       -3.99545749762678       -0.01739559456920
C           -6.66840178912245       -3.76366104627476        0.37199518181411
C           -6.14229871954729       -2.48502782355809        0.34037048912137
C           -6.91384668975355       -1.40890783218336       -0.09505118603026
C           -8.25149480533135       -1.65039687105508       -0.45105975362259
C           -8.77013989529576       -2.93362811537052       -0.41851306605960
O           -9.10034469868762       -0.64455455482174       -0.82176034452731
C           -8.60237146609125        0.62891572240943       -0.84716984926186
C           -9.47142245839616        1.63820983366297       -1.22508769273839
C           -9.02457524419396        2.94667102739977       -1.30800004844846
C           -7.69953567789561        3.23649728220520       -1.03226518333222
C           -6.82551531292906        2.23423044140398       -0.65239543352139
C           -7.26465660222163        0.91720343286464       -0.52828085945869
N           -6.41510868966846       -0.11331609434144       -0.14520220661557
C           -5.07013312260334        0.15147860110376        0.19091632959238
C           -4.76464077822195        0.99123979739300        1.27530689982153
C           -3.46393977148199        1.24278111898953        1.60991540979843
C           -2.40488550020262        0.67347783596476        0.85944988353760
C           -1.07289142926163        0.94697185411560        1.20618688646354
N           -0.64944976106388        1.71310371463136        2.21195563763348
N            0.64974354707309        1.71279433813880        2.21212355423725
C            1.07306419819477        0.94643924048385        1.20645743261106
C            2.40497059306776        0.67230777143392        0.85995945023545
C            2.72535379586287       -0.16778862003928       -0.23503416665341
C            4.03025196468103       -0.42601191889387       -0.55414575783623
C            5.06999419342464        0.14942361042105        0.19128684367405
N            6.41478284472669       -0.11564606005036       -0.14535548993052
C            7.26425414124216        0.91447823289344       -0.52969177610407
C            6.82572063563150        2.23180458780829       -0.65269328428391
C            7.69965777007791        3.23359439482066       -1.03403983325944
C            9.02396577562161        2.94297791571321       -1.31240937207554
C            9.47015166198011        1.63422202014763       -1.23054723924343
C            8.60119599661251        0.62542299505670       -0.85109887602872
O            9.09847173964567       -0.64835285838752       -0.82683477266812
C            8.24977549309532       -1.65373239135912       -0.45452152560797
C            8.76772697479687       -2.93726477939836       -0.42299312840418
C            7.97390928000108       -3.99862647361585       -0.02037469156550
C            6.66700930044718       -3.76606510452183        0.37154650109255
C            6.14158541333620       -2.48712800757603        0.34089610889954
C            6.91293843709533       -1.41148257945399       -0.09603653995666
C            4.76486662096948        0.98928696333285        1.27568212964782
C            3.46426151355295        1.24124939173996        1.61037436068720
O            0.00003693866293        0.41692529282906        0.52065920898819
C           -2.72561047539449       -0.16628378394619       -0.23570029247674
C           -4.03062921872910       -0.42405534727022       -0.55476473487825
H           -8.38551197647700       -4.99290339396974        0.00297395097625
H           -6.04953868216473       -4.58043291868722        0.70939810127453
H           -5.12893454206202       -2.31052717835498        0.66393735182835
H           -9.79971585386557       -3.07594606981904       -0.70508318758466
H          -10.49113481738292        1.37461524477533       -1.45559088629245
H           -9.70740363053510        3.72859055040580       -1.59986632834439
H           -7.33622759486789        4.24879410464878       -1.11656694413253
H           -5.79114181487000        2.46637122671477       -0.45695500110075
H           -5.57333662510859        1.41362028254916        1.85441808526465
H           -3.21029959676691        1.86790597372402        2.45044331490718
H            1.92225983572017       -0.59177327762964       -0.81756829551768
H            4.27521614539132       -1.05612576016050       -1.39760068297095
H            5.79187024468325        2.46458759269697       -0.45528138401773
H            7.33682363066221        4.24613207191799       -1.11746759941746
H            9.70670844126118        3.72450465965996       -1.60552949329092
H           10.48924159213848        1.37001589399825       -1.46309037669047
H            9.79665652329933       -3.08020474911883       -0.71156853759645
H            8.38266627964368       -4.99631936418172       -0.00081587041351
H            6.04833108599386       -4.58247012338422        0.71018122362229
H            5.12893463971121       -2.31200988387522        0.66637094048023
H            5.57373152948714        1.41143127501933        1.85473001190361
H            3.21087562467285        1.86650126716863        2.45088486740807
H           -1.92269908028545       -0.59040088458984       -0.81839276259543
H           -4.27583389225015       -1.05389162376365       -1.39835647033179

 projected vibrational frequencies (cm⁻¹)
eigval :       -0.00    -0.00     0.00     0.00     0.00     0.00
eigval :        9.19    11.41    15.37    23.49    30.19    40.14
eigval :       44.33    59.17    63.72    68.33    79.19   102.67
eigval :      107.34   111.05   120.77   121.87   128.80   168.84
eigval :      177.53   195.51   207.18   239.84   246.53   247.48
eigval :      253.74   272.28   276.73   280.09   324.49   344.36
eigval :      360.70   373.47   377.93   382.00   382.15   390.50
eigval :      402.33   418.91   422.30   425.44   433.64   434.43
eigval :      453.87   457.50   465.69   467.28   472.27   502.45
eigval :      502.47   503.67   527.76   528.16   536.77   541.23
eigval :      569.79   583.30   586.38   588.49   601.61   604.12
eigval :      605.54   649.04   649.66   655.87   661.35   666.00
eigval :      667.93   669.38   669.43   682.23   699.98   714.21
eigval :      777.63   777.71   779.18   779.20   799.46   799.53
eigval :      799.99   800.03   838.94   841.79   856.03   856.06
eigval :      867.02   867.07   867.93   868.03   887.95   898.32
eigval :      899.07   899.12   899.87   899.88   906.82   907.31
eigval :      910.41   913.98   914.00   914.92   915.10   919.18
eigval :      919.23   920.22   921.52   921.65   985.74   986.95
eigval :     1034.49  1051.12  1086.01  1086.02  1086.87  1087.17
eigval :     1112.54  1112.58  1118.86  1120.03  1125.09  1125.63
eigval :     1153.79  1169.90  1173.86  1174.11  1174.13  1178.77
eigval :     1190.18  1193.06  1208.18  1208.24  1212.46  1219.91
eigval :     1225.64  1228.12  1237.78  1238.00  1252.93  1255.67
eigval :     1256.43  1257.04  1281.17  1304.49  1306.55  1310.83
eigval :     1313.63  1317.39  1318.06  1336.05  1338.69  1338.92
eigval :     1348.08  1359.64  1412.71  1417.07  1417.21  1420.57
eigval :     1424.39  1438.88  1442.14  1448.26  1450.71  1450.87
eigval :     1466.01  1466.11  1478.82  1479.30  1530.31  1542.86
eigval :     1555.46  1555.48  1562.21  1562.21  1575.44  1576.97
eigval :     1579.46  1587.36  1593.50  3072.20  3072.26  3076.77
eigval :     3076.90  3095.11  3095.14  3095.75  3095.76  3100.26
eigval :     3101.08  3104.19  3104.26  3104.45  3104.58  3114.30
eigval :     3114.32  3114.83  3114.85  3115.47  3115.91  3115.99
eigval :     3116.39  3116.47  3116.78

   temp. (K)  partition function   enthalpy   heat capacity  entropy
                                   cal/mol     cal/K/mol   cal/K/mol   J/K/mol
 298.15  VIB  0.479E+16            20135.187    129.168    124.692
         ROT  0.107E+09              888.752      2.981     39.717
         INT  0.511E+24            21023.939    132.149    164.408
         TR   0.137E+29             1481.254      4.968     44.961
         TOT                       22505.1930   137.1173   209.3692   876.0009

       T/K    H(0)-H(T)+PV         H(T)/Eh          T*S/Eh         G(T)/Eh
   ------------------------------------------------------------------------
    298.15    0.358643E-01    0.544561E+00    0.994781E-01    0.445083E+00
   ------------------------------------------------------------------------

         :::::::::::::::::::::::::::::::::::::::::::::::::::::
         ::                  THERMODYNAMIC                  ::
         :::::::::::::::::::::::::::::::::::::::::::::::::::::
         :: total free energy        -117.036483264770 Eh   ::
         ::.................................................::
         :: total energy             -117.481566497848 Eh   ::
         :: zero point energy           0.508697009380 Eh   ::
         :: G(RRHO) w/o ZPVE           -0.063613776302 Eh   ::
         :: G(RRHO) contrib.            0.445083233078 Eh   ::
         :::::::::::::::::::::::::::::::::::::::::::::::::::::

           -------------------------------------------------
          | TOTAL ENERGY             -117.481566497848 Eh   |
          | TOTAL ENTHALPY           -116.937005180562 Eh   |
          | TOTAL FREE ENERGY        -117.036483264770 Eh   |
          | GRADIENT NORM               0.000066791094 Eh/α |
           -------------------------------------------------

 * finished run on 2025/07/17 at 01:57:17.038
