   * xtb version 6.7.1 (edcfbbe) compiled by 'albert@albert-system' on 2024-07-22

   ID    Z sym.   atoms
    1    6 C      1-6, 8-13, 15-19, 22-26, 28-33, 35-42, 44, 45
    2    8 O      7, 34, 43
    3    7 N      14, 20, 21, 27
    4    1 H      46-69

          program call               : xtb data2507/gas/2PXZ-OXD/2PXZ-OXD_gas_T1_crest.xyz --gfn 2 --spinpol --tblite --uhf 2 --ohess vtight --parallel 40 --molden --ceasefiles --namespace data2507/gas/2PXZ-OXD/2PXZ-OXD_gas_T1_finalOpt
 * total energy  :  -117.4815521 Eh     change       -0.2590734E-07 Eh
 * total energy  :  -117.4815577 Eh     change       -0.5598629E-05 Eh
 * total energy  :  -117.4815598 Eh     change       -0.2019449E-05 Eh
 * total energy  :  -117.4815608 Eh     change       -0.9919849E-06 Eh
 * total energy  :  -117.4815618 Eh     change       -0.1031258E-05 Eh
 * total energy  :  -117.4815633 Eh     change       -0.1496108E-05 Eh
 * total energy  :  -117.4815649 Eh     change       -0.1582937E-05 Eh
 * total energy  :  -117.4815658 Eh     change       -0.9790440E-06 Eh
 * total energy  :  -117.4815663 Eh     change       -0.4414696E-06 Eh
 * total energy  :  -117.4815665 Eh     change       -0.2538452E-06 Eh
 * total energy  :  -117.4815668 Eh     change       -0.2937458E-06 Eh
 * total energy  :  -117.4815670 Eh     change       -0.2073291E-06 Eh
 * total energy  :  -117.4815670 Eh     change        0.4044833E-07 Eh
 * total energy  :  -117.4815671 Eh     change       -0.5338360E-07 Eh
   *** GEOMETRY OPTIMIZATION CONVERGED AFTER 14 ITERATIONS ***

 final structure:
================
69
 xtb: 6.7.1 (edcfbbe)
C           -7.97829188615965       -3.99208624416987       -0.13406147059839
C           -6.67257272768518       -3.77300202181390        0.26942491880451
C           -6.14498829468890       -2.49461595300956        0.27721567131983
C           -6.91288031706140       -1.40568529114821       -0.13204329050717
C           -8.24871418674525       -1.63533472718124       -0.50242948403260
C           -8.76883357767679       -2.91835648787376       -0.50940001545443
O           -9.09429574255735       -0.61832194309174       -0.84934553576491
C           -8.59442963266562        0.65460229922056       -0.83710647118057
C           -9.45979366669815        1.67516200621870       -1.19257175046003
C           -9.01059282228229        2.98467248203178       -1.23734604440456
C           -7.68678336358993        3.26480906840504       -0.94615576184191
C           -6.81645233047599        2.25122111590027       -0.58852622517285
C           -7.25821693924547        0.93202222959514       -0.50270624779402
N           -6.41241484474428       -0.10988598677311       -0.14283430603457
C           -5.06838079471781        0.14352466538626        0.20546069117965
C           -4.76557248996076        0.95380978745196        1.31277527392925
C           -3.46569214002926        1.19636945871906        1.65718251221163
C           -2.40491905371012        0.64743094948740        0.89416362929809
C           -1.07342090061799        0.91305948143162        1.24869159180417
N           -0.65003149605872        1.65528168605114        2.27225248488914
N            0.64923448164233        1.65638727360651        2.27137027087402
C            1.07249914036741        0.91471517938997        1.24735423559380
C            2.40407019404401        0.65048551345965        0.89185919984956
C            2.72230232554081       -0.16415929487889       -0.22282393604476
C            4.02657211275290       -0.41260859885480       -0.55206534818563
C            5.06758587332510        0.14831883283942        0.20249716447216
N            6.41182658138133       -0.10457809326656       -0.14574347715012
C            7.25511808039176        0.93684782075157       -0.51265710581582
C            6.81033949133282        2.25447931467084       -0.60635445057563
C            7.67807037882799        3.26766919739008       -0.97137673908889
C            9.00218341240682        2.98854756330853       -1.26216472649512
C            9.45441662686878        1.68037189439654       -1.20917009662439
C            8.59170178285613        0.66022310276338       -0.84618980334186
O            9.09449342412418       -0.61162194673944       -0.84997931500334
C            8.25143345293513       -1.62820152309831       -0.49563587707098
C            8.77458769983167       -2.90999888979383       -0.49358990431326
C            7.98654898344392       -3.98295166472233       -0.11080280120708
C            6.68017697816226       -3.76422272124289        0.29074277451983
C            6.14958103931166       -2.48704971957734        0.28964134506925
C            6.91511137808587       -1.39915739367821       -0.12667349994349
C            4.76461241851018        0.96251516445451        1.30685440611903
C            3.46466131343785        1.20399575826113        1.65180767292497
O           -0.00046783443221        0.40059634906796        0.55002002773678
C           -2.72296096687243       -0.16387630926569       -0.22302144546402
C           -4.02710500130250       -0.41288039592035       -0.55216802534130
H           -8.38870544275232       -4.98923682536471       -0.14450718028937
H           -6.05656284013468       -4.59977271014433        0.58712098832310
H           -5.13336073188981       -2.33051868019087        0.61149651600215
H           -9.79683187451321       -3.05129750052050       -0.80596015135688
H          -10.47849029507004        1.41955156298845       -1.43616760661330
H           -9.69053851987699        3.77530233476544       -1.51197006095891
H           -7.32146715729671        4.27840464782161       -1.00099415479524
H           -5.78290259512659        2.47636281365879       -0.38096066378933
H           -5.57574057877164        1.36077931119473        1.90080169981080
H           -3.21414847776129        1.79914745641506        2.51450003993459
H            1.91800976637669       -0.57642067058952       -0.81205626586145
H            4.26990679097093       -1.02308402778697       -1.41029649473724
H            5.77651003925443        2.47858738035632       -0.39902498884361
H            7.31045919321681        4.28007332076889       -1.03245820251056
H            9.68003779812639        3.77885412758473       -1.54282332164562
H           10.47349042192841        1.42549682337505       -1.45195973765051
H            9.80293156278930       -3.04258392667142       -0.78911078227349
H            8.39939102542029       -4.97914764803501       -0.11407120038181
H            6.06603938852666       -4.59025747442155        0.61393332854802
H            5.13744520070783       -2.32298678701339        0.62241071977216
H            5.57472871952674        1.37327525615159        1.89230189812457
H            3.21293675377569        1.80944194244168        2.50718297636294
H           -1.91855903387266       -0.57270841262164       -0.81449697901858
H           -4.27022305365681       -1.02024775452155       -1.41266671793638

 projected vibrational frequencies (cm⁻¹)
eigval :       -0.00    -0.00    -0.00     0.00     0.00     0.00
eigval :        9.20    11.36    15.27    23.28    29.98    39.97
eigval :       44.31    59.20    63.55    68.31    78.09   102.74
eigval :      107.23   110.88   120.37   121.85   128.75   168.72
eigval :      177.89   195.42   207.13   239.92   246.55   247.36
eigval :      253.82   272.22   276.70   280.25   324.46   344.30
eigval :      360.69   373.55   377.94   381.77   381.99   390.82
eigval :      402.42   418.88   422.68   425.40   433.74   434.32
eigval :      453.78   457.60   466.05   467.24   472.12   502.42
eigval :      502.44   503.99   527.74   528.13   536.70   541.16
eigval :      569.68   583.17   586.28   588.30   601.38   604.09
eigval :      605.51   649.04   649.65   655.86   661.54   665.98
eigval :      667.94   669.37   669.42   682.19   700.07   714.45
eigval :      777.60   777.69   779.12   779.18   799.54   799.59
eigval :      799.88   800.00   839.51   841.66   856.08   856.14
eigval :      866.98   867.02   867.86   867.99   888.10   898.50
eigval :      899.04   899.09   899.85   899.98   906.78   907.28
eigval :      910.43   913.94   914.07   914.93   915.20   919.11
eigval :      919.18   920.23   921.53   921.72   985.99   987.31
eigval :     1035.09  1050.62  1085.73  1086.11  1086.16  1087.29
eigval :     1112.48  1112.57  1119.45  1120.09  1125.07  1125.26
eigval :     1152.72  1169.51  1173.61  1173.94  1174.01  1178.50
eigval :     1190.02  1192.87  1208.26  1208.34  1211.71  1218.27
eigval :     1226.18  1227.26  1237.68  1237.79  1253.25  1253.93
eigval :     1256.51  1256.81  1280.32  1304.41  1306.53  1310.69
eigval :     1313.44  1317.41  1318.04  1336.04  1338.63  1338.68
eigval :     1347.99  1359.66  1412.22  1416.82  1416.94  1420.50
eigval :     1424.41  1438.22  1441.88  1448.12  1450.55  1450.71
eigval :     1465.94  1466.07  1479.36  1482.20  1530.12  1542.81
eigval :     1555.40  1555.44  1562.13  1562.18  1575.36  1576.75
eigval :     1579.45  1587.90  1593.39  3072.06  3072.21  3076.37
eigval :     3076.63  3094.84  3094.98  3095.48  3095.61  3099.54
eigval :     3101.00  3103.93  3104.04  3104.27  3104.37  3113.90
eigval :     3114.06  3114.48  3114.63  3114.98  3115.76  3115.88
eigval :     3116.03  3116.29  3116.69

   temp. (K)  partition function   enthalpy   heat capacity  entropy
                                   cal/mol     cal/K/mol   cal/K/mol   J/K/mol
 298.15  VIB  0.501E+16            20138.470    129.155    124.741
         ROT  0.107E+09              888.752      2.981     39.717
         INT  0.535E+24            21027.223    132.136    164.458
         TR   0.137E+29             1481.254      4.968     44.961
         TOT                       22508.4766   137.1043   209.4192   876.2101

       T/K    H(0)-H(T)+PV         H(T)/Eh          T*S/Eh         G(T)/Eh
   ------------------------------------------------------------------------
    298.15    0.358695E-01    0.544531E+00    0.995018E-01    0.445029E+00
   ------------------------------------------------------------------------

         :::::::::::::::::::::::::::::::::::::::::::::::::::::
         ::                  THERMODYNAMIC                  ::
         :::::::::::::::::::::::::::::::::::::::::::::::::::::
         :: total free energy        -117.036538106857 Eh   ::
         ::.................................................::
         :: total energy             -117.481567095251 Eh   ::
         :: zero point energy           0.508661287647 Eh   ::
         :: G(RRHO) w/o ZPVE           -0.063632299254 Eh   ::
         :: G(RRHO) contrib.            0.445028988393 Eh   ::
         :::::::::::::::::::::::::::::::::::::::::::::::::::::

           -------------------------------------------------
          | TOTAL ENERGY             -117.481567095251 Eh   |
          | TOTAL ENTHALPY           -116.937036266962 Eh   |
          | TOTAL FREE ENERGY        -117.036538106857 Eh   |
          | GRADIENT NORM               0.000048448683 Eh/α |
           -------------------------------------------------

 * finished run on 2025/07/17 at 02:01:47.074
