   * xtb version 6.7.1 (edcfbbe) compiled by 'albert@albert-system' on 2024-07-22

   ID    Z sym.   atoms
    1    6 C      1-6, 8-13, 15-19, 22-26, 28-33, 35-42, 44, 45
    2    8 O      7, 34, 43
    3    7 N      14, 20, 21, 27
    4    1 H      46-69

          program call               : xtb data2507/gas/2PXZ-OXD/2PXZ-OXD.xyz --gfn 2 --ohess vtight --parallel 40 --molden --ceasefiles --namespace data2507/gas/2PXZ-OXD/2PXZ-OXD_gas_S0_preOpt
          :  Hamiltonian                  GFN2-xTB          :
 * total energy  :  -117.5323514 Eh     change       -0.3213600E-08 Eh
 * total energy  :  -117.5446149 Eh     change       -0.1226354E-01 Eh
 * total energy  :  -117.5485938 Eh     change       -0.3978896E-02 Eh
 * total energy  :  -117.5499638 Eh     change       -0.1369926E-02 Eh
 * total energy  :  -117.5507884 Eh     change       -0.8246650E-03 Eh
 * total energy  :  -117.5511798 Eh     change       -0.3914024E-03 Eh
 * total energy  :  -117.5513628 Eh     change       -0.1829328E-03 Eh
 * total energy  :  -117.5514416 Eh     change       -0.7884175E-04 Eh
 * total energy  :  -117.5514881 Eh     change       -0.4648032E-04 Eh
 * total energy  :  -117.5515085 Eh     change       -0.2039146E-04 Eh
 * total energy  :  -117.5544807 Eh     change       -0.7237946E-06 Eh
 * total energy  :  -117.5544815 Eh     change       -0.7255098E-06 Eh
 * total energy  :  -117.5544822 Eh     change       -0.7249849E-06 Eh
 * total energy  :  -117.5544829 Eh     change       -0.7267117E-06 Eh
 * total energy  :  -117.5544836 Eh     change       -0.7242784E-06 Eh
 * total energy  :  -117.5544844 Eh     change       -0.7226970E-06 Eh
 * total energy  :  -117.5544851 Eh     change       -0.7189025E-06 Eh
 * total energy  :  -117.5544858 Eh     change       -0.7152373E-06 Eh
 * total energy  :  -117.5544858 Eh     change       -0.6217448E-08 Eh
   *** GEOMETRY OPTIMIZATION CONVERGED AFTER 152 ITERATIONS ***

 final structure:
================
69
 xtb: 6.7.1 (edcfbbe)
C           -8.09516892771486       -3.72478095187632       -1.14279703482486
C           -6.80587809695061       -3.68138178175440       -0.65266263017484
C           -6.22917439623100       -2.47002985977983       -0.30218063644016
C           -6.92969054509858       -1.27927984055559       -0.44789090537290
C           -8.25076962111180       -1.33850127743813       -0.91124152482645
C           -8.82030200492930       -2.54860250663870       -1.26173124505489
O           -9.04326505662877       -0.22413925373572       -1.02339037188983
C           -8.49384694420296        0.98234701355769       -0.66866608953155
C           -9.30098193446069        2.09769850457520       -0.79612547211076
C           -8.80797181513867        3.35774862021752       -0.49219633793729
C           -7.49812551522602        3.49301516851025       -0.07948469725112
C           -6.68525274960998        2.37741216959923        0.05227215642403
C           -7.17365536695991        1.10472940890376       -0.21547084887487
N           -6.38023665471030       -0.04168287677290       -0.09953486881890
C           -5.04856447433641        0.05365151176840        0.34560617563864
C           -4.76907208020869        0.53909196397850        1.62372210483872
C           -3.46561974127121        0.65138667379110        2.05443198066366
C           -2.41683812185772        0.27838755133824        1.21126960757671
C           -1.05804783025564        0.42866939122458        1.66709734652218
N           -0.66847955843207        0.87696559823808        2.82664507010202
N            0.66770468559197        0.87667254819731        2.82704673101235
C            1.05777474804802        0.42818432727412        1.66774319481554
C            2.41677480939736        0.27750172621005        1.21266399216443
C            2.69574783183083       -0.21921786301338       -0.06078440165869
C            4.00176054563688       -0.33021095986555       -0.48851048492413
C            5.04883701493304        0.05327256650057        0.34793596616549
N            6.38065845398800       -0.04100556368385       -0.09701723494885
C            7.17255924090322        1.10631643095274       -0.21440691015072
C            6.68290946796363        2.37856482495891        0.05311914472090
C            7.49429504713226        3.49507316674645       -0.08012735375019
C            8.80386743244566        3.36115419223829       -0.49413670517767
C            9.29809599682925        2.10151539241382       -0.79779529802793
C            8.49245605911464        0.98525753762523       -0.66881924772807
O            9.04301357824682       -0.22078160018922       -1.02331390613729
C            8.25193679610919       -1.33602198708663       -0.90986785924687
C            8.82252981850313       -2.54563918485736       -1.26029411903568
C            8.09884662473249       -3.72258617594529       -1.14009796301209
C            6.80995345463496       -3.68043017758347       -0.64880397509544
C            6.23217583070517       -2.46956533826746       -0.29840065768232
C            6.93121654210220       -1.27810139591052       -0.44533538425107
C            4.76878646195192        0.53911917707216        1.62577117388510
C            3.46515898051015        0.65115204288592        2.05602926421868
O            0.00003395782212        0.11995998178937        0.87813301538014
C           -2.69522660859621       -0.21753900300095       -0.06261481692658
C           -4.00106502468328       -0.32874282003196       -0.49081646265722
H           -8.54684089252583       -4.66366534718775       -1.42131123307733
H           -6.23599544239618       -4.58991028701280       -0.53310360246110
H           -5.22763799326907       -2.45346848959121        0.09815519480134
H           -9.83710508137780       -2.54855838252837       -1.62046517935669
H          -10.31269378412191        1.95786600932814       -1.14176740431662
H           -9.44575364469094        4.22167111519435       -0.59181539112790
H           -7.09231966201102        4.46828091171591        0.14082583170271
H           -5.65851638341938        2.50194472947026        0.35832816403363
H           -5.58514524114947        0.82123085180799        2.27195931072292
H           -3.23073691284001        1.02179420016644        3.03923494284176
H            1.88414898999700       -0.50437885400923       -0.71300232083139
H            4.22227031900082       -0.70234984843883       -1.47806071493190
H            5.65634623700241        2.50206059359434        0.36016661642606
H            7.08752801270164        4.46997150040505        0.14003821959121
H            9.44048464848325        4.22579492781052       -0.59496412781575
H           10.30961759487718        1.96270492805501       -1.14440431227225
H            9.83898975732997       -2.54461205809887       -1.61999926483591
H            8.55134150875876       -4.66108920819043       -1.41856467594399
H            6.24123856139593       -4.58956154995120       -0.52826974397384
H            5.23097233923882       -2.45389884862174        0.10281508103858
H            5.58456430694040        0.82191493563278        2.27409310721299
H            3.22983004692246        1.02199901083082        3.04056058052184
H           -1.88331944380800       -0.50201624420374       -0.71474841876793
H           -4.22112415156234       -0.70033366869693       -1.48067213977030

          :  Hamiltonian                  GFN2-xTB          :
         :: gradient norm              0.000063970782 Eh/a0 ::
         :: HOMO-LUMO gap              1.530903351081 eV    ::
         :: SCC energy              -119.505063981732 Eh    ::
         :: -> dispersion             -0.092479592802 Eh    ::
         :: repulsion energy           1.950578169282 Eh    ::

    * Orbital Energies and Occupations

         #    Occupation            Energy/Eh            Energy/eV
      -------------------------------------------------------------
         1        2.0000           -0.7709084             -20.9775
       ...           ...                  ...                  ...
        95        2.0000           -0.4247157             -11.5571
        96        2.0000           -0.4245160             -11.5517
        97        2.0000           -0.4232734             -11.5179
        98        2.0000           -0.4178420             -11.3701
        99        2.0000           -0.4178377             -11.3699
       100        2.0000           -0.4147592             -11.2862
       101        2.0000           -0.4147473             -11.2858
       102        2.0000           -0.4024334             -10.9508
       103        2.0000           -0.3924444             -10.6790
       104        2.0000           -0.3915706             -10.6552
       105        2.0000           -0.3890666             -10.5870
       106        2.0000           -0.3465339              -9.4297
       107        2.0000           -0.3454985              -9.4015 (HOMO)
       108                         -0.2892389              -7.8706 (LUMO)
       109                         -0.2656306              -7.2282
       110                         -0.2459097              -6.6915
       111                         -0.2459038              -6.6914
       112                         -0.2403567              -6.5404
       113                         -0.2403518              -6.5403
       114                         -0.2316339              -6.3031
       115                         -0.2316299              -6.3030
       116                         -0.2186758              -5.9505
       117                         -0.2176467              -5.9225
       118                         -0.2027537              -5.5172
       ...                                ...                  ...
       204                          0.6732543              18.3202
      -------------------------------------------------------------
                  HL-Gap            0.0562597 Eh            1.5309 eV

     #   Z          covCN         q      C6AA      α(0)
     1   6 C        2.919    -0.040    28.984     8.829
     2   6 C        2.919    -0.038    28.957     8.824
     3   6 C        2.924    -0.060    29.486     8.905
     4   6 C        2.922     0.042    27.060     8.531
     5   6 C        2.884     0.125    25.251     8.238
     6   6 C        2.920    -0.056    29.388     8.890
     7   8 O        1.709    -0.254    18.201     5.760
     8   6 C        2.884     0.125    25.253     8.238
     9   6 C        2.920    -0.056    29.386     8.889
    10   6 C        2.919    -0.039    28.980     8.828
    11   6 C        2.919    -0.038    28.950     8.823
    12   6 C        2.924    -0.060    29.487     8.905
    13   6 C        2.922     0.042    27.064     8.531
    14   7 N        2.751    -0.069    22.569     7.056
    15   6 C        2.921     0.071    26.420     8.429
    16   6 C        2.921    -0.037    28.925     8.820
    17   6 C        2.924    -0.028    28.702     8.786
    18   6 C        2.975    -0.007    28.199     8.710
    19   6 C        3.171     0.213    23.192     7.867
    20   7 N        2.048    -0.197    25.987     7.562
    21   7 N        2.048    -0.197    25.987     7.562
    22   6 C        3.171     0.213    23.192     7.867
    23   6 C        2.975    -0.007    28.199     8.710
    24   6 C        2.922    -0.027    28.670     8.781
    25   6 C        2.920    -0.040    28.988     8.829
    26   6 C        2.921     0.071    26.420     8.429
    27   7 N        2.751    -0.069    22.569     7.056
    28   6 C        2.922     0.042    27.064     8.531
    29   6 C        2.924    -0.060    29.487     8.905
    30   6 C        2.919    -0.038    28.950     8.823
    31   6 C        2.919    -0.039    28.980     8.828
    32   6 C        2.920    -0.056    29.386     8.889
    33   6 C        2.884     0.125    25.253     8.238
    34   8 O        1.709    -0.254    18.201     5.760
    35   6 C        2.884     0.125    25.251     8.238
    36   6 C        2.920    -0.056    29.388     8.890
    37   6 C        2.919    -0.040    28.984     8.829
    38   6 C        2.919    -0.038    28.957     8.824
    39   6 C        2.924    -0.060    29.486     8.905
    40   6 C        2.922     0.042    27.060     8.531
    41   6 C        2.921    -0.037    28.925     8.820
    42   6 C        2.924    -0.028    28.702     8.786
    43   8 O        1.721    -0.229    17.794     5.696
    44   6 C        2.922    -0.027    28.670     8.781
    45   6 C        2.920    -0.040    28.988     8.829
    46   1 H        0.926     0.039     2.460     2.453
    47   1 H        0.926     0.037     2.493     2.469
    48   1 H        0.926     0.034     2.524     2.484
    49   1 H        0.926     0.051     2.302     2.372
    50   1 H        0.926     0.052     2.301     2.372
    51   1 H        0.926     0.039     2.456     2.451
    52   1 H        0.926     0.038     2.481     2.463
    53   1 H        0.926     0.036     2.509     2.477
    54   1 H        0.926     0.052     2.300     2.371
    55   1 H        0.926     0.067     2.120     2.277
    56   1 H        0.926     0.049     2.326     2.385
    57   1 H        0.926     0.048     2.349     2.397
    58   1 H        0.926     0.036     2.509     2.477
    59   1 H        0.926     0.038     2.481     2.463
    60   1 H        0.926     0.039     2.456     2.451
    61   1 H        0.926     0.052     2.301     2.372
    62   1 H        0.926     0.051     2.302     2.372
    63   1 H        0.926     0.039     2.460     2.453
    64   1 H        0.926     0.037     2.493     2.469
    65   1 H        0.926     0.034     2.524     2.485
    66   1 H        0.926     0.052     2.299     2.371
    67   1 H        0.926     0.067     2.120     2.277
    68   1 H        0.926     0.049     2.326     2.385
    69   1 H        0.926     0.048     2.349     2.397

molecular dipole:
                 x           y           z       tot (Debye)
 q only:       -0.000      -0.153      -0.467
   full:       -0.000      -0.371      -0.978       2.658

 projected vibrational frequencies (cm⁻¹)
eigval :       -0.00    -0.00    -0.00    -0.00    -0.00     0.00
eigval :        8.28     8.81    14.35    24.11    26.56    36.10
eigval :       41.53    49.76    58.54    64.92    67.75    92.58
eigval :      105.04   107.00   117.98   121.96   124.56   178.55
eigval :      186.38   193.21   202.33   243.09   249.64   253.47
eigval :      254.81   270.25   274.14   281.50   332.88   354.00
eigval :      368.45   371.86   376.16   377.48   389.70   399.61
eigval :      401.65   422.19   423.61   430.20   431.24   432.36
eigval :      445.58   448.78   466.40   489.34   498.76   502.07
eigval :      509.92   509.99   522.63   522.77   548.98   552.18
eigval :      587.03   587.47   591.44   603.27   608.60   609.64
eigval :      653.57   658.95   661.63   661.66   661.76   666.69
eigval :      676.91   680.50   710.11   715.32   720.93   729.19
eigval :      779.14   779.21   779.35   779.47   802.47   804.02
eigval :      824.12   825.35   855.62   855.64   863.86   863.95
eigval :      866.60   866.67   876.12   876.80   897.58   897.62
eigval :      898.79   898.80   908.86   913.45   914.08   914.14
eigval :      915.31   915.31   917.22   917.30   925.47   925.94
eigval :      934.69   934.79   971.70   974.53  1009.07  1019.25
eigval :     1081.64  1090.57  1090.59  1091.73  1091.77  1097.75
eigval :     1108.65  1108.66  1121.06  1121.13  1126.41  1127.28
eigval :     1170.79  1170.85  1175.59  1175.60  1178.79  1180.76
eigval :     1185.19  1188.75  1190.78  1202.07  1202.12  1222.13
eigval :     1224.22  1243.07  1243.16  1258.12  1259.61  1262.20
eigval :     1262.29  1275.90  1299.01  1310.39  1310.55  1317.95
eigval :     1318.77  1320.37  1326.89  1339.04  1339.19  1355.66
eigval :     1355.86  1407.70  1408.44  1424.44  1424.49  1442.23
eigval :     1442.31  1460.50  1460.86  1487.55  1487.97  1503.33
eigval :     1504.12  1533.76  1535.40  1557.85  1560.32  1568.13
eigval :     1568.19  1580.62  1580.63  1585.28  1585.34  1591.20
eigval :     1591.39  1603.01  1603.01  3087.21  3087.56  3089.61
eigval :     3089.63  3090.45  3090.46  3093.05  3093.15  3098.49
eigval :     3099.02  3099.40  3099.44  3100.03  3100.05  3106.15
eigval :     3106.19  3107.46  3107.48  3113.53  3113.54  3114.07
eigval :     3114.12  3116.73  3116.86

   temp. (K)  partition function   enthalpy   heat capacity  entropy
                                   cal/mol     cal/K/mol   cal/K/mol   J/K/mol
 298.15  VIB  0.132E+17            20001.492    126.980    124.769
         ROT  0.108E+09              888.752      2.981     39.731
         INT  0.142E+25            20890.245    129.961    164.500
         TR   0.137E+29             1481.254      4.968     44.961
         TOT                       22371.4986   134.9287   209.4611   876.3854

       T/K    H(0)-H(T)+PV         H(T)/Eh          T*S/Eh         G(T)/Eh
   ------------------------------------------------------------------------
    298.15    0.356513E-01    0.548074E+00    0.995217E-01    0.448552E+00
   ------------------------------------------------------------------------

         :::::::::::::::::::::::::::::::::::::::::::::::::::::
         ::                  THERMODYNAMIC                  ::
         :::::::::::::::::::::::::::::::::::::::::::::::::::::
         :: total free energy        -117.105933484887 Eh   ::
         ::.................................................::
         :: total energy             -117.554485812450 Eh   ::
         :: zero point energy           0.512422825098 Eh   ::
         :: G(RRHO) w/o ZPVE           -0.063870497535 Eh   ::
         :: G(RRHO) contrib.            0.448552327563 Eh   ::
         :::::::::::::::::::::::::::::::::::::::::::::::::::::

           -------------------------------------------------
          | TOTAL ENERGY             -117.554485812450 Eh   |
          | TOTAL ENTHALPY           -117.006411734956 Eh   |
          | TOTAL FREE ENERGY        -117.105933484887 Eh   |
          | GRADIENT NORM               0.000063971678 Eh/α |
          | HOMO-LUMO GAP               1.530903423893 eV   |
           -------------------------------------------------

 * finished run on 2025/07/17 at 01:53:56.680
