   * xtb version 6.7.1 (edcfbbe) compiled by 'albert@albert-system' on 2024-07-22

   ID    Z sym.   atoms
    1    6 C      1-9, 11-14, 16-32, 34-39, 41-46, 48-51, 53-69, 71-76
    2    5 B      10, 47
    3    7 N      15, 52
    4    8 O      33, 40, 70, 77
    5    1 H      78-129

          program call               : xtb data2507/toluene/Me2ACBO/Me2ACBO.xyz --gfn 2 --gbsa toluene --ohess vtight --parallel 40 --molden --ceasefiles --namespace data2507/toluene/Me2ACBO/Me2ACBO_toluene_S0_preOpt
      * Solvation model:               GBSA
        Solvent                        toluene
        Solvent mass                       9.2140E+01 g/mol
          :  Hamiltonian                  GFN2-xTB          :
 * total energy  :  -198.9547210 Eh     change       -0.1513570E-08 Eh
 * total energy  :  -199.0254247 Eh     change       -0.7070370E-01 Eh
 * total energy  :  -199.0546102 Eh     change       -0.2918553E-01 Eh
 * total energy  :  -199.0662949 Eh     change       -0.1168470E-01 Eh
 * total energy  :  -199.0728269 Eh     change       -0.6531904E-02 Eh
 * total energy  :  -199.0769849 Eh     change       -0.4158076E-02 Eh
 * total energy  :  -199.0803023 Eh     change       -0.3317395E-02 Eh
 * total energy  :  -199.0833514 Eh     change       -0.3049068E-02 Eh
 * total energy  :  -199.0861961 Eh     change       -0.2844724E-02 Eh
 * total energy  :  -199.0887045 Eh     change       -0.2508403E-02 Eh
 * total energy  :  -199.1003688 Eh     change       -0.1087166E-05 Eh
 * total energy  :  -199.1003697 Eh     change       -0.9298264E-06 Eh
 * total energy  :  -199.1003704 Eh     change       -0.6658356E-06 Eh
 * total energy  :  -199.1003710 Eh     change       -0.6346589E-06 Eh
 * total energy  :  -199.1003714 Eh     change       -0.4194244E-06 Eh
 * total energy  :  -199.1003720 Eh     change       -0.5472353E-06 Eh
 * total energy  :  -199.1003726 Eh     change       -0.6067533E-06 Eh
 * total energy  :  -199.1003732 Eh     change       -0.6538554E-06 Eh
 * total energy  :  -199.1003732 Eh     change       -0.4091362E-08 Eh
   *** GEOMETRY OPTIMIZATION CONVERGED AFTER 300 ITERATIONS ***

 final structure:
================
129
 xtb: 6.7.1 (edcfbbe)
C            0.64446007409587        0.11084886460303       -0.92631031553698
C            0.00305988805058        1.15312370092000        0.00245390937971
C           -0.67804463175678        0.41196250323281        1.16318392727655
C            1.01413362198843        2.10893272905110        0.61737464821517
C            0.53597146551317        3.25198768807864        1.26695968472300
C            1.40360615678539        4.14924831570815        1.83986125401443
C            2.78166622196158        3.92187599430782        1.79499008729640
C            3.30330549767505        2.76233805179969        1.19380721090513
C            2.37609582146245        1.89092472613845        0.60063109787729
B            4.83823110383733        2.57799649011727        1.23923474736092
C            5.77657247211421        1.40925039751850        0.84042009366310
C            5.38933597629018        0.11835870295649        0.45408018693999
C            6.29416831518378       -0.85471623560800        0.09539529242203
C            7.65893612446351       -0.56707185830651        0.10734568793725
N            8.60398454760760       -1.56063323633282       -0.27241038438420
C            9.21298447707152       -2.32263358793885        0.71127843028369
C            8.87144738097136       -2.12153661361970        2.05226299884956
C            9.46228601473643       -2.86185599672463        3.05480456628711
C           10.40489557854799       -3.82306527894691        2.73648179638306
C           10.73556394860099       -4.03166821163357        1.40977163768491
C           10.15738492249365       -3.30093992481230        0.38064245838205
C           10.55850633450648       -3.58537132940449       -1.05525191277683
C           10.22821134363015       -5.05492463187202       -1.37789700647747
C           12.07101591441726       -3.33520673424776       -1.20490456596458
C            9.81989194284663       -2.69281494619062       -2.03568704320309
C           10.06746546849388       -2.81825533501893       -3.39597069829828
C            9.43092668305338       -2.02775001352736       -4.33566901024235
C            8.52032880700348       -1.07589847202334       -3.91312515509959
C            8.25616590196278       -0.92858572147447       -2.56746426402158
C            8.89308141686007       -1.73190364718724       -1.61644332547315
C            8.08966552381182        0.68287948776491        0.50502941964948
C            7.16265203794995        1.65703931442115        0.88387871295316
O            7.72741462170222        2.82592560076966        1.29230763366199
C            6.98367638931068        3.84700981536060        1.78753925460605
C            7.66546331823924        4.95180591575225        2.28450652006829
C            6.94357074707800        6.01120941151013        2.80768690484206
C            5.56082619605605        5.99057556364572        2.83699415393263
C            4.88593344366100        4.88667849965536        2.32404131308751
C            5.58190100228323        3.79000575984660        1.79207358679114
O            3.53382906578545        4.90773005349465        2.36426079650029
C           -0.96927123464003        1.95927538530625       -0.84551974906541
C           -0.44853456674557        2.90830932351909       -1.73144479867548
C           -1.28039689786031        3.65697122485900       -2.52742368251899
C           -2.66325512469747        3.46280370493741       -2.47815837594026
C           -3.22613529070732        2.48387365858625       -1.63954848148553
C           -2.33538014523727        1.76901513149911       -0.82316765274762
B           -4.76070857404119        2.30228873642566       -1.70574120708624
C           -5.73180884450847        1.26245213958250       -1.08763504111378
C           -5.37987251386186        0.09649102613608       -0.39309614423463
C           -6.31315173894681       -0.76398268491273        0.13884565742683
C           -7.67189538336844       -0.48500133281177       -0.00673506245968
N           -8.64675577069457       -1.36136096235050        0.54731752427133
C           -9.04538801843278       -1.17583902959163        1.86073354713578
C           -8.48181999316816       -0.14073545187771        2.61315582009363
C           -8.85601110532918        0.06928774471982        3.92395786256392
C           -9.80292702269190       -0.75199255037658        4.50932624475927
C          -10.36386401264482       -1.77440695619720        3.76551587749540
C          -10.00641665453331       -2.00856871378466        2.44465941628752
C          -10.66214411868130       -3.14514584377660        1.68179276260492
C          -10.35645099999425       -4.46851550660443        2.40852884687429
C          -12.18238295777674       -2.90055576183015        1.64052751421716
C          -10.14524836568245       -3.24237266926808        0.25796801220365
C          -10.63884699770771       -4.23000708507615       -0.58360803250904
C          -10.20088973033003       -4.37182584588088       -1.88793728211013
C           -9.23725738600000       -3.50712904062201       -2.37531127150332
C           -8.72925853481352       -2.51654160286615       -1.56111702696271
C           -9.17559998638643       -2.36732190697731       -0.24439255477761
C           -8.06744185468485        0.63829706629305       -0.70485915857345
C           -7.11105054121994        1.49616764231093       -1.25372241464885
O           -7.64128001513363        2.53918711779180       -1.94849814191137
C           -6.86268176326956        3.41318239347609       -2.63459216854109
C           -7.50709083602994        4.37239906888992       -3.40722308741516
C           -6.74879306740024        5.27780600270262       -4.13001318259657
C           -5.36649259901318        5.24589265143063       -4.09126627960046
C           -4.72976368997272        4.29013130225629       -3.30503387407797
C           -5.46298165539824        3.35214232745019       -2.56166151895471
O           -3.37706869403232        4.29338819457047       -3.29190062998676
H            1.24518168661916        0.58880668577019       -1.69614206344907
H           -0.14019606623308       -0.46235887326573       -1.41673532426974
H            1.26550749696369       -0.58081763279226       -0.36257607528529
H            0.08424507595062       -0.03403887379991        1.79941162194534
H           -1.31659021250883       -0.38602557976011        0.79275925718338
H           -1.27002037093183        1.09233426028480        1.77009209293325
H           -0.52620624139444        3.44495816523101        1.29903186428837
H            1.04504828190109        5.04616161866364        2.32224564797125
H            2.76560990548095        1.02594369149305        0.09398821866265
H            4.34107875032592       -0.12926794789817        0.45646491829791
H            5.96365973748571       -1.84021184731114       -0.19703170934823
H            8.13348210272188       -1.37634527441824        2.30684524195771
H            9.18356898604070       -2.68615839279407        4.08371410011100
H           10.87647830956143       -4.40840212789868        3.51172231600266
H           11.46778702491584       -4.78970309387918        1.17553874632150
H           10.50841308124117       -5.29991295988679       -2.39864234703178
H            9.15936372176549       -5.22848870943765       -1.26388910902156
H           10.75809008093563       -5.72744938523964       -0.70904260366093
H           12.63745489259307       -3.96347423471579       -0.52301324240531
H           12.40080078709461       -3.54840105907653       -2.21794244915051
H           12.29816423844798       -2.29394334398774       -0.98181647991937
H           10.77902741736838       -3.55366506851394       -3.74024804109099
H            9.64715282422165       -2.15358099938303       -5.38607122178405
H            8.01468962078165       -0.44453057632297       -4.62925143023091
H            7.54842473873252       -0.18089792294928       -2.24359449448715
H            9.14252574540104        0.91838913586531        0.54292293472523
H            8.74362321643954        4.96447885711458        2.26167156988832
H            7.46971734928808        6.86820571269932        3.20012704463257
H            4.99568522499965        6.81435850324823        3.24348861208178
H            0.61825388878161        3.07097803146747       -1.77607017636741
H           -0.88943313354359        4.40926818350223       -3.19591317085258
H           -2.75686593743206        1.05387422265944       -0.13920873163939
H           -4.33590945935453       -0.14617920039855       -0.28623368721951
H           -6.01012337372737       -1.65478222905416        0.66854604326167
H           -7.74457134021175        0.50443314527172        2.16031630238035
H           -8.40666924527311        0.87550142325214        4.48545904341742
H          -10.10480965855193       -0.59878292777410        5.53466578997675
H          -11.10283595152447       -2.40614948749529        4.23505297654429
H           -9.28110593894688       -4.63711529178039        2.43502926956497
H          -10.72497959363892       -4.44360128927232        3.43031898537697
H          -10.82258887808284       -5.30723346494346        1.89887865499196
H          -12.59211238035738       -2.83357376165331        2.64459776791356
H          -12.39398457708526       -1.96759969026036        1.12048598932865
H          -12.69062331071165       -3.70669509933477        1.11868564687673
H          -11.38886657056708       -4.91414127199664       -0.21608437228609
H          -10.60774622601168       -5.15118724987027       -2.51491073600737
H           -8.87785648216337       -3.60159357335626       -3.38978259691878
H           -7.97568717748559       -1.84649726959546       -1.94586762207908
H           -9.11412997833604        0.86079209638366       -0.84759954914281
H           -8.58498127416702        4.39295729549875       -3.43687874031672
H           -7.24558735514617        6.02096079756451       -4.73518331135401
H           -4.77280190296116        5.94947017419168       -4.65322096775038

          :  Hamiltonian                  GFN2-xTB          :
         :: gradient norm              0.000047521297 Eh/a0 ::
         :: HOMO-LUMO gap              1.786357901729 eV    ::
         :: SCC energy              -202.481065643966 Eh    ::
         :: -> dispersion             -0.184521928208 Eh    ::
         :: -> Gsolv                  -0.076187566383 Eh    ::
         :: repulsion energy           3.380692398018 Eh    ::

    * Orbital Energies and Occupations

         #    Occupation            Energy/Eh            Energy/eV
      -------------------------------------------------------------
         1        2.0000           -0.7363443             -20.0369
       ...           ...                  ...                  ...
       172        2.0000           -0.3984372             -10.8420
       173        2.0000           -0.3966175             -10.7925
       174        2.0000           -0.3958762             -10.7723
       175        2.0000           -0.3958477             -10.7716
       176        2.0000           -0.3928527             -10.6901
       177        2.0000           -0.3928038             -10.6887
       178        2.0000           -0.3905264             -10.6268
       179        2.0000           -0.3904887             -10.6257
       180        2.0000           -0.3901096             -10.6154
       181        2.0000           -0.3733621             -10.1597
       182        2.0000           -0.3706937             -10.0871
       183        2.0000           -0.3440412              -9.3618
       184        2.0000           -0.3439638              -9.3597 (HOMO)
       185                         -0.2783164              -7.5734 (LUMO)
       186                         -0.2772755              -7.5451
       187                         -0.2399296              -6.5288
       188                         -0.2398082              -6.5255
       189                         -0.2343030              -6.3757
       190                         -0.2330750              -6.3423
       191                         -0.2306263              -6.2757
       192                         -0.2294999              -6.2450
       193                         -0.2220456              -6.0422
       194                         -0.2219859              -6.0405
       195                         -0.2184638              -5.9447
       ...                                ...                  ...
       360                          0.6952901              18.9198
      -------------------------------------------------------------
                  HL-Gap            0.0656474 Eh            1.7864 eV

     #   Z          covCN         q      C6AA      α(0)
     1   6 C        3.762    -0.107    22.589     6.775
     2   6 C        3.909     0.018    20.208     6.389
     3   6 C        3.762    -0.107    22.589     6.775
     4   6 C        2.974     0.005    27.905     8.665
     5   6 C        2.926    -0.030    28.760     8.795
     6   6 C        2.913    -0.055    29.363     8.886
     7   6 C        2.876     0.134    25.071     8.208
     8   6 C        2.882    -0.091    30.293     9.023
     9   6 C        2.928    -0.044    29.092     8.845
    10   5 B        2.723     0.212    18.205     7.150
    11   6 C        2.882    -0.090    30.263     9.019
    12   6 C        2.924    -0.032    28.806     8.802
    13   6 C        2.916    -0.050    29.234     8.866
    14   6 C        2.927     0.074    26.357     8.419
    15   7 N        2.754    -0.075    22.695     7.075
    16   6 C        2.928     0.059    26.670     8.469
    17   6 C        2.924    -0.061    29.505     8.908
    18   6 C        2.919    -0.035    28.880     8.813
    19   6 C        2.917    -0.047    29.175     8.857
    20   6 C        2.928    -0.038    28.948     8.823
    21   6 C        2.979    -0.015    28.376     8.738
    22   6 C        3.908     0.021    20.168     6.383
    23   6 C        3.761    -0.103    22.519     6.765
    24   6 C        3.761    -0.103    22.514     6.764
    25   6 C        2.979    -0.015    28.376     8.738
    26   6 C        2.928    -0.038    28.947     8.823
    27   6 C        2.917    -0.047    29.175     8.857
    28   6 C        2.919    -0.035    28.880     8.813
    29   6 C        2.924    -0.061    29.506     8.908
    30   6 C        2.928     0.059    26.669     8.469
    31   6 C        2.918    -0.063    29.573     8.918
    32   6 C        2.875     0.139    24.963     8.190
    33   8 O        1.711    -0.232    17.850     5.704
    34   6 C        2.874     0.138    24.993     8.195
    35   6 C        2.912    -0.068    29.684     8.934
    36   6 C        2.923    -0.026    28.657     8.779
    37   6 C        2.912    -0.068    29.684     8.934
    38   6 C        2.874     0.139    24.965     8.191
    39   6 C        2.888    -0.121    31.069     9.138
    40   8 O        1.711    -0.234    17.884     5.710
    41   6 C        2.975     0.005    27.905     8.665
    42   6 C        2.926    -0.031    28.765     8.795
    43   6 C        2.913    -0.055    29.363     8.886
    44   6 C        2.876     0.134    25.070     8.208
    45   6 C        2.882    -0.091    30.290     9.023
    46   6 C        2.928    -0.044    29.085     8.844
    47   5 B        2.723     0.213    18.204     7.149
    48   6 C        2.882    -0.090    30.260     9.018
    49   6 C        2.924    -0.032    28.804     8.801
    50   6 C        2.916    -0.050    29.232     8.866
    51   6 C        2.927     0.074    26.355     8.419
    52   7 N        2.755    -0.075    22.699     7.076
    53   6 C        2.928     0.059    26.669     8.469
    54   6 C        2.924    -0.061    29.507     8.908
    55   6 C        2.919    -0.035    28.880     8.813
    56   6 C        2.917    -0.047    29.176     8.858
    57   6 C        2.928    -0.038    28.948     8.823
    58   6 C        2.979    -0.015    28.377     8.738
    59   6 C        3.908     0.021    20.168     6.383
    60   6 C        3.761    -0.103    22.518     6.765
    61   6 C        3.761    -0.103    22.514     6.764
    62   6 C        2.979    -0.015    28.377     8.738
    63   6 C        2.928    -0.038    28.948     8.823
    64   6 C        2.917    -0.047    29.177     8.858
    65   6 C        2.919    -0.035    28.880     8.813
    66   6 C        2.924    -0.061    29.506     8.908
    67   6 C        2.928     0.059    26.669     8.469
    68   6 C        2.918    -0.063    29.571     8.917
    69   6 C        2.875     0.139    24.962     8.190
    70   8 O        1.712    -0.232    17.848     5.704
    71   6 C        2.874     0.138    24.993     8.195
    72   6 C        2.912    -0.068    29.684     8.934
    73   6 C        2.922    -0.026    28.657     8.779
    74   6 C        2.912    -0.068    29.684     8.934
    75   6 C        2.874     0.139    24.964     8.191
    76   6 C        2.888    -0.121    31.068     9.138
    77   8 O        1.711    -0.234    17.882     5.710
    78   1 H        0.925     0.041     2.437     2.441
    79   1 H        0.925     0.041     2.439     2.442
    80   1 H        0.925     0.047     2.364     2.404
    81   1 H        0.925     0.041     2.441     2.443
    82   1 H        0.925     0.046     2.365     2.405
    83   1 H        0.925     0.041     2.435     2.440
    84   1 H        0.926     0.039     2.463     2.454
    85   1 H        0.926     0.042     2.421     2.433
    86   1 H        0.926     0.055     2.256     2.349
    87   1 H        0.926     0.056     2.241     2.341
    88   1 H        0.926     0.045     2.378     2.411
    89   1 H        0.926     0.023     2.688     2.564
    90   1 H        0.926     0.025     2.652     2.547
    91   1 H        0.926     0.024     2.667     2.554
    92   1 H        0.926     0.031     2.569     2.507
    93   1 H        0.925     0.041     2.435     2.440
    94   1 H        0.925     0.030     2.587     2.515
    95   1 H        0.925     0.041     2.437     2.441
    96   1 H        0.925     0.041     2.438     2.442
    97   1 H        0.925     0.041     2.437     2.441
    98   1 H        0.925     0.029     2.600     2.522
    99   1 H        0.926     0.031     2.571     2.508
   100   1 H        0.926     0.024     2.667     2.554
   101   1 H        0.926     0.026     2.644     2.543
   102   1 H        0.926     0.024     2.669     2.555
   103   1 H        0.926     0.050     2.317     2.380
   104   1 H        0.926     0.049     2.337     2.390
   105   1 H        0.926     0.050     2.322     2.383
   106   1 H        0.926     0.049     2.336     2.390
   107   1 H        0.926     0.039     2.465     2.455
   108   1 H        0.926     0.042     2.421     2.433
   109   1 H        0.926     0.055     2.257     2.349
   110   1 H        0.926     0.056     2.241     2.341
   111   1 H        0.926     0.045     2.377     2.411
   112   1 H        0.926     0.024     2.673     2.557
   113   1 H        0.926     0.026     2.646     2.544
   114   1 H        0.926     0.024     2.667     2.554
   115   1 H        0.926     0.031     2.572     2.508
   116   1 H        0.925     0.030     2.587     2.515
   117   1 H        0.925     0.041     2.435     2.440
   118   1 H        0.925     0.041     2.437     2.441
   119   1 H        0.925     0.041     2.437     2.441
   120   1 H        0.925     0.029     2.600     2.522
   121   1 H        0.925     0.041     2.438     2.442
   122   1 H        0.926     0.031     2.570     2.507
   123   1 H        0.926     0.024     2.668     2.554
   124   1 H        0.926     0.025     2.652     2.547
   125   1 H        0.926     0.023     2.688     2.564
   126   1 H        0.926     0.050     2.316     2.380
   127   1 H        0.926     0.049     2.336     2.390
   128   1 H        0.926     0.050     2.321     2.383
   129   1 H        0.926     0.049     2.336     2.390

molecular dipole:
                 x           y           z       tot (Debye)
 q only:       -0.005      -0.408       0.077
   full:        0.003      -0.077       0.032       0.213

 projected vibrational frequencies (cm⁻¹)
eigval :       -0.00    -0.00    -0.00    -0.00     0.00     0.00
eigval :        2.51     5.51     7.94    10.24    11.10    18.40
eigval :       19.97    20.26    22.27    27.03    33.31    41.08
eigval :       46.00    58.37    62.25    71.65    73.35    75.76
eigval :       83.96    96.61    99.63   101.14   103.91   109.24
eigval :      118.50   119.37   129.16   129.39   136.15   141.61
eigval :      148.29   156.56   159.56   191.97   193.59   198.73
eigval :      199.50   219.58   220.66   221.87   222.46   225.06
eigval :      227.33   237.84   238.74   240.35   241.73   255.77
eigval :      258.83   265.91   273.38   280.91   293.19   296.13
eigval :      298.11   307.61   313.14   315.45   320.88   323.14
eigval :      330.35   330.86   331.45   344.71   346.08   350.36
eigval :      359.71   375.64   376.66   380.01   384.90   386.68
eigval :      389.61   392.48   396.73   409.46   411.24   413.46
eigval :      425.87   428.71   433.00   436.31   446.77   450.38
eigval :      451.84   452.82   460.58   465.91   467.91   491.22
eigval :      491.83   496.57   516.30   516.36   522.41   526.08
eigval :      531.04   533.06   536.05   544.81   545.71   547.58
eigval :      547.92   552.12   554.07   574.25   582.95   584.77
eigval :      587.04   587.57   592.61   607.02   609.14   621.38
eigval :      625.29   641.73   641.86   646.91   647.55   650.88
eigval :      657.78   676.59   676.88   683.30   683.35   686.45
eigval :      687.13   690.31   694.11   694.25   698.97   703.11
eigval :      716.23   717.40   723.19   731.96   743.64   771.02
eigval :      774.76   775.54   776.15   779.53   797.21   799.31
eigval :      804.99   814.49   815.38   826.05   826.18   829.63
eigval :      830.55   831.80   834.80   856.15   861.32   861.57
eigval :      862.88   864.12   864.68   868.31   871.02   873.98
eigval :      874.26   875.38   876.31   899.35   899.56   910.57
eigval :      911.47   911.70   911.89   912.09   914.86   916.29
eigval :      916.61   919.30   919.37   919.44   919.71   919.83
eigval :      922.93   924.18   924.47   925.11   937.44   937.66
eigval :      951.01   955.90   956.73   961.07   973.55   996.18
eigval :      996.62  1011.95  1012.56  1013.07  1048.47  1049.22
eigval :     1076.14  1076.15  1078.54  1079.39  1088.27  1088.69
eigval :     1097.48  1098.23  1111.15  1111.38  1116.09  1117.95
eigval :     1118.00  1124.93  1131.15  1132.72  1138.38  1138.96
eigval :     1149.02  1151.08  1158.13  1158.24  1163.24  1168.95
eigval :     1169.50  1169.82  1174.46  1177.44  1177.54  1183.99
eigval :     1185.44  1185.53  1186.58  1199.26  1199.63  1210.68
eigval :     1212.71  1219.81  1220.47  1223.66  1224.88  1240.24
eigval :     1242.22  1243.93  1246.33  1247.60  1247.66  1248.31
eigval :     1249.48  1266.37  1266.58  1266.73  1267.67  1278.34
eigval :     1280.52  1285.29  1286.65  1293.25  1293.36  1306.88
eigval :     1307.10  1324.29  1324.40  1328.97  1329.10  1333.92
eigval :     1334.37  1334.68  1336.64  1339.37  1340.01  1341.31
eigval :     1341.41  1384.40  1384.43  1393.53  1399.10  1399.32
eigval :     1405.73  1407.92  1411.60  1417.82  1417.89  1419.26
eigval :     1420.15  1428.22  1428.32  1435.93  1435.98  1440.93
eigval :     1441.05  1449.02  1450.34  1464.61  1464.97  1477.43
eigval :     1477.53  1486.80  1487.29  1487.49  1487.54  1492.72
eigval :     1496.06  1496.25  1497.15  1497.24  1498.48  1502.46
eigval :     1503.05  1504.73  1508.69  1529.84  1530.14  1540.89
eigval :     1542.78  1559.91  1560.28  1573.38  1573.46  1577.07
eigval :     1577.23  1585.89  1586.13  1589.76  1589.92  1590.39
eigval :     1590.43  1596.38  1599.45  1601.26  1601.35  3020.07
eigval :     3020.46  3022.90  3022.97  3023.01  3024.35  3032.31
eigval :     3037.50  3037.85  3038.04  3039.79  3039.86  3040.45
eigval :     3041.62  3046.43  3046.54  3050.48  3050.50  3070.09
eigval :     3070.48  3070.69  3071.20  3076.87  3077.01  3077.30
eigval :     3077.43  3078.85  3080.07  3087.95  3088.01  3088.04
eigval :     3088.20  3088.25  3088.45  3088.71  3088.94  3092.28
eigval :     3092.86  3095.60  3096.29  3096.30  3096.86  3097.49
eigval :     3098.15  3101.15  3101.65  3106.56  3106.89  3118.81
eigval :     3119.70  3138.98  3141.15

   temp. (K)  partition function   enthalpy   heat capacity  entropy
                                   cal/mol     cal/K/mol   cal/K/mol   J/K/mol
 298.15  VIB  0.744E+31            38041.924    239.855    237.602
         ROT  0.569E+09              888.752      2.981     43.042
         INT  0.423E+40            38930.677    242.836    280.645
         TR   0.304E+29             1481.254      4.968     46.545
         TOT                       40411.9307   247.8042   327.1893  1368.9602

       T/K    H(0)-H(T)+PV         H(T)/Eh          T*S/Eh         G(T)/Eh
   ------------------------------------------------------------------------
    298.15    0.644005E-01    0.106685E+01    0.155458E+00    0.911393E+00
   ------------------------------------------------------------------------

         :::::::::::::::::::::::::::::::::::::::::::::::::::::
         ::                  THERMODYNAMIC                  ::
         :::::::::::::::::::::::::::::::::::::::::::::::::::::
         :: total free energy        -198.188980133684 Eh   ::
         ::.................................................::
         :: total energy             -199.100373246545 Eh   ::
         :: zero point energy           1.002450810191 Eh   ::
         :: G(RRHO) w/o ZPVE           -0.091057697330 Eh   ::
         :: G(RRHO) contrib.            0.911393112861 Eh   ::
         :::::::::::::::::::::::::::::::::::::::::::::::::::::

           -------------------------------------------------
          | TOTAL ENERGY             -199.100373246545 Eh   |
          | TOTAL ENTHALPY           -198.033521925437 Eh   |
          | TOTAL FREE ENERGY        -198.188980133684 Eh   |
          | GRADIENT NORM               0.000047508582 Eh/α |
          | HOMO-LUMO GAP               1.786357639637 eV   |
           -------------------------------------------------

 * finished run on 2025/07/18 at 08:57:50.935
