   * xtb version 6.7.1 (edcfbbe) compiled by 'albert@albert-system' on 2024-07-22

   ID    Z sym.   atoms
    1    6 C      1-9, 11-14, 16-32, 34-39, 41-46, 48-51, 53-69, 71-76
    2    5 B      10, 47
    3    7 N      15, 52
    4    8 O      33, 40, 70, 77
    5    1 H      78-129

          program call               : xtb data2507/toluene/Me2ACBO/Me2ACBO_toluene_S0_finalOpt.xtbopt.xyz --gfn 2 --uhf 2 --gbsa toluene --ohess vtight --parallel 40 --molden --ceasefiles --namespace data2507/toluene/Me2ACBO/Me2ACBO_toluene_T1_preOpt
      * Solvation model:               GBSA
        Solvent                        toluene
        Solvent mass                       9.2140E+01 g/mol
          :  Hamiltonian                  GFN2-xTB          :
 * total energy  :  -199.0188028 Eh     change       -0.1121441E-07 Eh
 * total energy  :  -199.0196969 Eh     change       -0.8940564E-03 Eh
 * total energy  :  -199.0199370 Eh     change       -0.2401135E-03 Eh
 * total energy  :  -199.0199499 Eh     change       -0.1291087E-04 Eh
 * total energy  :  -199.0199555 Eh     change       -0.5584134E-05 Eh
 * total energy  :  -199.0199579 Eh     change       -0.2390225E-05 Eh
 * total energy  :  -199.0199612 Eh     change       -0.3282089E-05 Eh
 * total energy  :  -199.0199626 Eh     change       -0.1436547E-05 Eh
 * total energy  :  -199.0199641 Eh     change       -0.1496783E-05 Eh
 * total energy  :  -199.0199651 Eh     change       -0.9496697E-06 Eh
 * total energy  :  -199.0199806 Eh     change       -0.2109769E-06 Eh
 * total energy  :  -199.0199808 Eh     change       -0.2071447E-06 Eh
 * total energy  :  -199.0199811 Eh     change       -0.3603380E-06 Eh
 * total energy  :  -199.0199815 Eh     change       -0.3985143E-06 Eh
 * total energy  :  -199.0199820 Eh     change       -0.4385496E-06 Eh
 * total energy  :  -199.0199824 Eh     change       -0.4402877E-06 Eh
 * total energy  :  -199.0199824 Eh     change        0.7530048E-09 Eh
 * total energy  :  -199.0199824 Eh     change        0.1367113E-08 Eh
 * total energy  :  -199.0199824 Eh     change       -0.7147776E-09 Eh
   *** GEOMETRY OPTIMIZATION CONVERGED AFTER 46 ITERATIONS ***

 final structure:
================
129
 xtb: 6.7.1 (edcfbbe)
C           -0.69696110193572        6.21820504861824        2.20374786344360
C           -0.88668027307567        5.09637749322836        1.17182931435833
C            0.12567311962556        5.30321743111766        0.03637182418169
C           -0.72401544337260        3.76071205613436        1.88379614198095
C           -1.70671427720871        3.38647450758778        2.80600821360828
C           -1.69562948398581        2.13022871914950        3.37260642889093
C           -0.69324690591168        1.22075645856742        3.04202769790721
C            0.37388079268506        1.58989936069028        2.19858330642712
C            0.30228046347009        2.87084164692895        1.62717467505787
B            1.46628490394271        0.53008003950506        1.94082694700675
C            2.85283850239862        0.58833437227671        1.27270375694384
C            3.54882894420992        1.74718536509307        0.88194361304119
C            4.79462796894639        1.70851054760359        0.29557093377698
C            5.41124944949198        0.48154214161616        0.07074863457960
N            6.69932783703087        0.42467749594236       -0.54053247795402
C            6.78401281697155        0.31612908875214       -1.91221719000733
C            5.60697939145850        0.25763875029263       -2.67221852811116
C            5.65732997052475        0.14924923633557       -4.04376218755884
C            6.88494286493768        0.09680814979849       -4.68664801385042
C            8.04839510497039        0.15595925367062       -3.94098712703136
C            8.02991841333676        0.26618142145980       -2.55710503884686
C            9.33434408546004        0.32823285316098       -1.79026915843145
C           10.13490924907338        1.55349869256194       -2.27364551581304
C           10.12813200730048       -0.96494486887375       -2.06231330341684
C            9.10805006933466        0.45313239022040       -0.29801409137826
C           10.19692932983016        0.52963195539453        0.55980199873847
C           10.04396923765595        0.63975668640229        1.93008751748068
C            8.76908484026609        0.67563512542812        2.47454552544632
C            7.66967231808483        0.60309029176440        1.64915166853392
C            7.82016190779627        0.49301088452719        0.25910547012715
C            4.77716269552148       -0.69214062893329        0.46173245300932
C            3.52514221960277       -0.63708104036165        1.06359263540065
O            3.03009816980838       -1.86028052424902        1.42608975331447
C            1.88824047191725       -1.97850874465004        2.16386168042226
C            1.54181567094899       -3.25051791916183        2.60311424765275
C            0.39953195890302       -3.41426106199022        3.37208575281227
C           -0.39432720088359       -2.32793661139647        3.70356816725802
C           -0.04641470971050       -1.06356853934001        3.24160726681295
C            1.09877549311428       -0.85913237790901        2.45834457539469
O           -0.85758691501814       -0.02626182164317        3.58558717993217
C           -2.27591897514726        5.09854770574419        0.54755017864875
C           -3.07477085376883        6.23413872781637        0.45276218510965
C           -4.32134712963238        6.15850694670770       -0.14335052984101
C           -4.81260176974617        4.94260055767206       -0.61044957999842
C           -4.05009739069074        3.76011680593798       -0.50266484643653
C           -2.76685087372587        3.90802711118745        0.03167956473490
B           -4.71979582246151        2.43528569047632       -0.92273414557449
C           -4.31731538482444        0.95817705167941       -0.74850332492334
C           -3.19783170943721        0.46228236420235       -0.05208393263871
C           -2.92795431601930       -0.88187997195805        0.07124761333044
C           -3.78757218502871       -1.81513524812133       -0.50290313944474
N           -3.52171858315432       -3.20766600456979       -0.37507011667718
C           -3.72746793055214       -3.81478901600745        0.84725871325250
C           -4.25685035369689       -3.06865867255600        1.91066462754609
C           -4.45846412134585       -3.64224474042123        3.14553697769553
C           -4.14036818219447       -4.97683917561198        3.34695094633459
C           -3.64574561264098       -5.72427782543830        2.29390638164120
C           -3.43787300605040       -5.17567988161843        1.03560380864402
C           -2.94019428690633       -6.05515639689023       -0.09160088922783
C           -1.57078273254643       -6.64526750519462        0.29881148401114
C           -3.96346213853932       -7.18686499308511       -0.31400025715049
C           -2.77782172718122       -5.28145874533869       -1.38252155476334
C           -2.32907254967288       -5.93466967017957       -2.52274417934606
C           -2.13176258010170       -5.26942025337439       -3.71887187494243
C           -2.36916516583466       -3.90485736364306       -3.78764877216334
C           -2.81774771161153       -3.23059326362186       -2.67447363181814
C           -3.04807242244708       -3.90629003783450       -1.46692181922334
C           -4.91668361237353       -1.37804048838289       -1.18854267741654
C           -5.17741644234122       -0.01776666183329       -1.30400831915847
O           -6.32872445169835        0.26779344121292       -1.98607227946565
C           -6.81345706959354        1.54034476735847       -2.07619587963295
C           -8.04792632743934        1.70840157132099       -2.69108238760623
C           -8.58676723670645        2.98247724645011       -2.79208276207047
C           -7.91262041722976        4.08024324307320       -2.28190078765634
C           -6.67467347350494        3.89892921061732       -1.67407607852830
C           -6.09061198678958        2.62746892539099       -1.56799690658829
O           -6.06072105216539        5.00490839019807       -1.17119048410083
H           -1.49984048535391        6.21578400591881        2.93658225815151
H           -0.66608419000340        7.19109832869422        1.71936696384346
H            0.24552741883631        6.06979544611080        2.72801310689073
H            1.13886939089457        5.36507853022036        0.42696467566422
H           -0.09994046103386        6.23529637118744       -0.47868126417193
H            0.06554722352165        4.49404111218121       -0.68765650849623
H           -2.51217661007281        4.06559481098079        3.04265694063170
H           -2.47723017425548        1.81740999643717        4.04926467395962
H            1.07132059432762        3.13628381629203        0.92233821080036
H            3.09373449588586        2.70603109117628        1.06940383710475
H            5.29989137889268        2.61906597035628        0.00795835638353
H            4.65297977618575        0.29999586961060       -2.17081253599109
H            4.73977364027413        0.10601967366933       -4.61096972585285
H            6.93509216947584        0.01146564305055       -5.76144829257830
H            8.99448180803927        0.11494492924638       -4.45794191314198
H           11.08773893918518        1.61974233870339       -1.75701807752872
H            9.57288586379749        2.46503981536082       -2.07863741100904
H           10.32913775233327        1.49100626357493       -3.34021488895644
H           10.33474076144365       -1.07418148832264       -3.12286070428095
H           11.07415260018685       -0.95594520227308       -1.52909037302231
H            9.55470445850425       -1.82919786204266       -1.73192366700306
H           11.19609155778532        0.50156903764069        0.15377415630036
H           10.91243258424582        0.69661900057835        2.56838194424762
H            8.63183974149460        0.75989810219492        3.54206074876784
H            6.67774265928333        0.63068889944703        2.07179206634687
H            5.25066705575509       -1.65092335004793        0.31356482132599
H            2.16953845836994       -4.09019762749974        2.34718589535465
H            0.12588745873043       -4.39852646732368        3.72017979081540
H           -1.28024780871016       -2.44616749682918        4.30764692556560
H           -2.73639897293777        7.18541732345933        0.83159442906346
H           -4.94044530411001        7.03817926012088       -0.24379205206541
H           -2.12834727671140        3.04052120306357        0.05343045206135
H           -2.52998650526145        1.16109071849072        0.42366066364645
H           -2.05527387973871       -1.22296117508014        0.60941661816519
H           -4.51080025584224       -2.03222157213704        1.75546458561219
H           -4.86444285307651       -3.04785890984096        3.95030041995398
H           -4.28832594036838       -5.43427039965466        4.31331963082377
H           -3.42151783242784       -6.76602615249059        2.46241951832042
H           -0.84760250306530       -5.84365850329660        0.43651580017146
H           -1.64283629234880       -7.20738435777677        1.22502510601162
H           -1.20321548008229       -7.31069898310360       -0.47665625637016
H           -3.63998247637528       -7.84746687815314       -1.11278743870959
H           -4.08713314807974       -7.77741706621764        0.58878222667166
H           -4.92972930583298       -6.76520679005517       -0.58494108456241
H           -2.12314411096773       -6.99282341034230       -2.48171191984285
H           -1.78621943646161       -5.80870058646465       -4.58748453732395
H           -2.20272581351738       -3.36561240836862       -4.70793611001171
H           -2.99229830955109       -2.16777205547815       -2.72654578396118
H           -5.60364506308390       -2.08564851898811       -1.62768829372223
H           -8.57153706703568        0.84744164338435       -3.07709285127568
H           -9.54570160608674        3.11959748405922       -3.26808778669859
H           -8.33052857371647        5.07307815137819       -2.34649167141731

          :  Hamiltonian                  GFN2-xTB          :
         :: gradient norm              0.000054821221 Eh/a0 ::
         :: HOMO-LUMO gap              0.031558604067 eV    ::
         :: SCC energy              -202.387418120828 Eh    ::
         :: -> dispersion             -0.190061276952 Eh    ::
         :: -> Gsolv                  -0.078783030162 Eh    ::
         :: repulsion energy           3.367435700196 Eh    ::

    * Orbital Energies and Occupations

         #    Occupation            Energy/Eh            Energy/eV
      -------------------------------------------------------------
         1        2.0000           -0.7219843             -19.6462
       ...           ...                  ...                  ...
       173        2.0000           -0.3929010             -10.6914
       174        2.0000           -0.3919046             -10.6643
       175        2.0000           -0.3847308             -10.4691
       176        2.0000           -0.3839764             -10.4485
       177        2.0000           -0.3823192             -10.4034
       178        2.0000           -0.3798585             -10.3365
       179        2.0000           -0.3789345             -10.3113
       180        2.0000           -0.3759961             -10.2314
       181        1.9921           -0.3627429              -9.8707
       182        1.8363           -0.3596978              -9.7879
       183        1.6319           -0.3586612              -9.7597
       184        1.5397           -0.3582991              -9.7498
       185        0.6480           -0.2642542              -7.1907 (HOMO)
       186        0.3520           -0.2630944              -7.1592 (LUMO)
       187                         -0.2377715              -6.4701
       188                         -0.2373931              -6.4598
       189                         -0.2301258              -6.2620
       190                         -0.2297824              -6.2527
       191                         -0.2297456              -6.2517
       192                         -0.2296007              -6.2478
       193                         -0.2278549              -6.2002
       194                         -0.2275667              -6.1924
       195                         -0.2225323              -6.0554
       196                         -0.2213927              -6.0244
       ...                                ...                  ...
       360                          0.7125577              19.3897
      -------------------------------------------------------------
                  HL-Gap            0.0011598 Eh            0.0316 eV

     #   Z          covCN         q      C6AA      α(0)
     1   6 C        3.760    -0.102    22.491     6.761
     2   6 C        3.909     0.017    20.225     6.392
     3   6 C        3.761    -0.103    22.510     6.763
     4   6 C        2.974     0.003    27.961     8.674
     5   6 C        2.926    -0.039    28.965     8.826
     6   6 C        2.912    -0.060    29.495     8.905
     7   6 C        2.873     0.130    25.146     8.220
     8   6 C        2.882    -0.094    30.361     9.033
     9   6 C        2.927    -0.053    29.307     8.878
    10   5 B        2.724     0.180    18.673     7.241
    11   6 C        2.882    -0.094    30.368     9.034
    12   6 C        2.924    -0.044    29.102     8.847
    13   6 C        2.913    -0.051    29.273     8.872
    14   6 C        2.929     0.048    26.928     8.510
    15   7 N        2.755    -0.029    21.812     6.936
    16   6 C        2.930     0.062    26.614     8.460
    17   6 C        2.923    -0.050    29.234     8.867
    18   6 C        2.918    -0.029    28.732     8.790
    19   6 C        2.917    -0.035    28.866     8.810
    20   6 C        2.925    -0.034    28.848     8.808
    21   6 C        2.978    -0.004    28.127     8.700
    22   6 C        3.909     0.024    20.121     6.376
    23   6 C        3.761    -0.107    22.588     6.775
    24   6 C        3.761    -0.107    22.583     6.774
    25   6 C        2.978    -0.004    28.126     8.699
    26   6 C        2.925    -0.034    28.849     8.808
    27   6 C        2.917    -0.035    28.868     8.811
    28   6 C        2.918    -0.029    28.733     8.790
    29   6 C        2.923    -0.050    29.236     8.867
    30   6 C        2.930     0.062    26.614     8.460
    31   6 C        2.916    -0.071    29.767     8.947
    32   6 C        2.871     0.134    25.069     8.208
    33   8 O        1.711    -0.254    18.214     5.762
    34   6 C        2.871     0.129    25.162     8.223
    35   6 C        2.912    -0.070    29.735     8.942
    36   6 C        2.921    -0.039    28.967     8.826
    37   6 C        2.912    -0.069    29.719     8.939
    38   6 C        2.872     0.131    25.131     8.218
    39   6 C        2.888    -0.122    31.109     9.144
    40   8 O        1.710    -0.255    18.223     5.764
    41   6 C        2.976     0.002    27.967     8.675
    42   6 C        2.922    -0.044    29.099     8.846
    43   6 C        2.913    -0.062    29.533     8.911
    44   6 C        2.873     0.130    25.159     8.222
    45   6 C        2.881    -0.094    30.353     9.032
    46   6 C        2.933    -0.048    29.184     8.860
    47   5 B        2.724     0.178    18.700     7.246
    48   6 C        2.881    -0.093    30.332     9.029
    49   6 C        2.923    -0.043    29.068     8.842
    50   6 C        2.913    -0.048    29.191     8.860
    51   6 C        2.928     0.048    26.921     8.509
    52   7 N        2.754    -0.027    21.769     6.930
    53   6 C        2.930     0.062    26.609     8.460
    54   6 C        2.923    -0.048    29.191     8.860
    55   6 C        2.918    -0.028    28.710     8.787
    56   6 C        2.917    -0.034    28.842     8.807
    57   6 C        2.926    -0.034    28.845     8.808
    58   6 C        2.978    -0.003    28.101     8.696
    59   6 C        3.909     0.024    20.121     6.376
    60   6 C        3.761    -0.107    22.590     6.776
    61   6 C        3.761    -0.107    22.598     6.777
    62   6 C        2.979    -0.004    28.108     8.697
    63   6 C        2.925    -0.034    28.850     8.808
    64   6 C        2.917    -0.034    28.855     8.809
    65   6 C        2.918    -0.029    28.730     8.790
    66   6 C        2.923    -0.049    29.227     8.866
    67   6 C        2.929     0.062    26.620     8.461
    68   6 C        2.916    -0.072    29.793     8.951
    69   6 C        2.870     0.134    25.068     8.207
    70   8 O        1.711    -0.253    18.185     5.758
    71   6 C        2.871     0.130    25.155     8.222
    72   6 C        2.912    -0.068    29.696     8.936
    73   6 C        2.921    -0.038    28.955     8.824
    74   6 C        2.912    -0.068    29.694     8.936
    75   6 C        2.871     0.131    25.126     8.217
    76   6 C        2.887    -0.121    31.077     9.139
    77   8 O        1.710    -0.252    18.175     5.756
    78   1 H        0.925     0.036     2.504     2.474
    79   1 H        0.925     0.041     2.432     2.439
    80   1 H        0.925     0.037     2.485     2.465
    81   1 H        0.925     0.043     2.405     2.425
    82   1 H        0.925     0.037     2.487     2.466
    83   1 H        0.925     0.039     2.468     2.457
    84   1 H        0.926     0.025     2.661     2.551
    85   1 H        0.926     0.029     2.597     2.520
    86   1 H        0.926     0.043     2.413     2.429
    87   1 H        0.926     0.041     2.430     2.438
    88   1 H        0.926     0.035     2.520     2.482
    89   1 H        0.926     0.039     2.462     2.454
    90   1 H        0.926     0.039     2.467     2.456
    91   1 H        0.926     0.040     2.452     2.449
    92   1 H        0.926     0.046     2.370     2.407
    93   1 H        0.925     0.049     2.326     2.385
    94   1 H        0.925     0.036     2.509     2.477
    95   1 H        0.925     0.049     2.327     2.385
    96   1 H        0.925     0.050     2.326     2.385
    97   1 H        0.925     0.049     2.328     2.386
    98   1 H        0.925     0.035     2.515     2.480
    99   1 H        0.926     0.046     2.370     2.407
   100   1 H        0.926     0.040     2.453     2.449
   101   1 H        0.926     0.038     2.473     2.459
   102   1 H        0.926     0.038     2.471     2.458
   103   1 H        0.926     0.040     2.448     2.447
   104   1 H        0.926     0.039     2.457     2.451
   105   1 H        0.926     0.039     2.462     2.454
   106   1 H        0.926     0.037     2.491     2.468
   107   1 H        0.926     0.037     2.495     2.470
   108   1 H        0.926     0.032     2.559     2.501
   109   1 H        0.926     0.031     2.573     2.508
   110   1 H        0.926     0.036     2.504     2.474
   111   1 H        0.926     0.029     2.607     2.525
   112   1 H        0.926     0.038     2.476     2.461
   113   1 H        0.926     0.038     2.474     2.459
   114   1 H        0.926     0.041     2.431     2.438
   115   1 H        0.926     0.048     2.342     2.393
   116   1 H        0.925     0.035     2.512     2.478
   117   1 H        0.925     0.051     2.314     2.379
   118   1 H        0.925     0.051     2.310     2.377
   119   1 H        0.925     0.051     2.307     2.375
   120   1 H        0.925     0.051     2.312     2.378
   121   1 H        0.925     0.036     2.506     2.476
   122   1 H        0.926     0.048     2.344     2.394
   123   1 H        0.926     0.042     2.424     2.435
   124   1 H        0.926     0.040     2.451     2.448
   125   1 H        0.926     0.039     2.462     2.454
   126   1 H        0.926     0.042     2.417     2.431
   127   1 H        0.926     0.040     2.443     2.444
   128   1 H        0.926     0.040     2.454     2.450
   129   1 H        0.926     0.039     2.456     2.451

molecular dipole:
                 x           y           z       tot (Debye)
 q only:        4.621      -2.786      -1.238
   full:        4.282      -2.731      -1.100      13.208

 projected vibrational frequencies (cm⁻¹)
eigval :       -0.00    -0.00     0.00     0.00     0.00     0.00
eigval :       -5.17     4.96     9.07    13.01    15.15    20.54
eigval :       20.96    23.70    26.23    34.04    36.60    43.78
eigval :       48.15    63.21    67.26    71.73    75.37    79.74
eigval :       84.42    96.00    97.29   102.25   102.30   108.23
eigval :      117.10   123.43   128.50   131.14   136.05   143.69
eigval :      150.89   160.96   177.11   196.36   196.60   201.19
eigval :      204.02   216.62   219.27   221.95   225.05   226.34
eigval :      232.38   233.46   235.93   239.46   240.81   245.35
eigval :      250.81   256.35   268.38   275.52   288.08   296.26
eigval :      298.53   302.55   312.66   316.70   321.22   325.72
eigval :      326.89   327.83   331.50   341.30   344.00   350.18
eigval :      358.94   371.60   376.57   379.03   381.31   384.64
eigval :      390.94   391.98   399.16   405.52   410.09   411.50
eigval :      421.59   424.60   430.93   431.38   440.15   450.21
eigval :      451.26   454.70   455.49   461.68   464.06   497.12
eigval :      504.83   506.77   511.28   513.96   516.33   519.70
eigval :      526.35   530.01   534.32   541.04   542.43   543.84
eigval :      544.38   548.88   551.97   571.16   573.69   575.64
eigval :      583.95   584.18   587.83   603.24   605.76   615.11
eigval :      619.40   630.18   632.39   639.98   641.32   643.83
eigval :      658.03   672.03   672.25   674.08   675.09   687.63
eigval :      688.04   689.20   690.16   693.72   701.78   702.47
eigval :      705.61   706.68   715.86   727.48   737.53   766.84
eigval :      771.94   773.77   774.03   776.49   784.77   786.41
eigval :      796.54   804.81   806.35   812.74   819.06   824.06
eigval :      825.21   825.36   828.64   847.54   849.46   851.49
eigval :      854.20   861.25   863.02   865.95   867.67   870.54
eigval :      870.77   871.16   872.24   894.68   896.11   897.06
eigval :      897.72   898.49   900.36   900.73   905.92   912.05
eigval :      912.33   913.06   915.70   916.45   917.49   917.84
eigval :      921.88   922.60   923.55   925.20   936.00   936.80
eigval :      946.98   957.29   958.42   961.10   976.46   989.17
eigval :      990.96  1011.64  1012.52  1012.86  1036.02  1036.15
eigval :     1065.11  1073.47  1073.63  1073.97  1084.93  1085.76
eigval :     1087.78  1088.49  1104.55  1105.72  1108.70  1111.10
eigval :     1111.88  1121.21  1123.48  1127.53  1136.54  1136.88
eigval :     1147.26  1147.91  1148.40  1148.53  1160.54  1163.80
eigval :     1165.16  1166.94  1173.37  1174.07  1175.50  1180.64
eigval :     1182.19  1182.25  1182.58  1194.88  1195.33  1200.50
eigval :     1205.91  1214.44  1215.41  1220.63  1224.31  1234.83
eigval :     1235.20  1236.71  1236.91  1240.68  1241.38  1243.25
eigval :     1245.25  1247.89  1249.31  1257.43  1258.19  1265.87
eigval :     1269.91  1274.52  1278.71  1291.65  1292.10  1303.37
eigval :     1307.77  1312.91  1316.26  1317.17  1318.77  1321.42
eigval :     1325.96  1327.48  1328.20  1333.87  1333.96  1341.29
eigval :     1341.82  1375.66  1378.21  1385.81  1387.00  1395.48
eigval :     1396.77  1397.07  1409.78  1414.11  1414.37  1415.37
eigval :     1415.47  1415.80  1417.93  1418.50  1419.82  1428.10
eigval :     1428.87  1438.26  1441.45  1452.66  1454.23  1454.37
eigval :     1454.99  1474.88  1477.08  1481.24  1481.65  1483.07
eigval :     1483.95  1490.45  1491.79  1492.55  1492.91  1495.55
eigval :     1496.58  1497.03  1498.29  1505.53  1507.25  1511.98
eigval :     1515.28  1521.07  1524.03  1542.37  1546.40  1548.45
eigval :     1550.67  1552.29  1553.37  1563.44  1564.29  1566.54
eigval :     1576.97  1577.41  1577.81  1587.63  1588.71  3019.44
eigval :     3020.97  3024.60  3025.78  3027.02  3028.10  3031.65
eigval :     3032.74  3036.23  3040.68  3046.63  3047.23  3048.50
eigval :     3049.28  3053.70  3054.36  3057.37  3058.05  3074.61
eigval :     3075.34  3077.35  3077.49  3080.30  3081.45  3082.31
eigval :     3083.13  3083.31  3083.63  3086.21  3087.77  3087.89
eigval :     3089.11  3090.07  3092.17  3092.30  3092.74  3093.09
eigval :     3098.01  3098.46  3098.97  3099.48  3099.68  3099.88
eigval :     3100.88  3108.45  3109.10  3109.54  3109.70  3110.51
eigval :     3111.81  3120.49  3127.32

   temp. (K)  partition function   enthalpy   heat capacity  entropy
                                   cal/mol     cal/K/mol   cal/K/mol   J/K/mol
 298.15  VIB  0.779E+30            38139.177    241.845    236.339
         ROT  0.326E+09              888.752      2.981     41.934
         INT  0.254E+39            39027.930    244.826    278.273
         TR   0.304E+29             1481.254      4.968     46.545
         TOT                       40509.1835   249.7944   324.8173  1359.0358

       T/K    H(0)-H(T)+PV         H(T)/Eh          T*S/Eh         G(T)/Eh
   ------------------------------------------------------------------------
    298.15    0.645555E-01    0.106310E+01    0.154331E+00    0.908772E+00
   ------------------------------------------------------------------------

         :::::::::::::::::::::::::::::::::::::::::::::::::::::
         ::                  THERMODYNAMIC                  ::
         :::::::::::::::::::::::::::::::::::::::::::::::::::::
         :: total free energy        -198.111210227991 Eh   ::
         ::.................................................::
         :: total energy             -199.019982416259 Eh   ::
         :: zero point energy           0.998547895033 Eh   ::
         :: G(RRHO) w/o ZPVE           -0.089775706765 Eh   ::
         :: G(RRHO) contrib.            0.908772188268 Eh   ::
         :::::::::::::::::::::::::::::::::::::::::::::::::::::

           -------------------------------------------------
          | TOTAL ENERGY             -199.019982416259 Eh   |
          | TOTAL ENTHALPY           -197.956879028207 Eh   |
          | TOTAL FREE ENERGY        -198.111210227991 Eh   |
          | GRADIENT NORM               0.000053602710 Eh/α |
          | HOMO-LUMO GAP               0.031559330562 eV   |
           -------------------------------------------------

 * finished run on 2025/07/18 at 09:13:04.316
