   * xtb version 6.7.1 (edcfbbe) compiled by 'albert@albert-system' on 2024-07-22

   ID    Z sym.   atoms
    1    6 C      1-9, 11-14, 16-32, 34-39, 41-46, 48-51, 53-69, 71-76
    2    5 B      10, 47
    3    7 N      15, 52
    4    8 O      33, 40, 70, 77
    5    1 H      78-129

          program call               : xtb data2507/toluene/Me2ACBO/Me2ACBO_toluene_S0_crest.xyz --gfn 2 --gbsa toluene --ohess vtight --parallel 40 --molden --ceasefiles --namespace data2507/toluene/Me2ACBO/Me2ACBO_toluene_S0_finalOpt
      * Solvation model:               GBSA
        Solvent                        toluene
        Solvent mass                       9.2140E+01 g/mol
          :  Hamiltonian                  GFN2-xTB          :
 * total energy  :  -199.0999817 Eh     change       -0.4870770E-08 Eh
 * total energy  :  -199.1000681 Eh     change       -0.8634097E-04 Eh
 * total energy  :  -199.1001261 Eh     change       -0.5804934E-04 Eh
 * total energy  :  -199.1001648 Eh     change       -0.3866289E-04 Eh
 * total energy  :  -199.1002009 Eh     change       -0.3610540E-04 Eh
 * total energy  :  -199.1002540 Eh     change       -0.5305944E-04 Eh
 * total energy  :  -199.1002978 Eh     change       -0.4385877E-04 Eh
 * total energy  :  -199.1003152 Eh     change       -0.1736155E-04 Eh
 * total energy  :  -199.1003346 Eh     change       -0.1946233E-04 Eh
 * total energy  :  -199.1003490 Eh     change       -0.1434314E-04 Eh
 * total energy  :  -199.1009554 Eh     change       -0.9217500E-06 Eh
 * total energy  :  -199.1009562 Eh     change       -0.8078991E-06 Eh
 * total energy  :  -199.1009568 Eh     change       -0.6552475E-06 Eh
 * total energy  :  -199.1009573 Eh     change       -0.5140132E-06 Eh
 * total energy  :  -199.1009578 Eh     change       -0.4192422E-06 Eh
 * total energy  :  -199.1009582 Eh     change       -0.4007800E-06 Eh
 * total energy  :  -199.1009586 Eh     change       -0.4511853E-06 Eh
 * total energy  :  -199.1009591 Eh     change       -0.5032191E-06 Eh
 * total energy  :  -199.1009591 Eh     change       -0.6065733E-08 Eh
   *** GEOMETRY OPTIMIZATION CONVERGED AFTER 122 ITERATIONS ***

 final structure:
================
129
 xtb: 6.7.1 (edcfbbe)
C           -0.70737783868893        6.18361325804626        2.21603764702874
C           -0.89324706318198        5.06600913264790        1.17904817745197
C            0.11801306792975        5.27882807499669        0.04388410431222
C           -0.72278221142644        3.72842077894312        1.88656596590272
C           -1.69850359013297        3.34741559568784        2.81652294829699
C           -1.68298358277962        2.09770351871604        3.38498951492235
C           -0.67707047402962        1.18741437357400        3.04908395905538
C            0.37831849896871        1.56525906510041        2.20045167270487
C            0.30404215592052        2.84483863000832        1.62615935105776
B            1.48000443870417        0.51220508421993        1.94934895081075
C            2.87534352685362        0.58160679868787        1.28109335901300
C            3.55775221805618        1.74455976238600        0.89892167990134
C            4.80271385933467        1.71438605048191        0.31266524598674
C            5.42622478526369        0.48856697626659        0.07952585487224
N            6.71283935032308        0.44598875400592       -0.52785641852344
C            6.80274716680009        0.34661175948954       -1.90636858063201
C            5.63368645492802        0.28886886366810       -2.67114834451178
C            5.68888237200030        0.18872641163988       -4.04569787477073
C            6.91553293735505        0.14488578572675       -4.68376372340403
C            8.07311734924175        0.20470896408373       -3.92893159143678
C            8.04739068451117        0.30633123212914       -2.54457301877931
C            9.35338347801490        0.36955032337177       -1.77376100439181
C           10.14509183636424        1.60464835723311       -2.24324454439926
C           10.15554747699700       -0.91475914991338       -2.05639630757431
C            9.12182531358778        0.48028406789462       -0.27769570058982
C           10.21096617763650        0.55382332108174        0.57997102794831
C           10.06218755621345        0.65446889690669        1.95150677477735
C            8.78949990595644        0.68345352786735        2.49293359880156
C            7.68922030723214        0.61304631431103        1.66424747001672
C            7.83768663978160        0.51225508751073        0.27742034161415
C            4.80070693842978       -0.68244628692665        0.45944455443551
C            3.54426744749476       -0.63949806917258        1.06837806922966
O            3.05917110893650       -1.85907694417688        1.43083250146366
C            1.92411691220021       -1.98867189736472        2.16444176592110
C            1.58067366477524       -3.26353478674890        2.59969174101877
C            0.44134372970691       -3.42986674865880        3.36943865888399
C           -0.35959162120061       -2.35432954185341        3.70876185866142
C           -0.02208904037375       -1.08504564141914        3.24930959606910
C            1.12399484888482       -0.87691544639659        2.46650579230564
O           -0.83323724184354       -0.05604323032194        3.58917725676822
C           -2.28277972144993        5.06960557120126        0.55338825115462
C           -3.07546747431293        6.21211620997297        0.45153395807109
C           -4.31680280804983        6.15108429366245       -0.14403557941689
C           -4.81866691549270        4.93726499624204       -0.61620869534818
C           -4.06185000765953        3.75585405446155       -0.50551927705631
C           -2.78068363423726        3.88647112724011        0.03822971318039
B           -4.74330072385822        2.43449813896225       -0.92278863247274
C           -4.34900544220908        0.94671474986911       -0.74553455618317
C           -3.24128663090725        0.45120116217409       -0.04222048969703
C           -2.97369296603320       -0.89329466293708        0.07005183485235
C           -3.83107685708284       -1.82343819041636       -0.51976054418628
N           -3.56552985727336       -3.21220404134571       -0.39384282191343
C           -3.75502174606782       -3.82084799649726        0.83880789577255
C           -4.28245391950380       -3.08242231702415        1.90295465571967
C           -4.47349637301588       -3.65625284195726        3.14234260201295
C           -4.14556298506042       -4.98485719681070        3.34432566874221
C           -3.65187499716401       -5.72521296594496        2.28596148918174
C           -3.45538500085014       -5.17464701981867        1.02644256759638
C           -2.95852970988095       -6.05761515881969       -0.10297721271653
C           -1.58332235707580       -6.63610889398541        0.28021076274430
C           -3.97575146621942       -7.19508516875370       -0.31507184045886
C           -2.81019505675384       -5.28449816271444       -1.40008886553570
C           -2.35992529267520       -5.94202317978650       -2.53729391608308
C           -2.17025130250231       -5.28687444914150       -3.74012137279885
C           -2.41792211963894       -3.92788621295470       -3.81398095497824
C           -2.86899638259866       -3.25062641311886       -2.70042464194472
C           -3.09175707968717       -3.91673355724755       -1.49113747033065
C           -4.94613321952231       -1.38188669883828       -1.20610577232149
C           -5.20660752998247       -0.01390377921917       -1.31702591721187
O           -6.34705206471089        0.27915663368480       -2.00109238371335
C           -6.82403003420341        1.54671095959386       -2.09550229479947
C           -8.05078331459180        1.72590219669054       -2.72445906866308
C           -8.57784122997804        3.00266851943824       -2.82238675369058
C           -7.90905557246919        4.09783171912284       -2.30496443592202
C           -6.67663766313451        3.91230365830865       -1.68573804429927
C           -6.10531759834528        2.63428905924324       -1.57753587445566
O           -6.06144510941844        5.00602786311627       -1.17681059181034
H           -1.51364677103002        6.18239053660286        2.94491698937224
H           -0.66966005010326        7.15775742382650        1.73519884249432
H            0.23183589860633        6.03208498794480        2.74481491024998
H            1.13062845468767        5.34534584392194        0.43455860165971
H           -0.11009302139435        6.21113135701462       -0.46919452126402
H            0.06242932281356        4.47197449283844       -0.68298593559996
H           -2.50299565518685        4.02593600321106        3.05737399536214
H           -2.45784972693633        1.78251791147857        4.06727303551502
H            1.07069346949232        3.11083787758931        0.91945286137516
H            3.09700629785119        2.69947903546198        1.09253788999989
H            5.30780122312076        2.62648670051610        0.03190422146095
H            4.67419841164364        0.32341131329557       -2.17810253946258
H            4.77196476728757        0.14491852334835       -4.61533159148470
H            6.97279542156714        0.06559757879117       -5.75917107626070
H            9.02308611197008        0.17072607206445       -4.44083159532570
H           11.09865054588725        1.67301894186263       -1.72706531258000
H            9.57648591258652        2.50987230219061       -2.03650129723649
H           10.33887485319421        1.55798889376598       -3.31128966523106
H           10.36996815122443       -1.01221555329658       -3.11710301236395
H           11.09891651775919       -0.90946535505063       -1.51734716890853
H            9.58418113997569       -1.78600520667897       -1.74004370808287
H           11.21021425446697        0.53141967813989        0.17176638273607
H           10.93210163352736        0.70919129987730        2.58884144571127
H            8.64936009035914        0.76064649706184        3.56136509194540
H            6.69875068213443        0.63578567677224        2.09247958934576
H            5.27819402209535       -1.63853469023023        0.30654696582638
H            2.20977018222138       -4.10047354792486        2.34079579533110
H            0.17215662171912       -4.41726406278541        3.71240673566184
H           -1.24477390461778       -2.48360210679378        4.31049069292569
H           -2.72618668999082        7.16008147819326        0.82867274538504
H           -4.92731048046304        7.03571047439820       -0.24742359372161
H           -2.15357752477269        3.01131504490984        0.06297157822496
H           -2.57881751168171        1.14692735912175        0.44526416749611
H           -2.11104982529283       -1.24413798630505        0.61679589873691
H           -4.55006437658420       -2.04789502764463        1.75332242921650
H           -4.88051512194697       -3.06219898556797        3.94779295877200
H           -4.28433936296599       -5.44521424903265        4.31120220550468
H           -3.41889864072102       -6.76631064989502        2.45134803470332
H           -0.86323129123936       -5.82863845655981        0.40146738519517
H           -1.64123912009062       -7.18905850726760        1.21355018708993
H           -1.21759728181727       -7.30828743282058       -0.49106020568693
H           -3.65748245054929       -7.85565488096373       -1.11677737371083
H           -4.09017402795972       -7.78698536338490        0.58874487197431
H           -4.94691087400742       -6.77871853165763       -0.57809867600754
H           -2.14581738895598       -6.99900099349166       -2.48861688896781
H           -1.82330550277572       -5.83077456935242       -4.60591435243273
H           -2.25860415921737       -3.39022593464166       -4.73736504579048
H           -3.04812937768249       -2.18850403631914       -2.76422806479641
H           -5.63063798452292       -2.08396074104721       -1.65791403868958
H           -8.57595311477832        0.87050475441694       -3.11895643926665
H           -9.53166689094908        3.14545652291917       -3.30729608833040
H           -8.32317746135125        5.09127175090031       -2.37426237879858

          :  Hamiltonian                  GFN2-xTB          :
         :: gradient norm              0.000058863001 Eh/a0 ::
         :: HOMO-LUMO gap              1.781893689855 eV    ::
         :: SCC energy              -202.481492937440 Eh    ::
         :: -> dispersion             -0.189822419299 Eh    ::
         :: -> Gsolv                  -0.073737188131 Eh    ::
         :: repulsion energy           3.380533810364 Eh    ::

    * Orbital Energies and Occupations

         #    Occupation            Energy/Eh            Energy/eV
      -------------------------------------------------------------
         1        2.0000           -0.7358843             -20.0244
       ...           ...                  ...                  ...
       172        2.0000           -0.3980691             -10.8320
       173        2.0000           -0.3964694             -10.7885
       174        2.0000           -0.3960190             -10.7762
       175        2.0000           -0.3954143             -10.7598
       176        2.0000           -0.3940568             -10.7228
       177        2.0000           -0.3922668             -10.6741
       178        2.0000           -0.3909324             -10.6378
       179        2.0000           -0.3902993             -10.6206
       180        2.0000           -0.3887536             -10.5785
       181        2.0000           -0.3732152             -10.1557
       182        2.0000           -0.3705943             -10.0844
       183        2.0000           -0.3449727              -9.3872
       184        2.0000           -0.3437707              -9.3545 (HOMO)
       185                         -0.2782873              -7.5726 (LUMO)
       186                         -0.2771133              -7.5406
       187                         -0.2398239              -6.5259
       188                         -0.2396933              -6.5224
       189                         -0.2345058              -6.3812
       190                         -0.2330710              -6.3422
       191                         -0.2311660              -6.2903
       192                         -0.2289850              -6.2310
       193                         -0.2228270              -6.0634
       194                         -0.2217902              -6.0352
       195                         -0.2181760              -5.9369
       ...                                ...                  ...
       360                          0.6966303              18.9563
      -------------------------------------------------------------
                  HL-Gap            0.0654834 Eh            1.7819 eV

     #   Z          covCN         q      C6AA      α(0)
     1   6 C        3.760    -0.106    22.568     6.772
     2   6 C        3.909     0.019    20.205     6.389
     3   6 C        3.761    -0.107    22.592     6.776
     4   6 C        2.974     0.005    27.913     8.666
     5   6 C        2.927    -0.030    28.743     8.792
     6   6 C        2.913    -0.055    29.358     8.885
     7   6 C        2.876     0.135    25.058     8.206
     8   6 C        2.883    -0.092    30.304     9.025
     9   6 C        2.927    -0.044    29.100     8.847
    10   5 B        2.725     0.213    18.190     7.146
    11   6 C        2.883    -0.090    30.268     9.019
    12   6 C        2.924    -0.032    28.801     8.801
    13   6 C        2.916    -0.049    29.227     8.865
    14   6 C        2.927     0.074    26.354     8.419
    15   7 N        2.755    -0.075    22.701     7.076
    16   6 C        2.928     0.059    26.668     8.469
    17   6 C        2.924    -0.061    29.505     8.908
    18   6 C        2.919    -0.035    28.880     8.813
    19   6 C        2.917    -0.047    29.176     8.858
    20   6 C        2.927    -0.038    28.948     8.824
    21   6 C        2.979    -0.015    28.379     8.738
    22   6 C        3.908     0.021    20.168     6.383
    23   6 C        3.761    -0.103    22.519     6.765
    24   6 C        3.761    -0.103    22.514     6.764
    25   6 C        2.978    -0.015    28.377     8.738
    26   6 C        2.928    -0.038    28.949     8.824
    27   6 C        2.917    -0.047    29.178     8.858
    28   6 C        2.919    -0.035    28.881     8.813
    29   6 C        2.924    -0.061    29.508     8.908
    30   6 C        2.928     0.059    26.669     8.469
    31   6 C        2.918    -0.063    29.567     8.917
    32   6 C        2.874     0.139    24.960     8.190
    33   8 O        1.711    -0.233    17.864     5.707
    34   6 C        2.873     0.138    24.994     8.195
    35   6 C        2.912    -0.067    29.678     8.933
    36   6 C        2.923    -0.026    28.645     8.777
    37   6 C        2.912    -0.067    29.661     8.931
    38   6 C        2.874     0.139    24.966     8.191
    39   6 C        2.889    -0.121    31.082     9.140
    40   8 O        1.711    -0.234    17.880     5.709
    41   6 C        2.976     0.004    27.918     8.667
    42   6 C        2.924    -0.033    28.824     8.804
    43   6 C        2.914    -0.056    29.395     8.891
    44   6 C        2.875     0.134    25.075     8.209
    45   6 C        2.883    -0.092    30.297     9.024
    46   6 C        2.933    -0.041    29.008     8.833
    47   5 B        2.724     0.212    18.207     7.150
    48   6 C        2.882    -0.091    30.291     9.023
    49   6 C        2.923    -0.032    28.797     8.800
    50   6 C        2.916    -0.049    29.208     8.862
    51   6 C        2.927     0.073    26.364     8.420
    52   7 N        2.754    -0.074    22.678     7.073
    53   6 C        2.928     0.059    26.676     8.470
    54   6 C        2.924    -0.059    29.478     8.904
    55   6 C        2.919    -0.035    28.868     8.811
    56   6 C        2.917    -0.047    29.160     8.855
    57   6 C        2.928    -0.038    28.948     8.823
    58   6 C        2.979    -0.014    28.361     8.736
    59   6 C        3.909     0.021    20.169     6.383
    60   6 C        3.761    -0.104    22.527     6.766
    61   6 C        3.761    -0.103    22.524     6.766
    62   6 C        2.979    -0.014    28.366     8.736
    63   6 C        2.928    -0.038    28.950     8.824
    64   6 C        2.917    -0.047    29.166     8.856
    65   6 C        2.919    -0.035    28.880     8.813
    66   6 C        2.924    -0.061    29.505     8.908
    67   6 C        2.926     0.059    26.680     8.471
    68   6 C        2.918    -0.064    29.602     8.922
    69   6 C        2.874     0.139    24.969     8.191
    70   8 O        1.711    -0.232    17.849     5.704
    71   6 C        2.872     0.138    24.991     8.195
    72   6 C        2.912    -0.067    29.678     8.933
    73   6 C        2.923    -0.026    28.657     8.779
    74   6 C        2.912    -0.067    29.680     8.933
    75   6 C        2.872     0.139    24.960     8.190
    76   6 C        2.888    -0.120    31.059     9.137
    77   8 O        1.711    -0.234    17.884     5.710
    78   1 H        0.925     0.040     2.454     2.450
    79   1 H        0.925     0.045     2.386     2.416
    80   1 H        0.925     0.040     2.443     2.444
    81   1 H        0.925     0.046     2.364     2.405
    82   1 H        0.925     0.041     2.438     2.442
    83   1 H        0.925     0.041     2.435     2.440
    84   1 H        0.926     0.040     2.455     2.450
    85   1 H        0.926     0.043     2.413     2.429
    86   1 H        0.926     0.055     2.258     2.350
    87   1 H        0.926     0.057     2.237     2.339
    88   1 H        0.926     0.045     2.378     2.412
    89   1 H        0.926     0.024     2.677     2.558
    90   1 H        0.926     0.026     2.648     2.545
    91   1 H        0.926     0.024     2.668     2.554
    92   1 H        0.926     0.031     2.570     2.507
    93   1 H        0.925     0.041     2.435     2.440
    94   1 H        0.925     0.030     2.587     2.515
    95   1 H        0.925     0.041     2.436     2.441
    96   1 H        0.925     0.041     2.437     2.441
    97   1 H        0.925     0.041     2.437     2.441
    98   1 H        0.925     0.029     2.600     2.522
    99   1 H        0.926     0.031     2.570     2.507
   100   1 H        0.926     0.024     2.667     2.554
   101   1 H        0.926     0.025     2.652     2.547
   102   1 H        0.926     0.023     2.689     2.564
   103   1 H        0.926     0.050     2.316     2.380
   104   1 H        0.926     0.049     2.338     2.391
   105   1 H        0.926     0.050     2.321     2.382
   106   1 H        0.926     0.048     2.341     2.393
   107   1 H        0.926     0.049     2.326     2.385
   108   1 H        0.926     0.044     2.397     2.421
   109   1 H        0.926     0.042     2.422     2.434
   110   1 H        0.926     0.050     2.325     2.385
   111   1 H        0.926     0.038     2.482     2.464
   112   1 H        0.926     0.024     2.678     2.559
   113   1 H        0.926     0.026     2.641     2.542
   114   1 H        0.926     0.026     2.643     2.542
   115   1 H        0.926     0.033     2.547     2.496
   116   1 H        0.925     0.030     2.589     2.516
   117   1 H        0.925     0.042     2.419     2.432
   118   1 H        0.925     0.042     2.428     2.437
   119   1 H        0.925     0.042     2.427     2.436
   120   1 H        0.925     0.042     2.424     2.435
   121   1 H        0.925     0.030     2.593     2.518
   122   1 H        0.926     0.033     2.550     2.497
   123   1 H        0.926     0.026     2.650     2.546
   124   1 H        0.926     0.026     2.642     2.542
   125   1 H        0.926     0.024     2.678     2.559
   126   1 H        0.926     0.052     2.297     2.370
   127   1 H        0.926     0.049     2.330     2.387
   128   1 H        0.926     0.051     2.311     2.377
   129   1 H        0.926     0.050     2.323     2.384

molecular dipole:
                 x           y           z       tot (Debye)
 q only:        0.128       1.249       0.275
   full:       -0.070       1.083       0.311       2.869

 projected vibrational frequencies (cm⁻¹)
eigval :       -0.00    -0.00     0.00     0.00     0.00     0.00
eigval :        4.13     8.46     9.29    12.18    14.27    19.79
eigval :       20.52    24.59    25.70    34.10    37.56    43.60
eigval :       46.78    63.46    66.25    73.23    76.51    79.98
eigval :       86.04    99.79   100.70   103.40   104.65   110.84
eigval :      119.34   124.27   132.72   136.64   136.82   144.68
eigval :      152.24   162.91   177.36   195.30   197.79   200.78
eigval :      202.46   218.53   222.35   223.60   224.95   226.38
eigval :      232.40   233.46   237.85   240.18   243.14   244.55
eigval :      252.26   262.21   270.11   275.85   289.67   297.02
eigval :      299.30   303.03   313.34   316.62   320.54   327.50
eigval :      330.99   331.63   332.96   344.38   347.87   350.55
eigval :      359.80   374.61   376.77   379.73   385.90   389.63
eigval :      390.63   393.76   402.55   407.85   411.65   413.57
eigval :      427.52   430.43   435.80   436.26   443.85   452.66
eigval :      454.16   457.16   457.91   467.53   471.21   492.56
eigval :      493.00   499.98   515.09   517.63   523.38   527.38
eigval :      530.53   532.81   537.08   546.17   547.27   548.01
eigval :      549.49   551.91   554.31   574.97   583.21   584.92
eigval :      586.96   587.78   592.34   607.06   609.18   619.16
eigval :      624.07   640.05   640.78   645.48   647.62   648.93
eigval :      661.98   676.34   676.65   683.23   684.85   686.45
eigval :      687.78   693.82   694.52   695.54   699.47   702.90
eigval :      717.27   717.64   722.98   731.71   743.11   770.81
eigval :      774.59   776.32   776.76   778.77   796.65   799.82
eigval :      801.66   815.11   817.04   825.43   827.23   827.76
eigval :      830.82   831.47   835.22   855.23   861.25   862.85
eigval :      866.05   866.66   866.68   869.54   870.65   874.83
eigval :      877.15   883.08   888.89   900.28   900.60   909.68
eigval :      912.89   913.18   913.67   915.05   915.36   915.82
eigval :      916.42   916.74   917.56   919.29   920.77   920.92
eigval :      921.04   922.43   922.52   923.42   937.61   937.81
eigval :      951.24   957.11   957.11   961.93   978.98   996.32
eigval :      997.57  1012.65  1013.71  1013.77  1047.51  1048.15
eigval :     1075.81  1076.45  1078.94  1079.60  1088.07  1088.90
eigval :     1094.54  1095.49  1110.88  1112.00  1112.38  1117.44
eigval :     1118.45  1126.93  1131.92  1132.59  1138.39  1138.50
eigval :     1151.12  1151.94  1158.27  1158.52  1165.99  1166.54
eigval :     1168.10  1170.02  1176.83  1177.30  1177.57  1184.29
eigval :     1185.44  1185.67  1185.94  1200.90  1201.34  1212.32
eigval :     1212.84  1219.41  1219.72  1226.59  1227.89  1241.27
eigval :     1243.79  1245.33  1246.85  1247.38  1247.81  1248.27
eigval :     1252.17  1265.47  1266.27  1266.57  1269.35  1281.24
eigval :     1284.86  1285.39  1288.27  1292.83  1293.17  1305.18
eigval :     1307.00  1323.67  1324.61  1326.79  1328.60  1330.43
eigval :     1334.27  1334.55  1335.62  1335.91  1340.07  1340.58
eigval :     1340.68  1385.00  1385.35  1394.23  1399.56  1399.78
eigval :     1406.90  1407.95  1412.38  1417.83  1418.25  1419.33
eigval :     1419.73  1427.09  1427.42  1435.33  1435.99  1439.51
eigval :     1441.06  1449.22  1451.89  1464.11  1465.52  1476.04
eigval :     1477.37  1486.94  1487.14  1488.03  1488.18  1492.08
eigval :     1494.76  1495.90  1496.24  1496.94  1497.47  1502.87
eigval :     1503.39  1505.22  1506.89  1529.56  1529.95  1539.96
eigval :     1544.77  1559.97  1560.18  1573.22  1573.60  1575.76
eigval :     1576.63  1584.37  1585.85  1589.42  1590.03  1590.42
eigval :     1590.55  1594.82  1596.88  1601.19  1601.36  3019.58
eigval :     3020.51  3023.18  3023.41  3025.24  3026.21  3031.24
eigval :     3037.34  3037.97  3038.31  3038.54  3039.93  3040.34
eigval :     3044.65  3046.58  3047.09  3050.70  3051.44  3069.20
eigval :     3070.15  3070.70  3072.08  3076.35  3076.55  3077.42
eigval :     3078.45  3083.31  3085.24  3086.49  3087.75  3087.91
eigval :     3088.38  3088.47  3088.74  3088.76  3089.95  3095.50
eigval :     3096.20  3096.57  3097.00  3098.41  3098.70  3100.24
eigval :     3102.22  3102.97  3104.64  3107.32  3109.84  3112.18
eigval :     3117.03  3125.28  3133.48

   temp. (K)  partition function   enthalpy   heat capacity  entropy
                                   cal/mol     cal/K/mol   cal/K/mol   J/K/mol
 298.15  VIB  0.428E+30            37882.567    240.194    234.483
         ROT  0.327E+09              888.752      2.981     41.944
         INT  0.140E+39            38771.319    243.175    276.427
         TR   0.304E+29             1481.254      4.968     46.545
         TOT                       40252.5731   248.1429   322.9717  1351.3136

       T/K    H(0)-H(T)+PV         H(T)/Eh          T*S/Eh         G(T)/Eh
   ------------------------------------------------------------------------
    298.15    0.641466E-01    0.106705E+01    0.153454E+00    0.913599E+00
   ------------------------------------------------------------------------

         :::::::::::::::::::::::::::::::::::::::::::::::::::::
         ::                  THERMODYNAMIC                  ::
         :::::::::::::::::::::::::::::::::::::::::::::::::::::
         :: total free energy        -198.187359846180 Eh   ::
         ::.................................................::
         :: total energy             -199.100959121231 Eh   ::
         :: zero point energy           1.002906990141 Eh   ::
         :: G(RRHO) w/o ZPVE           -0.089307715090 Eh   ::
         :: G(RRHO) contrib.            0.913599275051 Eh   ::
         :::::::::::::::::::::::::::::::::::::::::::::::::::::

           -------------------------------------------------
          | TOTAL ENERGY             -199.100959121231 Eh   |
          | TOTAL ENTHALPY           -198.033905572698 Eh   |
          | TOTAL FREE ENERGY        -198.187359846180 Eh   |
          | GRADIENT NORM               0.000058858571 Eh/α |
          | HOMO-LUMO GAP               1.781893759667 eV   |
           -------------------------------------------------

 * finished run on 2025/07/18 at 09:12:39.221
