   * xtb version 6.7.1 (edcfbbe) compiled by 'albert@albert-system' on 2024-07-22

   ID    Z sym.   atoms
    1    6 C      1-9, 11-14, 16-32, 34-39, 41-46, 48-51, 53-69, 71-76
    2    5 B      10, 47
    3    7 N      15, 52
    4    8 O      33, 40, 70, 77
    5    1 H      78-129

          program call               : xtb data2507/toluene/Me2ACBO/Me2ACBO_toluene_T1_crest.xyz --gfn 2 --uhf 2 --gbsa toluene --ohess vtight --parallel 40 --molden --ceasefiles --namespace data2507/toluene/Me2ACBO/Me2ACBO_toluene_T1_finalOpt
      * Solvation model:               GBSA
        Solvent                        toluene
        Solvent mass                       9.2140E+01 g/mol
          :  Hamiltonian                  GFN2-xTB          :
 * total energy  :  -199.0211113 Eh     change       -0.1099755E-07 Eh
 * total energy  :  -199.0213190 Eh     change       -0.2076512E-03 Eh
 * total energy  :  -199.0214525 Eh     change       -0.1335332E-03 Eh
 * total energy  :  -199.0215022 Eh     change       -0.4967994E-04 Eh
 * total energy  :  -199.0215966 Eh     change       -0.9443353E-04 Eh
 * total energy  :  -199.0216775 Eh     change       -0.8090257E-04 Eh
 * total energy  :  -199.0217396 Eh     change       -0.6205126E-04 Eh
 * total energy  :  -199.0217743 Eh     change       -0.3469671E-04 Eh
 * total energy  :  -199.0218016 Eh     change       -0.2735192E-04 Eh
 * total energy  :  -199.0218179 Eh     change       -0.1631558E-04 Eh
 * total energy  :  -199.0220484 Eh     change       -0.1230480E-05 Eh
 * total energy  :  -199.0220498 Eh     change       -0.1395391E-05 Eh
 * total energy  :  -199.0220511 Eh     change       -0.1272461E-05 Eh
 * total energy  :  -199.0220522 Eh     change       -0.1111902E-05 Eh
 * total energy  :  -199.0220533 Eh     change       -0.1090381E-05 Eh
 * total energy  :  -199.0220545 Eh     change       -0.1210282E-05 Eh
 * total energy  :  -199.0220557 Eh     change       -0.1233222E-05 Eh
 * total energy  :  -199.0220569 Eh     change       -0.1131776E-05 Eh
 * total energy  :  -199.0220569 Eh     change       -0.3460826E-08 Eh
   *** GEOMETRY OPTIMIZATION CONVERGED AFTER 68 ITERATIONS ***

 final structure:
================
129
 xtb: 6.7.1 (edcfbbe)
C           -5.79925899988687       -0.22563539927859       -4.92007532546345
C           -4.71743878799891       -0.47091581012356       -3.85883331533674
C           -3.69786268752469       -1.45531132179504       -4.45785155431518
C           -4.07554941593794        0.85059132669213       -3.44914541782581
C           -4.86834462002893        1.98118477907014       -3.24571368530326
C           -4.31638912180321        3.15443154316308       -2.77108919368087
C           -2.96520354661419        3.21938795084192       -2.44457536223341
C           -2.11896697102916        2.10950732390689       -2.64095545591285
C           -2.72232787451033        0.95606508705864       -3.16250078498661
B           -0.66247891169802        2.23684778098437       -2.14272411230887
C            0.54250269832689        1.28149569102069       -2.17563710701802
C            0.66192613144356        0.09713369905557       -2.92900198304848
C            1.70787392857254       -0.78275994581852       -2.77268694511173
C            2.70570315171936       -0.51505156678132       -1.83661730348587
N            3.74279310651966       -1.46230506836539       -1.61927427103080
C            3.41904390107311       -2.66412124466706       -1.01966251596054
C            2.11664962013312       -2.87204981442234       -0.54178443744860
C            1.75488217844730       -4.06816373429774        0.03550511618906
C            2.69125291672946       -5.08293422522159        0.16296913838195
C            3.98541527331498       -4.87203690263596       -0.27708070783537
C            4.37852085785411       -3.67674886563354       -0.86440915727055
C            5.81210907942426       -3.50303510737265       -1.31761654500511
C            6.12097215725969       -4.56697176832187       -2.39035706096979
C            6.74434646355900       -3.68794824871264       -0.10504629200956
C            6.05168824083638       -2.13412572928309       -1.91822462404673
C            7.31991432337604       -1.80080128700422       -2.37503299285425
C            7.58741348742334       -0.58393727054268       -2.97481920039432
C            6.55947939587097        0.33045267794394       -3.14688059758961
C            5.29214345457304        0.02852571636652       -2.70194084643074
C            5.02157243894706       -1.19136110372835       -2.06462477155061
C            2.67742320938129        0.68422581341549       -1.12859390904534
C            1.63188600247287        1.57974202452494       -1.32065380353209
O            1.74895672970689        2.73864126581187       -0.60100250849934
C            0.80738457926794        3.72657659412343       -0.67650744817800
C            1.08711670202625        4.92444613247868       -0.03416863868096
C            0.14684838225568        5.94343762607646       -0.06275722076740
C           -1.07077523407413        5.76803060162276       -0.69883155285326
C           -1.34014587124186        4.55944692906385       -1.33205701510367
C           -0.39647608386616        3.52263975678978       -1.36242975459969
O           -2.56080538970125        4.41839492902102       -1.91768970774238
C           -5.27221985854988       -1.10746469488169       -2.58601296140173
C           -6.50378204824656       -1.75453397070129       -2.52075108976223
C           -6.93332887581783       -2.32435656687045       -1.33438638540136
C           -6.14195010178461       -2.26774268166108       -0.19089178885033
C           -4.87002241707138       -1.66216626015988       -0.22643972699085
C           -4.49085174318631       -1.08600505784530       -1.44166750522292
B           -4.05637672187376       -1.62739884241807        1.08150067328092
C           -2.64108324831802       -1.12612389968627        1.41094410600060
C           -1.64010174700543       -0.77310226234179        0.48880496290950
C           -0.45692769453683       -0.18625375913432        0.87028643282587
C           -0.21895184766241        0.08180068720831        2.21477878564931
N            0.94340670678531        0.82126005132728        2.57859966710285
C            0.81678488134849        2.17470355099461        2.81880168625021
C           -0.45142805045933        2.77181373903064        2.77703122536900
C           -0.61116925763818        4.11273895685612        3.04127982525653
C            0.49384293625156        4.89220324446190        3.34585913984998
C            1.74966043994352        4.31446486461479        3.36092070498415
C            1.94249188842333        2.96507622106426        3.09900605696372
C            3.34594624105140        2.39827258667340        3.09545524222007
C            4.16058260513704        3.13320965554161        2.01268257530504
C            3.98043332717186        2.62080865388769        4.48295072980914
C            3.35394369492904        0.91460295822129        2.79740824137332
C            4.55790873115625        0.22412928033704        2.76861527003862
C            4.61476753150235       -1.13906756860119        2.54285471214689
C            3.44159352442496       -1.84978250717634        2.34301341622645
C            2.23353717160853       -1.18983856633512        2.35497929773780
C            2.17075820822732        0.19426426792545        2.56945394695791
C           -1.13442801004105       -0.33918782972763        3.17428311467448
C           -2.31641172651214       -0.95661653214527        2.77631487428487
O           -3.11824678054162       -1.36149555120752        3.80874940584078
C           -4.31671631630132       -1.98033785329236        3.59037734858094
C           -5.00761878148452       -2.44999117639618        4.69989531350789
C           -6.24229177084461       -3.05653051247200        4.52068057784937
C           -6.79980290162146       -3.18287742551421        3.25792519835452
C           -6.10284676899438       -2.70281226365492        2.15458720263451
C           -4.83969181224163       -2.10923929114718        2.29676959727908
O           -6.69354831315611       -2.82906631500648        0.93277587223083
H           -6.67039234596223        0.27145973110763       -4.50293125003638
H           -6.12267185747083       -1.16665105162324       -5.35904153863786
H           -5.39264971222452        0.39737360149534       -5.71465878404313
H           -3.17109334341541       -0.99530264429744       -5.29151452757246
H           -4.22002415813270       -2.33842886865120       -4.82111913088984
H           -2.97829858322701       -1.78549079417313       -3.71386065534552
H           -5.92888079334687        1.95386115744737       -3.43717497484069
H           -4.93001159396817        4.02921578175034       -2.61125083134226
H           -2.08670789270954        0.09959742508170       -3.30410126193038
H           -0.09585763836191       -0.12300853218226       -3.66312120135832
H            1.75999756027939       -1.68850020546510       -3.35937978300047
H            1.38830072787321       -2.08223036201369       -0.62077923869369
H            0.74429735676384       -4.20569148333069        0.38997715971701
H            2.41812931189149       -6.02652891090599        0.61046706058125
H            4.70486950452668       -5.66722770108705       -0.15854835635454
H            7.14354626097805       -4.47309095542213       -2.74390524279057
H            5.45082632300771       -4.44464552274023       -3.23940384497381
H            5.98816615712510       -5.56752012710019       -1.98932137611142
H            6.58855094922319       -4.65695536491251        0.35950254110549
H            7.78570421243139       -3.61912483860835       -0.40484931048540
H            6.54493040832260       -2.91413977606460        0.63259398041127
H            8.12569597809734       -2.51024559759297       -2.26909020702885
H            8.58543240057038       -0.35654177133186       -3.31704319471018
H            6.74388474368152        1.27688581873297       -3.63254242507082
H            4.49308339065348        0.73635635210030       -2.85239205634974
H            3.45733071911128        0.92214372886623       -0.42169950703563
H            2.02774286020854        5.05006643069004        0.47682798635609
H            0.36296063865893        6.88129307226292        0.42510659652915
H           -1.81580717583839        6.54882883263300       -0.70909143786081
H           -7.14661111757792       -1.81702545937048       -3.38419254531038
H           -7.89659088705799       -2.81003629931977       -1.27418027378877
H           -3.54452053851436       -0.57343683291133       -1.47325612337215
H           -1.80703956288867       -0.96251234707022       -0.55812787882146
H            0.27589909481100        0.10604867603010        0.13563783908523
H           -1.31256426199286        2.17193270390955        2.52900432111233
H           -1.59728844982609        4.55026097041006        3.00530363705736
H            0.37805241950672        5.94349943767991        3.55906242975955
H            2.60120337286789        4.93965868718879        3.58045516910432
H            3.65938997230478        3.03983132967299        1.05124667720691
H            4.25271289225980        4.18865287620505        2.25241764195534
H            5.15970289686402        2.71529419378530        1.92802350426256
H            3.41600646069479        2.07967222411099        5.24023890283983
H            5.00702777106872        2.26705017010075        4.49883071424987
H            3.97955126881979        3.67508202574483        4.74294952624746
H            5.48037766627812        0.75901553093143        2.93375742154718
H            5.56811804747701       -1.64452153887743        2.53903236382070
H            3.46678723939822       -2.91596914086944        2.18071236750422
H            1.31861766998446       -1.74070583083519        2.20761458325662
H           -0.94776266716010       -0.18074530749784        4.22570837360837
H           -4.57889982672404       -2.33572853512479        5.68356408020085
H           -6.78129402384551       -3.42805291085556        5.37894541906638
H           -7.76604215377705       -3.64257269160208        3.11761729143290

          :  Hamiltonian                  GFN2-xTB          :
         :: gradient norm              0.000059590203 Eh/a0 ::
         :: HOMO-LUMO gap              0.015174818521 eV    ::
         :: SCC energy              -202.391814584925 Eh    ::
         :: -> dispersion             -0.209536973286 Eh    ::
         :: -> Gsolv                  -0.069262175267 Eh    ::
         :: repulsion energy           3.369757708377 Eh    ::

    * Orbital Energies and Occupations

         #    Occupation            Energy/Eh            Energy/eV
      -------------------------------------------------------------
         1        2.0000           -0.7235663             -19.6892
       ...           ...                  ...                  ...
       173        2.0000           -0.3928137             -10.6890
       174        2.0000           -0.3918795             -10.6636
       175        2.0000           -0.3842394             -10.4557
       176        2.0000           -0.3835572             -10.4371
       177        2.0000           -0.3822916             -10.4027
       178        2.0000           -0.3806094             -10.3569
       179        2.0000           -0.3780153             -10.2863
       180        2.0000           -0.3759787             -10.2309
       181        1.9942           -0.3629429              -9.8762
       182        1.9384           -0.3606470              -9.8137
       183        1.6387           -0.3586007              -9.7580
       184        1.4288           -0.3577870              -9.7359
       185        0.5728           -0.2643636              -7.1937 (HOMO)
       186        0.4272           -0.2638061              -7.1785 (LUMO)
       187                         -0.2379972              -6.4762
       188                         -0.2375112              -6.4630
       189                         -0.2313674              -6.2958
       190                         -0.2302123              -6.2644
       191                         -0.2296876              -6.2501
       192                         -0.2289962              -6.2313
       193                         -0.2283123              -6.2127
       194                         -0.2278099              -6.1990
       195                         -0.2231092              -6.0711
       196                         -0.2212645              -6.0209
       ...                                ...                  ...
       360                          0.7139098              19.4265
      -------------------------------------------------------------
                  HL-Gap            0.0005575 Eh            0.0152 eV

     #   Z          covCN         q      C6AA      α(0)
     1   6 C        3.759    -0.103    22.525     6.766
     2   6 C        3.907     0.018    20.222     6.392
     3   6 C        3.762    -0.103    22.515     6.764
     4   6 C        2.970     0.002    27.969     8.675
     5   6 C        2.925    -0.043    29.065     8.841
     6   6 C        2.912    -0.061    29.519     8.909
     7   6 C        2.873     0.129    25.168     8.224
     8   6 C        2.881    -0.094    30.372     9.035
     9   6 C        2.930    -0.051    29.272     8.873
    10   5 B        2.724     0.179    18.683     7.242
    11   6 C        2.882    -0.093    30.332     9.029
    12   6 C        2.922    -0.045    29.117     8.849
    13   6 C        2.914    -0.050    29.240     8.867
    14   6 C        2.928     0.046    26.974     8.517
    15   7 N        2.754    -0.026    21.751     6.927
    16   6 C        2.930     0.061    26.626     8.462
    17   6 C        2.923    -0.048    29.195     8.861
    18   6 C        2.918    -0.028    28.709     8.786
    19   6 C        2.917    -0.034    28.856     8.809
    20   6 C        2.926    -0.034    28.847     8.808
    21   6 C        2.979    -0.003    28.100     8.695
    22   6 C        3.909     0.024    20.119     6.375
    23   6 C        3.761    -0.107    22.582     6.774
    24   6 C        3.761    -0.107    22.594     6.776
    25   6 C        2.979    -0.004    28.111     8.697
    26   6 C        2.926    -0.034    28.847     8.808
    27   6 C        2.917    -0.035    28.859     8.809
    28   6 C        2.918    -0.029    28.732     8.790
    29   6 C        2.923    -0.050    29.235     8.867
    30   6 C        2.927     0.061    26.630     8.463
    31   6 C        2.915    -0.073    29.829     8.956
    32   6 C        2.869     0.135    25.050     8.204
    33   8 O        1.710    -0.257    18.261     5.770
    34   6 C        2.871     0.129    25.176     8.225
    35   6 C        2.913    -0.069    29.721     8.940
    36   6 C        2.922    -0.039    28.961     8.825
    37   6 C        2.912    -0.069    29.712     8.938
    38   6 C        2.873     0.131    25.130     8.218
    39   6 C        2.888    -0.122    31.106     9.144
    40   8 O        1.710    -0.256    18.240     5.766
    41   6 C        2.974     0.002    27.979     8.676
    42   6 C        2.923    -0.044    29.086     8.844
    43   6 C        2.913    -0.062    29.531     8.911
    44   6 C        2.871     0.129    25.171     8.224
    45   6 C        2.883    -0.094    30.366     9.034
    46   6 C        2.933    -0.052    29.296     8.877
    47   5 B        2.726     0.181    18.662     7.238
    48   6 C        2.883    -0.094    30.356     9.033
    49   6 C        2.924    -0.044    29.094     8.845
    50   6 C        2.916    -0.053    29.321     8.879
    51   6 C        2.929     0.049    26.906     8.507
    52   7 N        2.755    -0.029    21.807     6.936
    53   6 C        2.930     0.065    26.549     8.450
    54   6 C        2.923    -0.049    29.229     8.866
    55   6 C        2.918    -0.029    28.723     8.789
    56   6 C        2.917    -0.033    28.815     8.803
    57   6 C        2.926    -0.033    28.830     8.805
    58   6 C        2.979    -0.002    28.059     8.689
    59   6 C        3.909     0.025    20.101     6.373
    60   6 C        3.761    -0.105    22.562     6.771
    61   6 C        3.761    -0.107    22.599     6.777
    62   6 C        2.979    -0.003    28.098     8.695
    63   6 C        2.925    -0.035    28.864     8.811
    64   6 C        2.918    -0.035    28.862     8.810
    65   6 C        2.918    -0.029    28.732     8.790
    66   6 C        2.924    -0.049    29.217     8.864
    67   6 C        2.929     0.064    26.573     8.454
    68   6 C        2.915    -0.072    29.801     8.952
    69   6 C        2.870     0.134    25.063     8.206
    70   8 O        1.710    -0.254    18.200     5.760
    71   6 C        2.869     0.130    25.157     8.222
    72   6 C        2.912    -0.069    29.714     8.939
    73   6 C        2.922    -0.038    28.949     8.823
    74   6 C        2.912    -0.069    29.711     8.938
    75   6 C        2.870     0.132    25.119     8.216
    76   6 C        2.889    -0.121    31.082     9.140
    77   8 O        1.709    -0.256    18.238     5.766
    78   1 H        0.925     0.036     2.506     2.476
    79   1 H        0.925     0.040     2.455     2.450
    80   1 H        0.925     0.037     2.483     2.464
    81   1 H        0.925     0.042     2.424     2.435
    82   1 H        0.925     0.037     2.486     2.465
    83   1 H        0.925     0.039     2.462     2.454
    84   1 H        0.926     0.030     2.581     2.512
    85   1 H        0.926     0.029     2.604     2.523
    86   1 H        0.926     0.043     2.408     2.427
    87   1 H        0.926     0.041     2.439     2.442
    88   1 H        0.926     0.035     2.518     2.482
    89   1 H        0.926     0.041     2.431     2.438
    90   1 H        0.926     0.037     2.496     2.470
    91   1 H        0.926     0.039     2.464     2.455
    92   1 H        0.926     0.046     2.364     2.404
    93   1 H        0.925     0.049     2.328     2.386
    94   1 H        0.925     0.035     2.520     2.483
    95   1 H        0.925     0.050     2.325     2.384
    96   1 H        0.925     0.049     2.332     2.388
    97   1 H        0.925     0.050     2.326     2.385
    98   1 H        0.925     0.038     2.477     2.461
    99   1 H        0.926     0.047     2.363     2.404
   100   1 H        0.926     0.040     2.451     2.448
   101   1 H        0.926     0.039     2.468     2.456
   102   1 H        0.926     0.040     2.445     2.445
   103   1 H        0.926     0.040     2.446     2.446
   104   1 H        0.926     0.043     2.409     2.427
   105   1 H        0.926     0.039     2.462     2.454
   106   1 H        0.926     0.037     2.490     2.468
   107   1 H        0.926     0.037     2.485     2.465
   108   1 H        0.926     0.031     2.568     2.506
   109   1 H        0.926     0.039     2.466     2.455
   110   1 H        0.926     0.042     2.425     2.435
   111   1 H        0.926     0.033     2.543     2.494
   112   1 H        0.926     0.034     2.532     2.488
   113   1 H        0.926     0.035     2.515     2.480
   114   1 H        0.926     0.041     2.429     2.437
   115   1 H        0.926     0.048     2.343     2.394
   116   1 H        0.925     0.044     2.402     2.424
   117   1 H        0.925     0.046     2.374     2.410
   118   1 H        0.925     0.047     2.354     2.399
   119   1 H        0.925     0.035     2.515     2.480
   120   1 H        0.925     0.051     2.308     2.376
   121   1 H        0.925     0.049     2.328     2.386
   122   1 H        0.926     0.047     2.362     2.403
   123   1 H        0.926     0.040     2.453     2.449
   124   1 H        0.926     0.040     2.447     2.446
   125   1 H        0.926     0.039     2.460     2.453
   126   1 H        0.926     0.042     2.427     2.436
   127   1 H        0.926     0.040     2.451     2.448
   128   1 H        0.926     0.039     2.458     2.452
   129   1 H        0.926     0.039     2.467     2.456

molecular dipole:
                 x           y           z       tot (Debye)
 q only:        5.982      -1.240      -0.027
   full:        5.531      -1.028       0.115      14.302

 projected vibrational frequencies (cm⁻¹)
eigval :       -0.00    -0.00    -0.00     0.00     0.00     0.00
eigval :        4.73    11.13    13.75    18.79    25.69    28.49
eigval :       28.97    34.04    36.32    42.69    48.11    51.34
eigval :       58.75    66.60    68.96    74.53    81.25    82.64
eigval :       88.36    96.18   100.02   104.37   106.84   117.50
eigval :      122.36   126.43   129.77   137.90   142.88   153.50
eigval :      156.36   166.97   187.51   192.72   201.81   205.90
eigval :      214.28   216.01   218.55   223.72   227.34   230.58
eigval :      234.44   234.73   237.14   240.50   241.31   250.87
eigval :      255.51   263.03   265.09   283.28   284.35   296.97
eigval :      298.04   307.08   313.94   317.65   325.15   327.66
eigval :      328.79   330.89   333.79   343.03   345.28   353.56
eigval :      366.49   375.30   377.16   379.70   380.37   382.85
eigval :      393.68   396.46   402.87   405.77   409.52   411.60
eigval :      420.17   423.10   431.62   434.78   445.12   450.23
eigval :      451.62   457.52   458.55   462.40   465.52   493.46
eigval :      503.46   507.14   509.63   511.32   515.78   520.92
eigval :      525.35   530.18   534.67   540.81   541.73   545.19
eigval :      545.43   548.77   551.42   569.86   573.25   575.40
eigval :      583.71   584.21   584.85   597.44   604.34   617.42
eigval :      619.28   628.28   631.93   640.68   641.19   643.28
eigval :      659.11   671.83   672.15   672.51   672.66   685.61
eigval :      686.57   686.94   688.66   694.06   700.77   702.46
eigval :      703.44   706.89   715.89   727.79   736.66   766.44
eigval :      769.35   772.31   773.22   780.50   782.44   785.04
eigval :      794.02   806.29   807.22   812.26   814.37   824.11
eigval :      825.31   826.39   828.32   845.18   846.81   850.16
eigval :      854.85   858.01   862.97   863.63   868.71   869.15
eigval :      870.34   874.61   875.62   895.39   895.94   897.45
eigval :      897.51   898.25   899.30   900.63   902.81   911.48
eigval :      912.63   913.45   915.55   915.93   916.47   917.56
eigval :      921.37   923.01   923.22   927.36   936.15   937.98
eigval :      946.11   956.30   958.58   960.54   973.87   988.01
eigval :      990.15  1012.03  1013.95  1014.75  1032.44  1035.04
eigval :     1065.12  1073.70  1074.29  1074.82  1084.85  1086.06
eigval :     1088.81  1090.01  1105.95  1107.42  1111.05  1112.62
eigval :     1113.49  1122.51  1124.48  1130.20  1136.54  1137.22
eigval :     1146.46  1148.59  1148.80  1148.97  1163.42  1166.01
eigval :     1166.21  1167.11  1174.39  1175.49  1176.08  1180.94
eigval :     1181.46  1182.77  1184.25  1194.59  1197.16  1201.60
eigval :     1208.02  1213.59  1214.94  1217.75  1221.98  1232.76
eigval :     1237.05  1237.66  1239.10  1241.85  1242.97  1244.13
eigval :     1245.37  1246.98  1249.26  1258.43  1259.12  1269.01
eigval :     1273.87  1277.06  1279.22  1292.87  1293.13  1301.77
eigval :     1306.72  1311.98  1312.66  1316.45  1319.58  1321.32
eigval :     1326.38  1327.22  1329.64  1333.30  1336.09  1340.04
eigval :     1343.48  1374.01  1378.60  1383.15  1387.88  1395.14
eigval :     1396.52  1399.20  1413.61  1413.69  1414.41  1414.73
eigval :     1415.29  1415.47  1416.92  1418.96  1419.18  1426.96
eigval :     1428.56  1439.05  1440.49  1452.95  1454.32  1454.48
eigval :     1455.81  1474.60  1476.76  1481.00  1482.67  1483.33
eigval :     1484.56  1485.86  1487.50  1492.19  1494.95  1495.24
eigval :     1496.33  1500.16  1501.67  1507.77  1509.72  1518.30
eigval :     1519.59  1525.02  1525.63  1541.52  1547.11  1549.11
eigval :     1550.64  1552.34  1553.79  1561.78  1564.10  1566.36
eigval :     1576.82  1577.33  1578.57  1587.48  1589.21  3019.70
eigval :     3022.87  3023.14  3025.49  3027.27  3030.96  3036.97
eigval :     3038.36  3042.50  3044.29  3045.22  3046.32  3048.09
eigval :     3048.58  3050.64  3053.83  3056.99  3058.09  3075.42
eigval :     3076.04  3077.21  3080.58  3081.70  3082.77  3083.02
eigval :     3085.20  3085.97  3087.99  3089.30  3089.98  3090.98
eigval :     3091.62  3093.30  3095.31  3096.98  3097.89  3098.22
eigval :     3099.85  3099.99  3101.16  3101.32  3103.65  3107.82
eigval :     3109.04  3110.42  3111.84  3112.03  3114.44  3121.23
eigval :     3122.72  3127.54  3135.61

   temp. (K)  partition function   enthalpy   heat capacity  entropy
                                   cal/mol     cal/K/mol   cal/K/mol   J/K/mol
 298.15  VIB  0.662E+28            37822.703    243.057    231.724
         ROT  0.205E+09              888.752      2.981     41.018
         INT  0.136E+37            38711.455    246.038    272.742
         TR   0.304E+29             1481.254      4.968     46.545
         TOT                       40192.7090   251.0059   319.2868  1335.8958

       T/K    H(0)-H(T)+PV         H(T)/Eh          T*S/Eh         G(T)/Eh
   ------------------------------------------------------------------------
    298.15    0.640512E-01    0.106363E+01    0.151703E+00    0.911926E+00
   ------------------------------------------------------------------------

         :::::::::::::::::::::::::::::::::::::::::::::::::::::
         ::                  THERMODYNAMIC                  ::
         :::::::::::::::::::::::::::::::::::::::::::::::::::::
         :: total free energy        -198.110130505222 Eh   ::
         ::.................................................::
         :: total energy             -199.022056875931 Eh   ::
         :: zero point energy           0.999578653860 Eh   ::
         :: G(RRHO) w/o ZPVE           -0.087652283151 Eh   ::
         :: G(RRHO) contrib.            0.911926370709 Eh   ::
         :::::::::::::::::::::::::::::::::::::::::::::::::::::

           -------------------------------------------------
          | TOTAL ENERGY             -199.022056875931 Eh   |
          | TOTAL ENTHALPY           -197.958427063228 Eh   |
          | TOTAL FREE ENERGY        -198.110130505222 Eh   |
          | GRADIENT NORM               0.000060126647 Eh/α |
          | HOMO-LUMO GAP               0.015171251930 eV   |
           -------------------------------------------------

 * finished run on 2025/07/18 at 09:37:08.538
