   * xtb version 6.7.1 (edcfbbe) compiled by 'albert@albert-system' on 2024-07-22

   ID    Z sym.   atoms
    1    6 C      1-28, 30-45, 47-63
    2    7 N      29, 46
    3    1 H      64-101

          program call               : xtb data2507/gas/PyIAnTPh/PyIAnTPh.xyz --gfn 2 --ohess vtight --parallel 40 --molden --ceasefiles --namespace data2507/gas/PyIAnTPh/PyIAnTPh_gas_S0_preOpt
          :  Hamiltonian                  GFN2-xTB          :
 * total energy  :  -155.8919199 Eh     change       -0.2623807E-08 Eh
 * total energy  :  -155.9099096 Eh     change       -0.1798970E-01 Eh
 * total energy  :  -155.9149276 Eh     change       -0.5017986E-02 Eh
 * total energy  :  -155.9160021 Eh     change       -0.1074570E-02 Eh
 * total energy  :  -155.9167224 Eh     change       -0.7202269E-03 Eh
 * total energy  :  -155.9170764 Eh     change       -0.3540475E-03 Eh
 * total energy  :  -155.9174265 Eh     change       -0.3500725E-03 Eh
 * total energy  :  -155.9177692 Eh     change       -0.3427606E-03 Eh
 * total energy  :  -155.9180465 Eh     change       -0.2773029E-03 Eh
 * total energy  :  -155.9183111 Eh     change       -0.2645586E-03 Eh
 * total energy  :  -155.9201379 Eh     change       -0.4311520E-06 Eh
 * total energy  :  -155.9201383 Eh     change       -0.3803577E-06 Eh
 * total energy  :  -155.9201386 Eh     change       -0.3301468E-06 Eh
 * total energy  :  -155.9201389 Eh     change       -0.3226767E-06 Eh
 * total energy  :  -155.9201393 Eh     change       -0.3651399E-06 Eh
 * total energy  :  -155.9201397 Eh     change       -0.3419850E-06 Eh
 * total energy  :  -155.9201399 Eh     change       -0.2750294E-06 Eh
 * total energy  :  -155.9201402 Eh     change       -0.3164379E-06 Eh
 * total energy  :  -155.9201402 Eh     change       -0.2692502E-08 Eh
   *** GEOMETRY OPTIMIZATION CONVERGED AFTER 122 ITERATIONS ***

 final structure:
================
101
 xtb: 6.7.1 (edcfbbe)
C           -9.65358395502968        4.03753398543873        2.72948907268954
C          -10.10243471891066        3.55149091793812        1.51298359202422
C           -9.38096512604606        2.58079620224104        0.84351375990353
C           -8.19496550805478        2.08371974329422        1.37810224040804
C           -7.42655091845414        1.05095186120175        0.66602345609441
C           -8.07659618551306       -0.01327522128479        0.05009054214982
C           -7.36103950054823       -1.00113908945213       -0.61814794626954
C           -8.05849598231930       -2.12907651111574       -1.25450928155149
C           -7.55293607111715       -3.42287861658327       -1.15317497441308
C           -8.21102526900544       -4.48359919727256       -1.74710435157776
C           -9.38085503559271       -4.26876347456517       -2.45629854757198
C           -9.89043829237910       -2.98585686155840       -2.56620012669897
C           -9.23675754388475       -1.92475477278331       -1.96815310437878
C           -5.97360076733668       -0.91149672584444       -0.66942073204033
C           -5.30818543631628        0.14687469580142       -0.06392687763072
C           -3.83296867146278        0.22810961972490       -0.12398508622886
C           -3.21784670034427        1.21130510317750       -0.91082541922581
C           -3.97627760128641        2.12979568177984       -1.68343593834080
C           -3.36925834391218        3.06936444244533       -2.45801238364694
C           -1.96324915680793        3.13784320401691       -2.52127840056225
C           -1.19957996273808        2.26848011895879       -1.80522927764122
C           -1.79132292559817        1.28535197787791       -0.96898468229222
C           -1.01572726695173        0.37682412639556       -0.23425341678321
C            0.45767801636508        0.45506530482149       -0.28112687791405
C            1.12928121077804        1.54794949647801        0.26180509051594
C            2.50778363760187        1.59836251544321        0.25508087587860
C            3.25077346200223        0.55142632828320       -0.28888357556202
C            4.70242826937806        0.62618864583383       -0.23612829258337
N            5.38707047766910        1.72198753753032       -0.44087712199567
C            6.69476817294420        1.37768621609124       -0.30563817034742
C            7.83776484303297        2.21256801928957       -0.46444954094586
C            7.74892968047816        3.55550927296627       -0.81221901717436
C            8.89834451869340        4.31052994190688       -0.97101905617591
C           10.14029618125619        3.73802653992851       -0.78112949775593
C           10.26592178956963        2.39244108272776       -0.42410759421647
C           11.54113668787517        1.79356574248878       -0.21062347011594
C           11.64887678713358        0.49902057608431        0.16262578856640
C           10.49499139202156       -0.31765540459312        0.34935702090930
C           10.61260642729079       -1.64649905982595        0.76533677362459
C            9.48952522911322       -2.41897957402582        0.97098550820225
C            8.22651060324255       -1.90168257181567        0.73825055588111
C            8.06266682936923       -0.59226864766427        0.29004991454350
C            9.21101209707743        0.23485907628125        0.11788158273686
C            9.10071162657751        1.60277124345163       -0.26168284603311
C            6.80811503272554        0.02287152792481        0.01025154740125
N            5.51620128211726       -0.45122347516956        0.04065561384389
C            5.05100938867457       -1.75473399408713        0.29825184432099
C            5.39938689635414       -2.80330813707087       -0.54765646672745
C            4.89662878828426       -4.06932226475152       -0.31087453255837
C            4.04173162458815       -4.29209172110268        0.75662788962245
C            3.69313027989024       -3.24633909981065        1.59488121425493
C            4.19615568195585       -1.97760403842834        1.37149536304614
C            2.58045189099173       -0.52280138999974       -0.87096254450674
C            1.20107571201102       -0.56833165306022       -0.86249788798641
C           -1.63161230079155       -0.60780247910475        0.55297249746783
C           -0.87787391789779       -1.52491257947604        1.33251420451905
C           -1.48820746693793       -2.46848285187796        2.09982434585314
C           -2.89423905186351       -2.54445767232697        2.15054442465522
C           -3.65364079970532       -1.67307634869894        1.43291400714914
C           -3.05823592215127       -0.68307451669086        0.60724254655321
C           -6.03839669617187        1.12268594328778        0.60227092426062
C           -7.75081025445135        2.58218840677361        2.60030472406498
C           -8.47638682947052        3.54902621502416        3.27097419780258
H          -10.21896856211660        4.79409130038662        3.25334103696417
H          -11.01810081518480        3.93197584604846        1.08380207232306
H           -9.72788446701681        2.21696316851188       -0.11294074923099
H           -9.15083392348949       -0.09603784290109        0.12756472332907
H           -6.64839872254299       -3.59898061297296       -0.58883937582375
H           -7.81073376890267       -5.48298892367491       -1.65536700007788
H           -9.89326704712414       -5.09773846648885       -2.92181289907996
H          -10.80048898776810       -2.81183946908963       -3.12200643268848
H           -9.63040601491857       -0.92380608837688       -2.07088962192116
H           -5.40361585341715       -1.65753132484607       -1.20424894738523
H           -5.05367891631802        2.06402634771215       -1.65067683730361
H           -3.95983380481808        3.76214567328817       -3.03939615090612
H           -1.49741213063681        3.88063478498990       -3.15207386574518
H           -0.12266755514047        2.30990802201241       -1.87137187867617
H            0.55925321561954        2.35201703885474        0.70462454539358
H            3.03269319946521        2.44030091451328        0.67910038262862
H            6.77000763553335        3.98476601770638       -0.95759689398181
H            8.82298621220524        5.35296932892947       -1.24497726230044
H           11.03603068387408        4.33051552360125       -0.90394276312412
H           12.42144954622746        2.40580775999402       -0.34756074853132
H           12.61764443489214        0.05083876268329        0.33364360682830
H           11.59674894658592       -2.05809255910280        0.93755777838674
H            9.58935041401179       -3.43795980665954        1.31620741178619
H            7.36346918331100       -2.52229152834909        0.92058831760243
H            6.06006973465257       -2.61674378138937       -1.38195165770129
H            5.16850175159724       -4.88275725722188       -0.96675718888440
H            3.64697815493232       -5.28104022551575        0.93357602812045
H            3.02783024372440       -3.41783905585634        2.42764349031462
H            3.92971818364533       -1.15512351307868        2.01872812362344
H            3.13429209895032       -1.31842249436529       -1.34646516215696
H            0.68720062277387       -1.40382412091278       -1.31592287454902
H            0.19984756882314       -1.45745735683430        1.31146653000754
H           -0.90000008471125       -3.16011756984331        2.68533142383687
H           -3.36216317354067       -3.29275642611533        2.77350032028131
H           -4.73132611416449       -1.71718877631878        1.48835135239567
H           -5.51854847997966        1.95046382343481        1.06272520552193
H           -6.84137218007600        2.19320892688502        3.03510122093474
H           -8.12327156698429        3.92221859745222        4.22145666039522

          :  Hamiltonian                  GFN2-xTB          :
         :: gradient norm              0.000039003920 Eh/a0 ::
         :: HOMO-LUMO gap              2.021358197037 eV    ::
         :: SCC energy              -158.941640869657 Eh    ::
         :: -> dispersion             -0.150418648039 Eh    ::
         :: repulsion energy           3.021500622755 Eh    ::

    * Orbital Energies and Occupations

         #    Occupation            Energy/Eh            Energy/eV
      -------------------------------------------------------------
         1        2.0000           -0.6850828             -18.6421
       ...           ...                  ...                  ...
       134        2.0000           -0.4044597             -11.0059
       135        2.0000           -0.4043047             -11.0017
       136        2.0000           -0.4041205             -10.9967
       137        2.0000           -0.4002663             -10.8918
       138        2.0000           -0.3996260             -10.8744
       139        2.0000           -0.3988827             -10.8542
       140        2.0000           -0.3888287             -10.5806
       141        2.0000           -0.3861605             -10.5080
       142        2.0000           -0.3831425             -10.4258
       143        2.0000           -0.3812097             -10.3732
       144        2.0000           -0.3742823             -10.1847
       145        2.0000           -0.3586805              -9.7602
       146        2.0000           -0.3545201              -9.6470 (HOMO)
       147                         -0.2802365              -7.6256 (LUMO)
       148                         -0.2679741              -7.2919
       149                         -0.2516326              -6.8473
       150                         -0.2484782              -6.7614
       151                         -0.2425758              -6.6008
       152                         -0.2419230              -6.5831
       153                         -0.2398713              -6.5272
       154                         -0.2330621              -6.3419
       155                         -0.2308433              -6.2816
       156                         -0.2263769              -6.1600
       157                         -0.2224870              -6.0542
       ...                                ...                  ...
       290                          0.7366393              20.0450
      -------------------------------------------------------------
                  HL-Gap            0.0742835 Eh            2.0214 eV

     #   Z          covCN         q      C6AA      α(0)
     1   6 C        2.920    -0.031    28.769     8.796
     2   6 C        2.919    -0.030    28.739     8.791
     3   6 C        2.925    -0.033    28.832     8.806
     4   6 C        2.978     0.010    27.785     8.646
     5   6 C        2.974     0.008    27.829     8.653
     6   6 C        2.930    -0.042    29.047     8.839
     7   6 C        2.974     0.008    27.832     8.654
     8   6 C        2.978     0.010    27.784     8.646
     9   6 C        2.925    -0.033    28.830     8.805
    10   6 C        2.919    -0.029    28.737     8.791
    11   6 C        2.920    -0.031    28.772     8.796
    12   6 C        2.919    -0.030    28.738     8.791
    13   6 C        2.925    -0.033    28.829     8.805
    14   6 C        2.930    -0.040    28.991     8.830
    15   6 C        2.974     0.014    27.691     8.632
    16   6 C        2.978    -0.006    28.158     8.704
    17   6 C        2.984     0.007    27.867     8.659
    18   6 C        2.917    -0.034    28.851     8.808
    19   6 C        2.914    -0.030    28.741     8.791
    20   6 C        2.915    -0.029    28.736     8.790
    21   6 C        2.917    -0.035    28.868     8.811
    22   6 C        2.983     0.007    27.863     8.659
    23   6 C        2.977    -0.007    28.188     8.709
    24   6 C        2.977     0.017    27.632     8.623
    25   6 C        2.923    -0.031    28.779     8.797
    26   6 C        2.926    -0.029    28.715     8.788
    27   6 C        2.974     0.000    28.014     8.682
    28   6 C        3.195     0.128    24.734     8.109
    29   7 N        1.894    -0.290    28.374     7.897
    30   6 C        3.209     0.057    26.128     8.322
    31   6 C        2.979     0.002    27.967     8.675
    32   6 C        2.919    -0.032    28.796     8.800
    33   6 C        2.915    -0.030    28.747     8.792
    34   6 C        2.921    -0.038    28.951     8.824
    35   6 C        2.983     0.012    27.750     8.641
    36   6 C        2.914    -0.035    28.881     8.812
    37   6 C        2.915    -0.038    28.933     8.820
    38   6 C        2.983     0.012    27.729     8.638
    39   6 C        2.921    -0.039    28.975     8.827
    40   6 C        2.914    -0.032    28.796     8.800
    41   6 C        2.918    -0.042    29.054     8.839
    42   6 C        2.973    -0.002    28.080     8.692
    43   6 C        2.995    -0.002    28.060     8.689
    44   6 C        2.995    -0.004    28.113     8.698
    45   6 C        3.073     0.019    27.502     8.598
    46   7 N        2.842    -0.045    22.106     6.983
    47   6 C        2.913     0.069    26.461     8.435
    48   6 C        2.921    -0.037    28.910     8.817
    49   6 C        2.920    -0.027    28.677     8.782
    50   6 C        2.920    -0.030    28.747     8.792
    51   6 C        2.920    -0.026    28.641     8.776
    52   6 C        2.922    -0.038    28.937     8.822
    53   6 C        2.921    -0.034    28.857     8.809
    54   6 C        2.923    -0.032    28.808     8.802
    55   6 C        2.984     0.006    27.881     8.661
    56   6 C        2.917    -0.035    28.871     8.811
    57   6 C        2.915    -0.030    28.761     8.794
    58   6 C        2.914    -0.031    28.768     8.795
    59   6 C        2.918    -0.034    28.852     8.808
    60   6 C        2.984     0.006    27.877     8.661
    61   6 C        2.930    -0.040    28.991     8.830
    62   6 C        2.925    -0.033    28.829     8.805
    63   6 C        2.919    -0.029    28.733     8.790
    64   1 H        0.926     0.029     2.597     2.520
    65   1 H        0.926     0.029     2.596     2.520
    66   1 H        0.926     0.030     2.586     2.515
    67   1 H        0.926     0.033     2.544     2.494
    68   1 H        0.926     0.030     2.579     2.511
    69   1 H        0.926     0.029     2.600     2.521
    70   1 H        0.926     0.029     2.599     2.521
    71   1 H        0.926     0.029     2.596     2.520
    72   1 H        0.926     0.030     2.584     2.514
    73   1 H        0.926     0.031     2.571     2.507
    74   1 H        0.926     0.032     2.561     2.502
    75   1 H        0.926     0.029     2.600     2.522
    76   1 H        0.926     0.030     2.586     2.515
    77   1 H        0.926     0.034     2.535     2.490
    78   1 H        0.926     0.037     2.493     2.469
    79   1 H        0.926     0.050     2.322     2.383
    80   1 H        0.926     0.050     2.323     2.384
    81   1 H        0.926     0.030     2.584     2.514
    82   1 H        0.926     0.029     2.597     2.520
    83   1 H        0.926     0.030     2.580     2.512
    84   1 H        0.926     0.030     2.590     2.517
    85   1 H        0.926     0.029     2.600     2.521
    86   1 H        0.926     0.026     2.642     2.542
    87   1 H        0.926     0.025     2.663     2.552
    88   1 H        0.926     0.043     2.409     2.427
    89   1 H        0.926     0.040     2.448     2.446
    90   1 H        0.926     0.039     2.459     2.452
    91   1 H        0.926     0.040     2.455     2.450
    92   1 H        0.926     0.039     2.464     2.455
    93   1 H        0.926     0.027     2.633     2.537
    94   1 H        0.926     0.032     2.552     2.498
    95   1 H        0.926     0.029     2.603     2.523
    96   1 H        0.926     0.026     2.639     2.540
    97   1 H        0.926     0.028     2.615     2.529
    98   1 H        0.926     0.031     2.566     2.505
    99   1 H        0.926     0.032     2.564     2.504
   100   1 H        0.926     0.031     2.573     2.508
   101   1 H        0.926     0.029     2.595     2.519

molecular dipole:
                 x           y           z       tot (Debye)
 q only:       -0.683      -0.755       0.166
   full:       -0.537      -1.186       0.259       3.374

 projected vibrational frequencies (cm⁻¹)
eigval :       -0.00    -0.00     0.00     0.00     0.00     0.00
eigval :        5.29     7.16     7.38    14.39    22.17    25.68
eigval :       29.99    42.30    43.22    43.63    46.32    47.03
eigval :       53.15    65.18    70.54    75.00    87.19    89.14
eigval :       97.53    99.72   110.39   118.54   122.84   127.86
eigval :      167.13   171.30   174.24   187.21   204.97   212.87
eigval :      213.04   227.04   229.68   232.25   246.62   258.66
eigval :      264.81   269.34   278.23   280.57   310.55   322.58
eigval :      340.16   354.14   357.42   364.02   372.67   373.74
eigval :      374.89   378.14   383.31   391.04   392.93   401.18
eigval :      414.41   422.45   430.78   438.19   441.49   448.67
eigval :      454.19   459.03   475.44   478.45   488.99   489.86
eigval :      511.86   520.57   523.53   536.04   542.29   556.94
eigval :      573.10   581.40   582.08   584.17   584.70   587.67
eigval :      588.98   597.21   600.77   603.42   610.50   621.36
eigval :      633.43   634.36   638.77   644.12   659.42   664.93
eigval :      670.33   673.81   678.33   682.70   683.70   692.95
eigval :      695.09   701.15   707.55   713.29   731.90   740.24
eigval :      752.42   753.20   763.91   764.13   773.65   775.09
eigval :      776.03   776.51   783.69   800.15   819.34   830.34
eigval :      838.52   840.17   873.59   875.16   876.18   876.67
eigval :      876.87   879.27   880.96   891.42   893.77   894.83
eigval :      896.33   900.82   902.55   904.46   905.82   906.30
eigval :      916.96   918.54   918.99   921.83   922.23   925.86
eigval :      927.53   929.09   929.15   929.75   930.55   932.33
eigval :      932.55   932.61   932.78   933.03   935.38   938.52
eigval :      958.34   986.18   990.76   996.80  1001.12  1011.07
eigval :     1031.79  1078.88  1082.29  1083.43  1084.54  1085.19
eigval :     1095.20  1102.97  1110.08  1115.93  1120.57  1122.29
eigval :     1123.61  1124.64  1135.22  1136.20  1138.40  1150.25
eigval :     1160.56  1180.33  1181.74  1182.01  1182.55  1182.81
eigval :     1185.68  1186.25  1191.15  1195.05  1198.44  1201.24
eigval :     1202.24  1202.89  1219.21  1224.12  1229.74  1234.77
eigval :     1244.15  1245.52  1248.63  1258.76  1263.74  1270.95
eigval :     1276.09  1282.05  1282.92  1299.98  1301.59  1304.74
eigval :     1312.42  1313.26  1314.84  1319.72  1321.74  1323.95
eigval :     1336.25  1345.76  1350.44  1365.25  1377.53  1380.79
eigval :     1384.70  1388.92  1396.90  1400.04  1402.02  1414.25
eigval :     1421.03  1421.60  1422.09  1429.34  1435.30  1438.14
eigval :     1440.49  1451.68  1464.99  1476.23  1481.99  1485.27
eigval :     1486.23  1486.58  1490.75  1511.28  1527.08  1530.29
eigval :     1532.74  1542.34  1544.75  1558.41  1568.02  1575.75
eigval :     1576.16  1581.66  1583.54  1583.95  1585.59  1589.68
eigval :     1594.71  1597.75  1601.06  1601.15  1608.66  1610.47
eigval :     1622.78  3063.78  3068.83  3070.47  3070.72  3071.02
eigval :     3071.55  3071.67  3071.88  3074.69  3077.06  3077.72
eigval :     3078.67  3079.28  3079.69  3080.12  3081.24  3081.62
eigval :     3081.66  3081.76  3082.00  3083.36  3083.49  3084.21
eigval :     3084.61  3086.07  3088.53  3089.79  3091.47  3091.86
eigval :     3092.16  3092.37  3092.98  3094.70  3095.90  3101.57
eigval :     3102.97  3106.52  3110.54

   temp. (K)  partition function   enthalpy   heat capacity  entropy
                                   cal/mol     cal/K/mol   cal/K/mol   J/K/mol
 298.15  VIB  0.319E+24            28655.470    181.548    180.259
         ROT  0.231E+09              888.752      2.981     41.249
         INT  0.736E+32            29544.222    184.529    221.507
         TR   0.219E+29             1481.254      4.968     45.892
         TOT                       31025.4762   189.4970   267.3992  1118.7981

       T/K    H(0)-H(T)+PV         H(T)/Eh          T*S/Eh         G(T)/Eh
   ------------------------------------------------------------------------
    298.15    0.494422E-01    0.826191E+00    0.127050E+00    0.699141E+00
   ------------------------------------------------------------------------

         :::::::::::::::::::::::::::::::::::::::::::::::::::::
         ::                  THERMODYNAMIC                  ::
         :::::::::::::::::::::::::::::::::::::::::::::::::::::
         :: total free energy        -155.220998986211 Eh   ::
         ::.................................................::
         :: total energy             -155.920140246902 Eh   ::
         :: zero point energy           0.776748988505 Eh   ::
         :: G(RRHO) w/o ZPVE           -0.077607727815 Eh   ::
         :: G(RRHO) contrib.            0.699141260691 Eh   ::
         :::::::::::::::::::::::::::::::::::::::::::::::::::::

           -------------------------------------------------
          | TOTAL ENERGY             -155.920140246902 Eh   |
          | TOTAL ENTHALPY           -155.093949014951 Eh   |
          | TOTAL FREE ENERGY        -155.220998986211 Eh   |
          | GRADIENT NORM               0.000039006302 Eh/α |
          | HOMO-LUMO GAP               2.021358118957 eV   |
           -------------------------------------------------

 * finished run on 2025/07/19 at 13:33:14.336
