   * xtb version 6.7.1 (edcfbbe) compiled by 'albert@albert-system' on 2024-07-22

   ID    Z sym.   atoms
    1    6 C      1-28, 30-45, 47-63
    2    7 N      29, 46
    3    1 H      64-101

          program call               : xtb data2507/gas/PyIAnTPh/PyIAnTPh_gas_S0_crest.xyz --gfn 2 --ohess vtight --parallel 40 --molden --ceasefiles --namespace data2507/gas/PyIAnTPh/PyIAnTPh_gas_S0_finalOpt
          :  Hamiltonian                  GFN2-xTB          :
 * total energy  :  -155.9203112 Eh     change       -0.1481936E-08 Eh
 * total energy  :  -155.9203127 Eh     change       -0.1548845E-05 Eh
 * total energy  :  -155.9203144 Eh     change       -0.1663311E-05 Eh
 * total energy  :  -155.9203193 Eh     change       -0.4911497E-05 Eh
 * total energy  :  -155.9203230 Eh     change       -0.3729801E-05 Eh
 * total energy  :  -155.9203246 Eh     change       -0.1631388E-05 Eh
 * total energy  :  -155.9203267 Eh     change       -0.2066358E-05 Eh
 * total energy  :  -155.9203305 Eh     change       -0.3824682E-05 Eh
 * total energy  :  -155.9203348 Eh     change       -0.4299749E-05 Eh
 * total energy  :  -155.9203380 Eh     change       -0.3137228E-05 Eh
 * total energy  :  -155.9204130 Eh     change       -0.3587663E-06 Eh
 * total energy  :  -155.9204134 Eh     change       -0.3422565E-06 Eh
 * total energy  :  -155.9204138 Eh     change       -0.4002933E-06 Eh
 * total energy  :  -155.9204143 Eh     change       -0.5451725E-06 Eh
 * total energy  :  -155.9204151 Eh     change       -0.7454751E-06 Eh
 * total energy  :  -155.9204159 Eh     change       -0.8254364E-06 Eh
 * total energy  :  -155.9204167 Eh     change       -0.7514286E-06 Eh
 * total energy  :  -155.9204174 Eh     change       -0.7916398E-06 Eh
 * total energy  :  -155.9204175 Eh     change       -0.8206058E-08 Eh
   *** GEOMETRY OPTIMIZATION CONVERGED AFTER 68 ITERATIONS ***

 final structure:
================
101
 xtb: 6.7.1 (edcfbbe)
C           -9.84809499078799        4.43492000828961       -2.39091140677421
C          -10.23359279735167        3.12794040529221       -2.63763270867930
C           -9.54321554097890        2.07853614795165       -2.06035851392048
C           -8.45110461735547        2.32011921263008       -1.23073862594299
C           -7.71438726655097        1.20605192654149       -0.61421093396264
C           -8.39510605102038        0.11567216366188       -0.08332021762127
C           -7.70873298446911       -0.94079118704307        0.50583014490751
C           -8.44016381199121       -2.09184409766957        1.05729980299475
C           -7.97465460365464       -3.38880602495764        0.85434421044226
C           -8.66651796646102       -4.47204026834465        1.36319826742951
C           -9.83067064160030       -4.27733584160733        2.08740961631623
C          -10.29994376247326       -2.99172619131256        2.29874054165035
C           -9.61255061336017       -1.90746243531597        1.78595595224135
C           -6.31915015490297       -0.89659687146878        0.56006961349159
C           -5.62239698157099        0.18398809040336        0.03372687483849
C           -4.14620065553447        0.22061109765363        0.09267735612498
C           -3.39554336555968       -0.68966788024622       -0.66501277775189
C           -4.01536480074883       -1.64056936899346       -1.51813646099926
C           -3.27845421305162       -2.51263170869569       -2.25810402465485
C           -1.87101572663544       -2.47584985765912       -2.20488955933814
C           -1.23704318568096       -1.56770524268790       -1.41447176182026
C           -1.96733673215218       -0.65142677703438       -0.61203009579588
C           -1.32528093280607        0.29897966291224        0.19566934632757
C            0.14986375146434        0.34279721150076        0.23862379570491
C            0.84415675328402        1.42826614277553       -0.29052527542066
C            2.22325772024931        1.44985112564625       -0.28307112342830
C            2.94478123053881        0.38152120996052        0.24878926755224
C            4.39729633735195        0.43337584498557        0.20096201544933
N            5.09496769568652        1.52260391212999        0.39904600339703
C            6.39864228269009        1.16145544092641        0.27194045376887
C            7.55124359534245        1.98386615688491        0.42694484587937
C            7.47759774965478        3.33141086774181        0.76010831432565
C            8.63557642797984        4.07396597004718        0.91559119400895
C            9.87112535708171        3.48424189614827        0.73709846708510
C            9.98158042969184        2.13350877125268        0.39478132330704
C           11.25021096183972        1.51679315921857        0.19320906162709
C           11.34358885668704        0.21701928053410       -0.16542723750622
C           10.18051912915744       -0.58733432116193       -0.34858244222768
C           10.28363746408430       -1.92208420357051       -0.74924034164683
C            9.15205273766454       -2.68273345809677       -0.95224230296812
C            7.89444807953728       -2.14710452592901       -0.73204214174434
C            7.74468359407447       -0.83098801207819       -0.29879525681821
C            8.90243113854121       -0.01647270085820       -0.12935627806691
C            8.80738822174054        1.35657495382554        0.23558171767263
C            6.49660119655521       -0.19744128384658       -0.03147828125457
N            5.19916390725366       -0.65599307581128       -0.06311678089133
C            4.72189093206956       -1.95625952982179       -0.31570129330059
C            3.88119227041341       -2.17914081173523       -1.39998343015130
C            3.36862065523707       -3.44455179798679       -1.62069007171500
C            3.69346210283500       -4.48671025450539       -0.76851488629202
C            4.53390767086258       -4.26378691957796        0.31040293285818
C            5.04635349793966       -3.00112032424349        0.54425559094636
C            2.25185745435590       -0.68633853224626        0.81607699089670
C            0.87172571229641       -0.70362433625947        0.80564212002272
C           -2.07611311263654        1.20728096709137        0.95575536199970
C           -1.45655903992533        2.15658282789166        1.81079552116132
C           -2.19513504068418        3.02475942405403        2.55395116879012
C           -3.60266649020528        2.98592014405707        2.50244016953253
C           -4.23563632119158        2.07944131127994        1.70932007259647
C           -3.50418640762265        1.16701449466374        0.90401059386958
C           -6.32478045718515        1.23041699174816       -0.55089541530791
C           -8.06968689802644        3.63823306310231       -0.99192225112019
C           -8.76498661419591        4.68636226264215       -1.56547536091652
H          -10.38939466060479        5.25424825521220       -2.84055429263507
H          -11.07525484600963        2.92578833833522       -3.28427753794135
H           -9.83870811594303        1.06037032537149       -2.26913714833965
H           -9.47390233472864        0.08878452060399       -0.12948189291935
H           -7.07485165857513       -3.54822226312250        0.27754557596784
H           -8.29733561945016       -5.47309121282279        1.19274878533312
H          -10.36996815243850       -5.12407249695105        2.48577327288332
H          -11.20523614072586       -2.83360242638823        2.86692198546370
H           -9.97491122613197       -0.90586149505949        1.96759808117790
H           -5.77201192932416       -1.69658381797934        1.03776605618978
H           -5.09353300083343       -1.65377280565971       -1.57764606507271
H           -3.76553426521296       -3.23104936836772       -2.90123368684847
H           -1.30076651228821       -3.16758670953754       -2.80775585660103
H           -0.15797904726259       -1.52777242186790       -1.39197876781445
H            0.29097759321312        2.24997279329433       -0.72218597378280
H            2.76595868349515        2.28611963450333       -0.69565406498589
H            6.50349571888995        3.77426552458339        0.89680615983392
H            8.57196494323060        5.12015551315063        1.17800221188808
H           10.77360986496521        4.06690072523189        0.85753565798845
H           12.13740771231102        2.11964917561557        0.32733994285102
H           12.30747519858820       -0.24491116859551       -0.32720365043587
H           11.26341721781595       -2.34781914211332       -0.91166674044142
H            9.24082861428876       -3.70669501889180       -1.28553543968308
H            7.02473156941277       -2.75890327543636       -0.91223544664581
H            3.63323392130768       -1.35920439971500       -2.05770432714199
H            2.71461644078316       -3.61636826671390       -2.46227176578823
H            3.29145657194371       -5.47307028313134       -0.94357470370138
H            4.78709367163736       -5.07441897877181        0.97714499026502
H            5.69647586675985       -2.81430625608228        1.38674891045205
H            2.78796121042654       -1.49898321186981        1.28285488509907
H            0.34052887465139       -1.53451572438130        1.24744805514183
H           -0.37852823664627        2.17258327504172        1.86914024353991
H           -1.70843884895902        3.74186007567756        3.19855013954186
H           -4.17372863692838        3.67397025688634        3.10859243855440
H           -5.31444184314192        2.03426363693870        1.68925068752578
H           -5.77947226478345        2.05742151050312       -0.98236146545011
H           -7.23421247361493        3.84126057830730       -0.33733930016073
H           -8.46179490619975        5.70421118518669       -1.36692369533511

          :  Hamiltonian                  GFN2-xTB          :
         :: gradient norm              0.000060715587 Eh/a0 ::
         :: HOMO-LUMO gap              2.017541254311 eV    ::
         :: SCC energy              -158.941665255308 Eh    ::
         :: -> dispersion             -0.150540478130 Eh    ::
         :: repulsion energy           3.021247802741 Eh    ::

    * Orbital Energies and Occupations

         #    Occupation            Energy/Eh            Energy/eV
      -------------------------------------------------------------
         1        2.0000           -0.6850555             -18.6413
       ...           ...                  ...                  ...
       134        2.0000           -0.4043751             -11.0036
       135        2.0000           -0.4039678             -10.9925
       136        2.0000           -0.4035343             -10.9807
       137        2.0000           -0.4012742             -10.9192
       138        2.0000           -0.3999931             -10.8844
       139        2.0000           -0.3989881             -10.8570
       140        2.0000           -0.3885724             -10.5736
       141        2.0000           -0.3860936             -10.5061
       142        2.0000           -0.3830394             -10.4230
       143        2.0000           -0.3811964             -10.3729
       144        2.0000           -0.3742482             -10.1838
       145        2.0000           -0.3586072              -9.7582
       146        2.0000           -0.3544918              -9.6462 (HOMO)
       147                         -0.2803485              -7.6287 (LUMO)
       148                         -0.2679928              -7.2925
       149                         -0.2518856              -6.8542
       150                         -0.2488154              -6.7706
       151                         -0.2426755              -6.6035
       152                         -0.2419884              -6.5848
       153                         -0.2391401              -6.5073
       154                         -0.2330872              -6.3426
       155                         -0.2308962              -6.2830
       156                         -0.2262885              -6.1576
       157                         -0.2224044              -6.0519
       ...                                ...                  ...
       290                          0.7366238              20.0446
      -------------------------------------------------------------
                  HL-Gap            0.0741433 Eh            2.0175 eV

     #   Z          covCN         q      C6AA      α(0)
     1   6 C        2.920    -0.031    28.771     8.796
     2   6 C        2.919    -0.030    28.738     8.791
     3   6 C        2.925    -0.034    28.837     8.806
     4   6 C        2.978     0.010    27.787     8.647
     5   6 C        2.974     0.008    27.831     8.653
     6   6 C        2.930    -0.042    29.047     8.839
     7   6 C        2.974     0.008    27.834     8.654
     8   6 C        2.978     0.010    27.786     8.647
     9   6 C        2.925    -0.033    28.833     8.806
    10   6 C        2.919    -0.030    28.739     8.791
    11   6 C        2.920    -0.031    28.773     8.796
    12   6 C        2.919    -0.030    28.737     8.791
    13   6 C        2.925    -0.034    28.836     8.806
    14   6 C        2.930    -0.040    28.992     8.830
    15   6 C        2.974     0.014    27.696     8.632
    16   6 C        2.978    -0.006    28.159     8.704
    17   6 C        2.984     0.006    27.874     8.660
    18   6 C        2.918    -0.034    28.853     8.808
    19   6 C        2.914    -0.031    28.766     8.795
    20   6 C        2.914    -0.030    28.759     8.794
    21   6 C        2.917    -0.035    28.870     8.811
    22   6 C        2.984     0.006    27.878     8.661
    23   6 C        2.977    -0.007    28.185     8.708
    24   6 C        2.977     0.017    27.632     8.623
    25   6 C        2.923    -0.031    28.778     8.797
    26   6 C        2.926    -0.029    28.715     8.788
    27   6 C        2.974     0.000    28.017     8.682
    28   6 C        3.194     0.127    24.742     8.111
    29   7 N        1.894    -0.290    28.377     7.897
    30   6 C        3.208     0.057    26.132     8.323
    31   6 C        2.979     0.002    27.968     8.675
    32   6 C        2.919    -0.032    28.796     8.800
    33   6 C        2.915    -0.030    28.747     8.792
    34   6 C        2.921    -0.038    28.951     8.824
    35   6 C        2.983     0.012    27.749     8.641
    36   6 C        2.914    -0.035    28.881     8.812
    37   6 C        2.915    -0.038    28.933     8.820
    38   6 C        2.983     0.012    27.729     8.638
    39   6 C        2.921    -0.039    28.975     8.827
    40   6 C        2.914    -0.032    28.796     8.800
    41   6 C        2.918    -0.042    29.054     8.839
    42   6 C        2.973    -0.002    28.081     8.692
    43   6 C        2.995    -0.002    28.060     8.689
    44   6 C        2.995    -0.004    28.113     8.697
    45   6 C        3.073     0.019    27.500     8.598
    46   7 N        2.842    -0.045    22.107     6.983
    47   6 C        2.913     0.069    26.458     8.435
    48   6 C        2.922    -0.038    28.935     8.821
    49   6 C        2.920    -0.026    28.640     8.776
    50   6 C        2.920    -0.030    28.746     8.792
    51   6 C        2.920    -0.027    28.676     8.782
    52   6 C        2.921    -0.037    28.909     8.817
    53   6 C        2.921    -0.035    28.862     8.810
    54   6 C        2.923    -0.032    28.809     8.802
    55   6 C        2.984     0.007    27.864     8.659
    56   6 C        2.917    -0.035    28.866     8.810
    57   6 C        2.914    -0.030    28.740     8.791
    58   6 C        2.914    -0.030    28.747     8.792
    59   6 C        2.917    -0.034    28.858     8.809
    60   6 C        2.984     0.007    27.868     8.660
    61   6 C        2.930    -0.040    28.990     8.830
    62   6 C        2.925    -0.033    28.831     8.805
    63   6 C        2.919    -0.029    28.736     8.791
    64   1 H        0.926     0.029     2.598     2.521
    65   1 H        0.926     0.029     2.598     2.521
    66   1 H        0.926     0.031     2.576     2.510
    67   1 H        0.926     0.033     2.544     2.494
    68   1 H        0.926     0.030     2.581     2.512
    69   1 H        0.926     0.029     2.601     2.522
    70   1 H        0.926     0.029     2.600     2.522
    71   1 H        0.926     0.029     2.596     2.520
    72   1 H        0.926     0.031     2.572     2.508
    73   1 H        0.926     0.031     2.567     2.505
    74   1 H        0.926     0.032     2.560     2.502
    75   1 H        0.926     0.028     2.615     2.529
    76   1 H        0.926     0.026     2.637     2.539
    77   1 H        0.926     0.029     2.602     2.523
    78   1 H        0.926     0.037     2.494     2.470
    79   1 H        0.926     0.050     2.315     2.379
    80   1 H        0.926     0.050     2.324     2.384
    81   1 H        0.926     0.030     2.584     2.514
    82   1 H        0.926     0.029     2.597     2.520
    83   1 H        0.926     0.030     2.580     2.512
    84   1 H        0.926     0.030     2.590     2.517
    85   1 H        0.926     0.029     2.600     2.521
    86   1 H        0.926     0.026     2.642     2.542
    87   1 H        0.926     0.025     2.663     2.552
    88   1 H        0.926     0.039     2.462     2.454
    89   1 H        0.926     0.040     2.454     2.450
    90   1 H        0.926     0.039     2.459     2.452
    91   1 H        0.926     0.040     2.447     2.446
    92   1 H        0.926     0.043     2.410     2.427
    93   1 H        0.926     0.027     2.633     2.537
    94   1 H        0.926     0.032     2.555     2.499
    95   1 H        0.926     0.034     2.536     2.490
    96   1 H        0.926     0.030     2.588     2.516
    97   1 H        0.926     0.029     2.605     2.524
    98   1 H        0.926     0.032     2.565     2.504
    99   1 H        0.926     0.032     2.561     2.502
   100   1 H        0.926     0.031     2.574     2.509
   101   1 H        0.926     0.029     2.594     2.519

molecular dipole:
                 x           y           z       tot (Debye)
 q only:       -0.687      -0.751      -0.164
   full:       -0.543      -1.187      -0.253       3.380

 projected vibrational frequencies (cm⁻¹)
eigval :       -0.00    -0.00     0.00     0.00     0.00     0.00
eigval :        5.48     7.39     7.72    15.66    22.43    25.77
eigval :       29.99    42.09    43.05    43.72    46.15    48.27
eigval :       52.91    64.90    70.57    74.75    87.28    88.70
eigval :       97.43   105.48   112.96   114.68   122.86   127.75
eigval :      166.25   172.42   174.29   187.01   204.23   212.66
eigval :      213.16   226.58   229.43   232.25   245.75   258.33
eigval :      268.55   275.31   278.22   281.96   310.51   325.53
eigval :      327.32   352.03   354.59   372.20   372.57   373.44
eigval :      375.90   377.92   380.98   391.30   399.22   402.14
eigval :      414.27   422.80   430.21   441.49   444.21   449.28
eigval :      454.15   459.13   469.76   476.24   488.10   489.87
eigval :      510.19   521.51   526.41   536.00   541.33   556.91
eigval :      573.14   581.68   581.87   583.84   584.59   587.61
eigval :      589.65   597.04   600.12   606.17   607.51   621.71
eigval :      633.54   635.14   637.49   644.10   659.34   665.52
eigval :      671.35   673.41   678.26   682.68   683.99   693.04
eigval :      695.05   701.02   707.47   713.30   731.78   739.99
eigval :      752.43   758.25   759.08   764.07   774.20   775.19
eigval :      775.97   776.78   784.06   800.10   819.17   829.35
eigval :      839.87   840.15   873.63   875.27   876.12   876.88
eigval :      877.85   879.23   880.79   891.40   893.79   894.88
eigval :      897.37   901.43   902.42   904.91   905.83   906.68
eigval :      917.16   918.53   919.42   921.81   922.22   925.85
eigval :      927.71   929.08   929.12   930.52   930.77   932.16
eigval :      932.62   932.75   932.82   932.95   935.39   938.49
eigval :      958.33   986.27   990.47   996.80  1001.07  1011.07
eigval :     1031.71  1078.81  1082.68  1083.64  1084.33  1085.58
eigval :     1095.30  1103.06  1110.09  1115.82  1120.67  1123.05
eigval :     1123.61  1124.54  1135.23  1136.27  1138.46  1150.34
eigval :     1160.50  1180.32  1181.76  1182.16  1182.67  1182.72
eigval :     1185.81  1186.25  1191.06  1195.13  1198.62  1202.02
eigval :     1202.29  1202.92  1219.45  1224.13  1229.82  1234.88
eigval :     1244.52  1245.58  1249.20  1258.79  1263.85  1270.93
eigval :     1276.00  1282.83  1282.92  1300.07  1301.54  1304.52
eigval :     1312.96  1313.46  1314.67  1319.59  1321.69  1324.13
eigval :     1336.40  1345.71  1350.45  1365.39  1377.49  1380.76
eigval :     1384.53  1388.83  1396.86  1400.04  1402.12  1414.14
eigval :     1420.92  1421.51  1422.01  1429.29  1435.24  1437.82
eigval :     1440.52  1451.69  1464.80  1475.97  1481.88  1485.35
eigval :     1486.12  1486.39  1490.67  1511.13  1527.22  1529.77
eigval :     1532.68  1542.13  1543.76  1558.40  1567.78  1575.59
eigval :     1575.71  1581.62  1583.33  1583.89  1585.57  1589.64
eigval :     1594.65  1597.56  1600.95  1600.96  1608.73  1610.49
eigval :     1622.78  3063.77  3068.80  3070.30  3070.61  3071.03
eigval :     3071.39  3071.66  3071.80  3074.02  3077.15  3077.72
eigval :     3078.88  3079.15  3079.22  3080.16  3081.12  3081.57
eigval :     3081.64  3081.79  3081.99  3083.45  3083.51  3084.17
eigval :     3084.39  3086.36  3088.92  3089.83  3090.81  3091.73
eigval :     3092.21  3092.95  3093.44  3094.80  3095.76  3101.62
eigval :     3103.54  3106.51  3111.07

   temp. (K)  partition function   enthalpy   heat capacity  entropy
                                   cal/mol     cal/K/mol   cal/K/mol   J/K/mol
 298.15  VIB  0.248E+24            28641.469    181.543    179.957
         ROT  0.231E+09              888.752      2.981     41.255
         INT  0.575E+32            29530.222    184.524    221.211
         TR   0.219E+29             1481.254      4.968     45.892
         TOT                       31011.4757   189.4923   267.1029  1117.5585

       T/K    H(0)-H(T)+PV         H(T)/Eh          T*S/Eh         G(T)/Eh
   ------------------------------------------------------------------------
    298.15    0.494199E-01    0.826213E+00    0.126909E+00    0.699304E+00
   ------------------------------------------------------------------------

         :::::::::::::::::::::::::::::::::::::::::::::::::::::
         ::                  THERMODYNAMIC                  ::
         :::::::::::::::::::::::::::::::::::::::::::::::::::::
         :: total free energy        -155.221113321889 Eh   ::
         ::.................................................::
         :: total energy             -155.920417452575 Eh   ::
         :: zero point energy           0.776793401282 Eh   ::
         :: G(RRHO) w/o ZPVE           -0.077489270595 Eh   ::
         :: G(RRHO) contrib.            0.699304130687 Eh   ::
         :::::::::::::::::::::::::::::::::::::::::::::::::::::

           -------------------------------------------------
          | TOTAL ENERGY             -155.920417452575 Eh   |
          | TOTAL ENTHALPY           -155.094204119047 Eh   |
          | TOTAL FREE ENERGY        -155.221113321889 Eh   |
          | GRADIENT NORM               0.000060710005 Eh/α |
          | HOMO-LUMO GAP               2.017541084909 eV   |
           -------------------------------------------------

 * finished run on 2025/07/19 at 13:42:09.249
