   * xtb version 6.7.1 (edcfbbe) compiled by 'albert@albert-system' on 2024-07-22

   ID    Z sym.   atoms
    1    6 C      1-28, 30-45, 47-63
    2    7 N      29, 46
    3    1 H      64-101

          program call               : xtb data2507/gas/PyIAnTPh/PyIAnTPh_gas_S0_finalOpt.xtbopt.xyz --gfn 2 --spinpol --tblite --uhf 2 --ohess vtight --parallel 40 --molden --ceasefiles --namespace data2507/gas/PyIAnTPh/PyIAnTPh_gas_T1_preOpt
 * total energy  :  -155.8485148 Eh     change       -0.2300581E-07 Eh
 * total energy  :  -155.8547754 Eh     change       -0.6260609E-02 Eh
 * total energy  :  -155.8563251 Eh     change       -0.1549685E-02 Eh
 * total energy  :  -155.8564795 Eh     change       -0.1544254E-03 Eh
 * total energy  :  -155.8566827 Eh     change       -0.2031546E-03 Eh
 * total energy  :  -155.8567943 Eh     change       -0.1116194E-03 Eh
 * total energy  :  -155.8569366 Eh     change       -0.1423388E-03 Eh
 * total energy  :  -155.8570816 Eh     change       -0.1449945E-03 Eh
 * total energy  :  -155.8571674 Eh     change       -0.8577039E-04 Eh
 * total energy  :  -155.8572219 Eh     change       -0.5451360E-04 Eh
 * total energy  :  -155.8575162 Eh     change       -0.8540605E-06 Eh
 * total energy  :  -155.8575171 Eh     change       -0.9471915E-06 Eh
 * total energy  :  -155.8575183 Eh     change       -0.1156436E-05 Eh
 * total energy  :  -155.8575195 Eh     change       -0.1159603E-05 Eh
 * total energy  :  -155.8575203 Eh     change       -0.8223341E-06 Eh
 * total energy  :  -155.8575208 Eh     change       -0.5499265E-06 Eh
 * total energy  :  -155.8575210 Eh     change       -0.1637148E-06 Eh
 * total energy  :  -155.8575213 Eh     change       -0.3070891E-06 Eh
 * total energy  :  -155.8575213 Eh     change       -0.3233180E-07 Eh
   *** GEOMETRY OPTIMIZATION CONVERGED AFTER 44 ITERATIONS ***

 final structure:
================
101
 xtb: 6.7.1 (edcfbbe)
C           -9.84961060771489        4.53558978155815       -2.25064951464354
C          -10.24440142992078        3.23834044724525       -2.53162227484337
C           -9.55634726556837        2.16904238200871       -1.98914291888187
C           -8.45743868491612        2.38061112918309       -1.16026884904243
C           -7.72449829206068        1.24541393915264       -0.57836408524772
C           -8.41064898883584        0.14260388160731       -0.07865486983588
C           -7.72543564470668       -0.93505014335236        0.47435456204109
C           -8.45920570974686       -2.09692907598907        0.99978554122810
C           -8.00100165517298       -3.39019911239113        0.75987566765030
C           -8.69383795487160       -4.48332657259328        1.24564399685942
C           -9.85167793104459       -4.30250350086389        1.98344108216908
C          -10.31377567867429       -3.02082210800911        2.23125780058602
C           -9.62546539575993       -1.92653215087637        1.74151892868459
C           -6.33703105192459       -0.90136636428136        0.52194106573331
C           -5.62829298425147        0.19363427098670        0.02955340677011
C           -4.16558531436382        0.22091734722960        0.08737906201705
C           -3.41123279690734       -0.80193009726347       -0.56562695905893
C           -4.03593697912095       -1.79109973976312       -1.33039007437634
C           -3.30234488645446       -2.76152947052144       -2.00771024849913
C           -1.92626225096267       -2.72803695829060       -1.96894809022106
C           -1.27667411210193       -1.72818029060804       -1.24770595956727
C           -1.98634935333840       -0.77462622454306       -0.51459152705748
C           -1.32030926516774        0.27521622778230        0.19933908045326
C            0.13297423678738        0.30656672876047        0.24375554090355
C            0.84903205080356        1.44192646313015       -0.16106335469891
C            2.22380619488312        1.44861807069801       -0.16036875505570
C            2.94590374331283        0.32293858854505        0.25023168876782
C            4.39149912695838        0.38112343588492        0.20096366281032
N            5.07639684494704        1.48060957599104        0.40890254451916
C            6.38254332333212        1.14051257389988        0.28461036904404
C            7.52240452248353        1.97822085239355        0.45192834730243
C            7.42648640966370        3.32143734177824        0.79651009661593
C            8.57232281535881        4.08053781788252        0.96357776506206
C            9.81729441925432        3.51120967745245        0.78578420953621
C            9.95006177788822        2.16494636497111        0.43240785638617
C           11.22879076799620        1.56960942338286        0.23201188185049
C           11.34348936054524        0.27431472367149       -0.13716073171236
C           10.19368161924499       -0.54574982804570       -0.33284709380967
C           10.31955650226093       -1.87566823814020       -0.74409471976379
C            9.20089619528460       -2.65238133260079       -0.95776970678114
C            7.93420303793465       -2.13835669218565       -0.73871790577005
C            7.76129042228397       -0.82749329868094       -0.29660180063376
C            8.90608294408118        0.00343462854399       -0.11524360961131
C            8.78871333235567        1.37169761118642        0.26091566322646
C            6.50263276412536       -0.21626004964262       -0.03044790189604
N            5.21353860209781       -0.69414939160246       -0.06961664692151
C            4.76632144078857       -1.99873323790116       -0.35548501384897
C            3.97143382373842       -2.22157294414594       -1.47385527413075
C            3.49357915409093       -3.49356022613031       -1.73171304723951
C            3.80767101236603       -4.54178130285039       -0.88280112922734
C            4.60295945358618       -4.31878102417114        0.22988513446074
C            5.08120406870721       -3.04999497026053        0.50040692951224
C            2.23940597442206       -0.79286264899725        0.70696456565479
C            0.86347431378333       -0.80136779038119        0.69244452120925
C           -2.08016713040613        1.29350188045368        0.86208435362139
C           -1.46524182366778        2.26543761077846        1.65395207974356
C           -2.20596757028895        3.23731899148373        2.32386588126020
C           -3.58106634360406        3.22311266925446        2.24988180643737
C           -4.22337508989548        2.23151564562822        1.51286359401282
C           -3.50438457813194        1.26873157158618        0.79915340485438
C           -6.33625384012413        1.26263448664444       -0.51797011997363
C           -8.06638351666926        3.68931787319280       -0.88743888717630
C           -8.75918979985733        4.75727150668765       -1.42634191062669
H          -10.38931658275327        5.37043747254766       -2.67283464875916
H          -11.09157671978524        3.05939017949365       -3.17791617244814
H           -9.85921398376189        1.15900275823198       -2.22497653541945
H           -9.48963336851497        0.12283815035966       -0.12046843917286
H           -7.10589586077017       -3.53874810557821        0.17303571204013
H           -8.33025161499138       -5.48115497196545        1.04669775741143
H          -10.39147687569027       -5.15696975400806        2.36424097753525
H          -11.21396697709253       -2.87362590996308        2.81038427014676
H           -9.98200011559978       -0.92846694483084        1.95182285911622
H           -5.79579524400971       -1.71326475229008        0.98585857738310
H           -5.11180881356735       -1.79449306737021       -1.41486633836497
H           -3.81876614451993       -3.52156643197337       -2.57513291179401
H           -1.34274022178310       -3.46042068776279       -2.50691932809027
H           -0.19864508844604       -1.68642965474723       -1.27430559356932
H            0.30646284780107        2.30347660414646       -0.52226738396893
H            2.77284117887592        2.31595094166266       -0.49244231082748
H            6.44506546599511        3.74789989185033        0.93280037693533
H            8.49139342145636        5.12326860035216        1.23458103824947
H           10.71030520872765        4.10630403147124        0.91542367532812
H           12.10608516335115        2.18454543121168        0.37573936654701
H           12.31499283264664       -0.17167452050896       -0.29781057627646
H           11.30659341419533       -2.28450040883329       -0.90573301162754
H            9.30707786358798       -3.67216696395514       -1.29851399541419
H            7.07536041839775       -2.76283126785845       -0.92655263531803
H            3.73059248043009       -1.39643037443321       -2.12761659418666
H            2.87523357120246       -3.66573508144433       -2.59972835423627
H            3.43257858218135       -5.53315948296199       -1.08681256193525
H            4.84780154663684       -5.13431049948379        0.89373089750481
H            5.69680463445700       -2.86303123950104        1.36838297789768
H            2.76631708184230       -1.64827794109325        1.10170647121734
H            0.33106582661018       -1.66207813790508        1.07090746031486
H           -0.39249909910394        2.25847351535760        1.76887524243674
H           -1.69398688344334        3.98545523271034        2.91035644929986
H           -4.16813748602407        3.96172479160589        2.77530286834114
H           -5.30207488758173        2.19715301582613        1.50979344768620
H           -5.79073532770328        2.09465291173015       -0.93922012839728
H           -7.22510234865057        3.86951210009517       -0.23368538748323
H           -8.44846709174146        5.76729996769012       -1.20127676855397

 projected vibrational frequencies (cm⁻¹)
eigval :       -0.00    -0.00    -0.00    -0.00    -0.00     0.00
eigval :        6.30     6.81     8.60    18.31    22.89    27.42
eigval :       30.78    40.17    43.08    43.56    47.05    48.65
eigval :       51.93    65.06    69.59    77.18    85.32    91.09
eigval :       96.62   108.81   112.43   120.86   123.34   130.60
eigval :      165.25   174.48   178.88   189.32   204.93   212.69
eigval :      222.10   228.46   232.38   233.86   247.05   258.96
eigval :      270.63   276.83   279.82   282.43   309.42   322.58
eigval :      329.29   351.47   353.52   367.55   372.41   373.10
eigval :      376.47   377.17   378.76   382.93   385.64   396.47
eigval :      407.33   420.98   424.37   426.73   434.63   441.83
eigval :      453.47   469.20   471.81   474.43   487.78   489.89
eigval :      509.03   520.46   522.34   534.41   535.28   555.70
eigval :      569.92   571.47   581.61   581.88   582.91   585.63
eigval :      588.78   594.93   596.83   598.85   605.28   605.64
eigval :      629.50   631.13   632.14   642.97   658.20   663.19
eigval :      669.54   673.13   673.44   678.46   682.30   682.68
eigval :      694.12   698.77   703.01   711.05   716.83   729.83
eigval :      749.19   752.35   757.62   757.90   761.27   763.87
eigval :      772.15   775.30   780.96   799.42   821.17   828.09
eigval :      838.38   840.01   845.40   852.15   870.51   875.89
eigval :      876.12   877.75   880.24   887.43   889.74   891.78
eigval :      893.32   893.55   899.74   901.66   901.99   904.09
eigval :      904.12   905.42   907.10   911.70   918.43   921.75
eigval :      925.85   929.04   929.26   930.39   930.71   932.50
eigval :      932.60   932.64   934.59   937.20   937.63   945.85
eigval :      957.24   986.54   989.60   996.55   999.42  1008.34
eigval :     1026.91  1078.67  1084.47  1086.05  1096.06  1101.47
eigval :     1103.85  1107.81  1109.95  1115.56  1116.10  1120.64
eigval :     1122.75  1123.27  1124.46  1134.94  1138.47  1139.71
eigval :     1159.45  1180.13  1180.28  1181.57  1182.51  1182.84
eigval :     1182.98  1184.38  1185.70  1188.26  1190.67  1200.44
eigval :     1201.91  1202.25  1203.57  1223.81  1233.50  1233.94
eigval :     1244.92  1245.67  1249.90  1253.24  1263.62  1268.85
eigval :     1273.07  1275.72  1282.95  1283.14  1298.39  1299.31
eigval :     1300.68  1312.92  1313.32  1315.50  1319.05  1321.09
eigval :     1322.17  1322.82  1333.44  1361.18  1361.91  1363.59
eigval :     1371.31  1376.80  1377.70  1388.31  1397.37  1399.47
eigval :     1408.30  1409.66  1416.51  1417.28  1420.65  1427.27
eigval :     1434.97  1436.42  1443.66  1447.98  1470.48  1474.25
eigval :     1481.83  1483.02  1485.73  1485.84  1490.36  1504.94
eigval :     1520.22  1520.24  1530.38  1532.38  1542.91  1555.99
eigval :     1561.69  1562.36  1563.98  1572.79  1578.65  1582.35
eigval :     1582.42  1583.63  1587.85  1593.37  1600.11  1600.32
eigval :     1609.11  3064.38  3069.45  3070.63  3070.85  3071.66
eigval :     3071.76  3071.90  3074.48  3076.66  3077.56  3078.10
eigval :     3079.46  3079.60  3080.87  3081.82  3082.11  3082.24
eigval :     3082.45  3083.89  3084.05  3084.23  3084.57  3084.88
eigval :     3086.46  3087.70  3090.30  3092.09  3092.68  3094.76
eigval :     3095.24  3095.99  3096.35  3098.29  3101.23  3102.24
eigval :     3104.04  3106.84  3113.27

   temp. (K)  partition function   enthalpy   heat capacity  entropy
                                   cal/mol     cal/K/mol   cal/K/mol   J/K/mol
 298.15  VIB  0.161E+24            28722.371    182.509    179.801
         ROT  0.233E+09              888.752      2.981     41.269
         INT  0.375E+32            29611.124    185.490    221.070
         TR   0.219E+29             1481.254      4.968     45.892
         TOT                       31092.3775   190.4584   266.9621  1116.9692

       T/K    H(0)-H(T)+PV         H(T)/Eh          T*S/Eh         G(T)/Eh
   ------------------------------------------------------------------------
    298.15    0.495489E-01    0.823807E+00    0.126842E+00    0.696965E+00
   ------------------------------------------------------------------------

         :::::::::::::::::::::::::::::::::::::::::::::::::::::
         ::                  THERMODYNAMIC                  ::
         :::::::::::::::::::::::::::::::::::::::::::::::::::::
         :: total free energy        -155.160556252652 Eh   ::
         ::.................................................::
         :: total energy             -155.857521346528 Eh   ::
         :: zero point energy           0.774258522960 Eh   ::
         :: G(RRHO) w/o ZPVE           -0.077293429084 Eh   ::
         :: G(RRHO) contrib.            0.696965093876 Eh   ::
         :::::::::::::::::::::::::::::::::::::::::::::::::::::

           -------------------------------------------------
          | TOTAL ENERGY             -155.857521346528 Eh   |
          | TOTAL ENTHALPY           -155.033713966060 Eh   |
          | TOTAL FREE ENERGY        -155.160556252652 Eh   |
          | GRADIENT NORM               0.000053415156 Eh/α |
           -------------------------------------------------

 * finished run on 2025/07/19 at 13:42:23.911
