   * xtb version 6.7.1 (edcfbbe) compiled by 'albert@albert-system' on 2024-07-22

   ID    Z sym.   atoms
    1    6 C      1-28, 30-45, 47-63
    2    7 N      29, 46
    3    1 H      64-101

          program call               : xtb data2507/gas/PyIAnTPh/PyIAnTPh_gas_T1_crest.xyz --gfn 2 --spinpol --tblite --uhf 2 --ohess vtight --parallel 40 --molden --ceasefiles --namespace data2507/gas/PyIAnTPh/PyIAnTPh_gas_T1_finalOpt
 * total energy  :  -155.8573561 Eh     change       -0.2749559E-07 Eh
 * total energy  :  -155.8574264 Eh     change       -0.7030310E-04 Eh
 * total energy  :  -155.8574634 Eh     change       -0.3702814E-04 Eh
 * total energy  :  -155.8574765 Eh     change       -0.1307680E-04 Eh
 * total energy  :  -155.8574869 Eh     change       -0.1037070E-04 Eh
 * total energy  :  -155.8574923 Eh     change       -0.5491332E-05 Eh
 * total energy  :  -155.8574977 Eh     change       -0.5329283E-05 Eh
 * total energy  :  -155.8575032 Eh     change       -0.5504779E-05 Eh
 * total energy  :  -155.8575071 Eh     change       -0.3923298E-05 Eh
 * total energy  :  -155.8575094 Eh     change       -0.2326583E-05 Eh
 * total energy  :  -155.8575217 Eh     change       -0.1762611E-06 Eh
 * total energy  :  -155.8575218 Eh     change       -0.1111045E-06 Eh
 * total energy  :  -155.8575219 Eh     change       -0.1155018E-06 Eh
 * total energy  :  -155.8575221 Eh     change       -0.1460560E-06 Eh
 * total energy  :  -155.8575222 Eh     change       -0.1560611E-06 Eh
 * total energy  :  -155.8575224 Eh     change       -0.1624128E-06 Eh
 * total energy  :  -155.8575225 Eh     change       -0.1046726E-06 Eh
 * total energy  :  -155.8575226 Eh     change       -0.1126972E-06 Eh
 * total energy  :  -155.8575227 Eh     change       -0.7495984E-07 Eh
   *** GEOMETRY OPTIMIZATION CONVERGED AFTER 35 ITERATIONS ***

 final structure:
================
101
 xtb: 6.7.1 (edcfbbe)
C           -9.92516612432334        4.44371909682378       -2.22694826719041
C          -10.31189127130621        3.14054252364643       -2.49120824044903
C           -9.60622396834104        2.08227678987351       -1.94971368473612
C           -8.49758818059649        2.31096310453505       -1.13850936323908
C           -7.74617753211943        1.18768433635496       -0.55702852189008
C           -8.41524994150627        0.08271718573161       -0.03924583450656
C           -7.71271442975448       -0.98372730495280        0.51379832888227
C           -8.42822660185860       -2.14884593110620        1.05694419697024
C           -7.95891054434833       -3.43905011159084        0.82192318593339
C           -8.63453756008971       -4.53565513085807        1.32378958442354
C           -9.78607208475984       -4.36139434378402        2.07294924087975
C          -10.25909431765381       -3.08279081404495        2.31600946326455
C           -9.58796669200611       -1.98507581711246        1.81030400601969
C           -6.32426234385708       -0.93605931075311        0.54366927970029
C           -5.63233765568479        0.16132217345393        0.03288521793335
C           -4.16932291515097        0.20141544855933        0.07254062688642
C           -3.41519271623885       -0.82216350780621       -0.57958560104406
C           -4.04125999557368       -1.82034265284410       -1.33141092873956
C           -3.30832462641402       -2.79223246517336       -2.00729015196344
C           -1.93211100417598       -2.75167584701482       -1.98010280227110
C           -1.28161428844872       -1.74310295011894       -1.27198520648919
C           -1.99017285713916       -0.78728887858287       -0.54074359681588
C           -1.32341641129010        0.27112492426929        0.15956884265593
C            0.12997090398382        0.30619720760999        0.19768008046351
C            0.84271798816821        1.43930371999833       -0.21924931688078
C            2.21736746885532        1.45078242323828       -0.21677708776929
C            2.94339320749930        0.33268208157338        0.20808923426875
C            4.38864640382211        0.40086659386799        0.16761053512050
N            5.06134692335783        1.51155625303327        0.35655414224825
C            6.37160479964067        1.18168236435003        0.25202729027060
C            7.50160511776296        2.03458183126168        0.40938590468208
C            7.38921948465758        3.38470478915519        0.72031629582695
C            8.52588440848882        4.15934619047798        0.87851299988986
C            9.77799076759116        3.59858550031920        0.72537130304691
C            9.92731413057536        2.24546828863593        0.40642446932721
C           11.21367513153005        1.65841257093097        0.23223674985933
C           11.34457451732838        0.35540047384550       -0.10279585054785
C           10.20480729759274       -0.48097505524412       -0.28789554516476
C           10.34786359720622       -1.81976961915002       -0.66316016238309
C            9.23907212229579       -2.61304142065732       -0.86710648549868
C            7.96526098107616       -2.10615161992897       -0.67425547084103
C            7.77494722690452       -0.78603026846271       -0.26825336034785
C            8.90979823722104        0.06056088678676       -0.09666858808636
C            8.77551044056000        1.43647843628184        0.24429882048053
C            6.50774314862328       -0.18083825055056       -0.03021123629115
N            5.22365378029626       -0.67207328560021       -0.07051079273399
C            4.79318520278340       -1.98703139431536       -0.33426270801554
C            4.02071186447315       -2.24260058675203       -1.46126283292156
C            3.56066885452204       -3.52496333587081       -1.69947039567431
C            3.87016989679742       -4.55094213530934       -0.82218453666166
C            4.64281400707734       -4.29522408870159        0.29940275607689
C            5.10330805659614       -3.01585455993971        0.55017841143871
C            2.23992427648011       -0.78182101697144        0.67278428345262
C            0.86401875934028       -0.79546342553018        0.65586854376655
C           -2.08282274005525        1.29273491077604        0.81783130979707
C           -1.46639004143806        2.27587735886272        1.59456269630530
C           -2.20636347448213        3.25122713419969        2.26020232496710
C           -3.58193873981763        3.22936643950795        2.19804546636863
C           -4.22529679504771        2.22658306463018        1.47730027999221
C           -3.50748163279904        1.26010657600334        0.76737853267965
C           -6.35742878765626        1.21855277432317       -0.51498139172015
C           -8.11481234492226        3.62551496554017       -0.88250144831661
C           -8.82508526325328        4.68242373286236       -1.42042182673284
H          -10.47864011439852        5.26993916413956       -2.64827211131773
H          -11.16662302737185        2.94831814901305       -3.12359358129429
H           -9.90311098805859        1.06754732531275       -2.17266062520097
H           -9.49443568681231        0.05232720782205       -0.06706716466615
H           -7.06883655379928       -3.58267214450449        0.22627038454908
H           -8.26246541567268       -5.53107598939983        1.12849790208186
H          -10.31249454845064       -5.21855685433763        2.46621306059750
H          -11.15442111310049       -2.94068728902036        2.90388507391717
H           -9.95287245562115       -0.98927151234774        2.01693062465411
H           -5.76924813795984       -1.73868155133404        1.00744375501915
H           -5.11780706179972       -1.82984131965643       -1.40675430110090
H           -3.82554567970649       -3.55922459900601       -2.56455716706238
H           -1.34945471091835       -3.48540350498132       -2.51718683467735
H           -0.20402080439207       -1.69622534057898       -1.30727721473397
H            0.29766715694537        2.29522924397668       -0.58998630105784
H            2.76386833254315        2.31665909306774       -0.55667223039919
H            6.40241807732627        3.80430635028458        0.83773746066503
H            8.43215599974111        5.20751098402646        1.12314466114357
H           10.66383610181745        4.20574975174538        0.84799764353595
H           12.08346495865141        2.28568555436417        0.36803803849794
H           12.32188943014953       -0.08465593522531       -0.24330852507778
H           11.34043635506037       -2.22267760226067       -0.80450707478908
H            9.35863551267724       -3.64035906441496       -1.17962771000052
H            7.11463105388526       -2.74405067794399       -0.85401805679636
H            3.78326536864883       -1.43446635682934       -2.13713199758199
H            2.95994631339187       -3.72272967240028       -2.57437112590308
H            3.50904072860512       -5.55048596636953       -1.01097173539975
H            4.88384264490549       -5.09337983587820        0.98538609706211
H            5.70148716259094       -2.80337894140432        1.42443727744408
H            2.76866175203605       -1.63178068314233        1.07662305487486
H            0.33423733580514       -1.65482235178523        1.04107504547765
H           -0.39276655243676        2.27533374379382        1.70109476253955
H           -1.69323427385082        4.00808130035190        2.83437879204379
H           -4.16831267536253        3.97061868647762        2.72051387205069
H           -5.30377321512625        2.18647795257084        1.48421045431521
H           -5.82542071224765        2.05169785005071       -0.95102027238196
H           -7.26598976297194        3.81905947901892       -0.24246172444963
H           -8.52048624372150        5.69713863591659       -1.20845746173986

 projected vibrational frequencies (cm⁻¹)
eigval :       -0.00    -0.00    -0.00     0.00     0.00     0.00
eigval :        6.00     6.69     8.40    18.22    22.72    27.53
eigval :       30.69    40.15    42.78    43.37    47.04    48.48
eigval :       51.73    64.97    69.50    77.06    85.06    91.09
eigval :       96.67   108.91   112.39   120.87   123.31   130.35
eigval :      165.27   174.54   178.75   189.28   204.69   212.46
eigval :      222.09   228.55   232.44   233.63   246.97   258.98
eigval :      270.62   276.71   279.87   282.42   309.44   322.59
eigval :      329.37   351.56   353.62   367.63   372.33   373.14
eigval :      376.34   377.08   378.70   382.84   385.29   396.52
eigval :      407.31   421.08   424.50   426.72   434.57   441.95
eigval :      453.30   469.10   471.82   473.99   487.74   489.98
eigval :      509.00   520.40   522.30   534.26   535.15   555.61
eigval :      569.81   571.50   581.60   581.85   582.86   585.60
eigval :      588.78   594.99   596.81   598.81   605.26   605.74
eigval :      629.46   631.12   632.04   642.95   658.18   663.05
eigval :      669.49   673.08   673.40   678.45   682.22   682.66
eigval :      694.11   698.71   702.98   711.06   716.85   729.75
eigval :      749.33   752.34   757.50   757.91   761.32   763.79
eigval :      772.10   774.89   780.91   799.04   820.95   828.01
eigval :      838.45   839.77   845.57   852.20   870.14   875.72
eigval :      875.95   877.59   879.96   887.57   889.68   891.45
eigval :      893.29   893.56   899.68   901.65   901.79   904.01
eigval :      904.05   905.57   907.10   911.75   918.05   921.33
eigval :      925.44   928.88   929.07   930.26   930.56   932.36
eigval :      932.46   932.47   934.69   937.07   937.65   945.65
eigval :      957.24   986.59   989.61   996.58   999.46  1008.37
eigval :     1026.88  1078.67  1084.59  1086.19  1096.31  1101.46
eigval :     1103.67  1107.22  1109.98  1115.56  1116.17  1120.60
eigval :     1122.76  1123.20  1124.49  1135.07  1138.50  1139.80
eigval :     1159.22  1179.77  1180.22  1181.46  1182.49  1182.88
eigval :     1182.96  1184.47  1185.43  1188.64  1190.41  1200.47
eigval :     1201.82  1202.17  1203.56  1223.68  1233.54  1233.77
eigval :     1244.74  1245.61  1249.93  1253.32  1263.80  1268.97
eigval :     1273.21  1275.45  1282.90  1283.10  1298.35  1299.38
eigval :     1300.63  1312.91  1313.26  1315.57  1319.03  1321.02
eigval :     1322.18  1322.85  1333.35  1360.99  1361.90  1363.70
eigval :     1371.32  1376.72  1377.88  1388.32  1397.05  1399.46
eigval :     1408.44  1409.80  1416.55  1417.31  1420.57  1427.52
eigval :     1434.17  1436.32  1443.77  1447.68  1470.38  1474.52
eigval :     1481.79  1482.80  1485.40  1485.54  1490.47  1504.57
eigval :     1519.88  1520.26  1530.25  1532.38  1542.45  1555.93
eigval :     1561.64  1562.23  1563.89  1572.72  1578.57  1582.33
eigval :     1582.33  1583.62  1587.80  1593.29  1600.09  1600.30
eigval :     1609.11  3064.40  3069.46  3070.67  3070.92  3071.70
eigval :     3071.75  3071.94  3074.51  3076.66  3077.57  3078.02
eigval :     3079.51  3079.68  3080.85  3081.90  3082.19  3082.31
eigval :     3082.44  3083.87  3084.12  3084.20  3084.67  3084.99
eigval :     3086.48  3087.77  3090.40  3092.11  3092.71  3094.90
eigval :     3095.06  3096.42  3096.50  3098.21  3101.39  3102.31
eigval :     3104.27  3106.87  3113.74

   temp. (K)  partition function   enthalpy   heat capacity  entropy
                                   cal/mol     cal/K/mol   cal/K/mol   J/K/mol
 298.15  VIB  0.183E+24            28728.070    182.501    179.928
         ROT  0.233E+09              888.752      2.981     41.272
         INT  0.426E+32            29616.823    185.482    221.200
         TR   0.219E+29             1481.254      4.968     45.892
         TOT                       31098.0764   190.4500   267.0918  1117.5123

       T/K    H(0)-H(T)+PV         H(T)/Eh          T*S/Eh         G(T)/Eh
   ------------------------------------------------------------------------
    298.15    0.495579E-01    0.823787E+00    0.126904E+00    0.696883E+00
   ------------------------------------------------------------------------

         :::::::::::::::::::::::::::::::::::::::::::::::::::::
         ::                  THERMODYNAMIC                  ::
         :::::::::::::::::::::::::::::::::::::::::::::::::::::
         :: total free energy        -155.160639989528 Eh   ::
         ::.................................................::
         :: total energy             -155.857522719159 Eh   ::
         :: zero point energy           0.774228741740 Eh   ::
         :: G(RRHO) w/o ZPVE           -0.077346012109 Eh   ::
         :: G(RRHO) contrib.            0.696882729631 Eh   ::
         :::::::::::::::::::::::::::::::::::::::::::::::::::::

           -------------------------------------------------
          | TOTAL ENERGY             -155.857522719159 Eh   |
          | TOTAL ENTHALPY           -155.033736038134 Eh   |
          | TOTAL FREE ENERGY        -155.160639989528 Eh   |
          | GRADIENT NORM               0.000031447088 Eh/α |
           -------------------------------------------------

 * finished run on 2025/07/19 at 13:49:15.926
