   * xtb version 6.7.1 (edcfbbe) compiled by 'albert@albert-system' on 2024-07-22

   ID    Z sym.   atoms
    1    6 C      1-7, 9-20, 22-25, 27-30, 32-49, 51-68
    2    8 O      8
    3    7 N      21, 26, 31, 50
    4    1 H      69-112

          program call               : xtb data2507/gas/V–TPA/V–TPA_gas_S0_crest.xyz --gfn 2 --ohess vtight --parallel 40 --molden --ceasefiles --namespace data2507/gas/V–TPA/V–TPA_gas_S0_finalOpt
          :  Hamiltonian                  GFN2-xTB          :
 * total energy  :  -173.2016316 Eh     change       -0.2386827E-08 Eh
 * total energy  :  -173.2016325 Eh     change       -0.8188528E-06 Eh
 * total energy  :  -173.2016332 Eh     change       -0.7170154E-06 Eh
 * total energy  :  -173.2016340 Eh     change       -0.7712434E-06 Eh
 * total energy  :  -173.2016339 Eh     change        0.1818816E-07 Eh
 * total energy  :  -173.2016350 Eh     change       -0.1099050E-05 Eh
 * total energy  :  -173.2016362 Eh     change       -0.1205247E-05 Eh
 * total energy  :  -173.2016371 Eh     change       -0.8934389E-06 Eh
 * total energy  :  -173.2016385 Eh     change       -0.1389109E-05 Eh
 * total energy  :  -173.2016405 Eh     change       -0.1964731E-05 Eh
 * total energy  :  -173.2016480 Eh     change       -0.8118379E-06 Eh
 * total energy  :  -173.2016489 Eh     change       -0.8981690E-06 Eh
 * total energy  :  -173.2016500 Eh     change       -0.1101689E-05 Eh
 * total energy  :  -173.2016515 Eh     change       -0.1524983E-05 Eh
 * total energy  :  -173.2016527 Eh     change       -0.1249251E-05 Eh
 * total energy  :  -173.2016535 Eh     change       -0.8075278E-06 Eh
 * total energy  :  -173.2016538 Eh     change       -0.2448550E-06 Eh
 * total energy  :  -173.2016542 Eh     change       -0.4239799E-06 Eh
 * total energy  :  -173.2016543 Eh     change       -0.8849310E-07 Eh
   *** GEOMETRY OPTIMIZATION CONVERGED AFTER 24 ITERATIONS ***

 final structure:
================
112
 xtb: 6.7.1 (edcfbbe)
C           12.36879046877703        2.68340358564762        2.44005716653414
C           11.39853220030559        1.79027063109289        2.59367483974831
C           10.87842774013164        0.88097286529674        1.58014632946552
C           11.31987078170818        0.88158811225114        0.25586809439370
C           10.79143833464383        0.00243752543189       -0.66676003229793
C            9.81102718503764       -0.91057971704453       -0.29653376375531
C            9.25189674535040       -1.88140415243946       -1.30756503256229
O            7.95915017611552       -2.35173437119419       -1.00235024418534
C            6.91870478004966       -1.47386858293835       -1.03980246776925
C            7.00763373364610       -0.12842474575095       -1.36398641080860
C            5.86988011247079        0.67413900584285       -1.40115563567326
C            4.61461323669730        0.18588278261506       -1.10501033248798
C            4.51937419908695       -1.15433715862505       -0.75201932362968
C            5.65412789084332       -1.99079035224291       -0.73149824678597
C            5.19618741188326       -3.30239845859142       -0.37400103452723
C            5.83772242409388       -4.51843631328568       -0.17860328618850
C            5.07985407926529       -5.61052616009344        0.19419272551767
C            3.70466078040784       -5.49846815395940        0.38626187102816
C            3.04529564729154       -4.29862836937146        0.19742979184278
C            3.79698737416771       -3.20269705931540       -0.20013983379426
N            3.40247278108322       -1.89910768447488       -0.43136994082875
C            2.09077354660407       -1.41575739588186       -0.35357550794207
C            1.05767241686662       -2.07460911972918       -1.01594078780399
C           -0.23550730066836       -1.60312626243710       -0.93571899488896
C           -0.52786840373633       -0.45830149631387       -0.19406628612663
N           -1.84108330883077        0.01846533378059       -0.11220616511554
C           -2.08734903265606        1.39405745110630       -0.11655155004996
C           -3.11890739019055        1.93392323241917        0.65290997730309
C           -3.36840367645607        3.28992768858712        0.63922378081872
C           -2.57951862475288        4.14423373440126       -0.12718945028500
N           -2.82755502522082        5.52322488206480       -0.13399805484253
C           -2.96545718260505        6.32502567952595        0.98139997983708
C           -2.85071654869041        5.99789723645330        2.32499232825392
C           -3.01210601950223        7.01015086117927        3.25135233707661
C           -3.27351524980832        8.32110588445750        2.85882717714385
C           -3.36586508858280        8.65699789388098        1.52309107794594
C           -3.20730471202045        7.65686950127685        0.57285623665869
C           -3.21913484318546        7.64726540708399       -0.86302160875638
C           -3.42012690212112        8.62976654221233       -1.82356793224344
C           -3.38674683905805        8.26931731580942       -3.15567193183458
C           -3.17085416279686        6.94610291317546       -3.53449242620375
C           -2.96818380351542        5.95102398223814       -2.59769774770216
C           -2.97769942818645        6.31117642025377       -1.25769186400790
C           -1.54141501061605        3.61095696905803       -0.88709021359083
C           -1.30489925467493        2.25255185404491       -0.89009891301551
C           -2.90344993784439       -0.88663636704241       -0.02742405715891
C           -2.76909277584472       -2.06841905319864        0.70230805174073
C           -3.81486196974002       -2.96283357410139        0.78692371173119
C           -5.02072570553940       -2.70015882865377        0.14150112171488
N           -6.08215770974838       -3.61041951023409        0.22627445744443
C           -7.38212664224883       -3.30573654294768        0.57729269239611
C           -7.93267327710718       -2.09143416885777        0.96158337622834
C           -9.27418895276245       -2.06674227379112        1.29097139163062
C          -10.05508235596149       -3.21976760274492        1.24931944586750
C           -9.50786382161568       -4.43499153415424        0.88976445826851
C           -8.16120448904427       -4.48546167112842        0.55460835991060
C           -7.27926828802617       -5.54927902540478        0.16417830020165
C           -7.45809899787723       -6.91018081790466       -0.04651222519377
C           -6.37490984492013       -7.66533123880047       -0.44891095748606
C           -5.12880894512180       -7.07741451477486       -0.65527032755936
C           -4.92594211417205       -5.72601448807606       -0.45202713047443
C           -6.00540193000678       -4.96576206238271       -0.02526230140212
C           -5.15825999260954       -1.52247209136350       -0.58889318205912
C           -4.11354981604472       -0.62620098465113       -0.67125641810070
C            0.50944306113647        0.20127502381428        0.46534272225624
C            1.80199029218782       -0.27292317615315        0.38832493887122
C            9.36876609241149       -0.92394769336435        1.01917281956711
C            9.89114103034367       -0.03775353503017        1.93947611519331
H           12.88798423607371        2.82838577115733        1.50830031286173
H           12.68434970120827        3.31145233328284        3.25545221419570
H           10.92377440010281        1.69671152478313        3.56320666381027
H           12.07839905701555        1.58085210947047       -0.05956968745692
H           11.14166287950811        0.02241657941869       -1.68974808823268
H            9.87131095751733       -2.78668930057156       -1.32249171114010
H            9.27512940602749       -1.43869802526432       -2.31359391891337
H            7.96078132773472        0.32136648890393       -1.59076342736911
H            5.98282968573437        1.71332240721368       -1.67239512925336
H            3.74317417859482        0.81936141041241       -1.15590236310036
H            6.90483893286775       -4.59216914900168       -0.31502168150888
H            5.55692614406412       -6.56697597603299        0.34936489628370
H            3.14095528729777       -6.36747228614099        0.69288092441074
H            1.98180402777092       -4.21789356728364        0.36589937681924
H            1.27912983096089       -2.94658768898124       -1.61233189170450
H           -1.02985369119119       -2.11367410271114       -1.45976226281837
H           -3.72778696214843        1.28000380922082        1.25932518934108
H           -4.18141352895217        3.69583898274433        1.22195270455284
H           -2.63127596622843        4.98833203174318        2.63868662675332
H           -2.93030406160274        6.78046686951399        4.30363372649743
H           -3.39604718000555        9.08327556956712        3.61393478022222
H           -3.55315498469987        9.67555605353634        1.21815534782154
H           -3.60266403729190        9.65230350455365       -1.52925490156193
H           -3.53841717480141        9.01830685073824       -3.91863636635995
H           -3.16524886286793        6.69166296412175       -4.58424051239470
H           -2.81880118281169        4.92556145912899       -2.90082608302596
H           -0.91847681738269        4.26926074769433       -1.47352306403296
H           -0.50533081278790        1.84596752730601       -1.49128805091975
H           -1.84061755693057       -2.27394906441490        1.21397702257638
H           -3.71037848403318       -3.86278560298263        1.37385033806985
H           -7.33213338735997       -1.19563682494511        1.01312835215714
H           -9.72689893193995       -1.13298231516945        1.59073731944131
H          -11.10082355734251       -3.15824908419591        1.51150174633708
H          -10.10916983456275       -5.33144894678401        0.87224449679588
H           -8.42746794823672       -7.36269424896267        0.09860551237238
H           -6.49192696868432       -8.72573920261378       -0.61605625390326
H           -4.30342218402500       -7.69128730109851       -0.98479399861564
H           -3.96058039351713       -5.27680315118459       -0.63099966230005
H           -6.08243847138193       -1.32427473152802       -1.11036917656523
H           -4.22466736648775        0.27967825597639       -1.24844356742570
H            0.29181984574115        1.08261762854560        1.05023681558283
H            2.59445311068299        0.22868248863257        0.92252090561910
H            8.60717747516703       -1.62989621297317        1.31665256364955
H            9.53196174301988       -0.05786442757458        2.95875382727946

          :  Hamiltonian                  GFN2-xTB          :
         :: gradient norm              0.000117408157 Eh/a0 ::
         :: HOMO-LUMO gap              2.576952841941 eV    ::
         :: SCC energy              -176.406188046718 Eh    ::
         :: -> dispersion             -0.157417884310 Eh    ::
         :: repulsion energy           3.204533743231 Eh    ::

    * Orbital Energies and Occupations

         #    Occupation            Energy/Eh            Energy/eV
      -------------------------------------------------------------
         1        2.0000           -0.7126050             -19.3910
       ...           ...                  ...                  ...
       149        2.0000           -0.4100867             -11.1590
       150        2.0000           -0.4082058             -11.1078
       151        2.0000           -0.4035988             -10.9825
       152        2.0000           -0.4035118             -10.9801
       153        2.0000           -0.3914582             -10.6521
       154        2.0000           -0.3842212             -10.4552
       155        2.0000           -0.3769336             -10.2569
       156        2.0000           -0.3768419             -10.2544
       157        2.0000           -0.3745006             -10.1907
       158        2.0000           -0.3681760             -10.0186
       159        2.0000           -0.3621423              -9.8544
       160        2.0000           -0.3587545              -9.7622
       161        2.0000           -0.3486904              -9.4883 (HOMO)
       162                         -0.2539891              -6.9114 (LUMO)
       163                         -0.2482072              -6.7541
       164                         -0.2473386              -6.7304
       165                         -0.2424359              -6.5970
       166                         -0.2405264              -6.5451
       167                         -0.2400922              -6.5332
       168                         -0.2358818              -6.4187
       169                         -0.2348955              -6.3918
       170                         -0.2345625              -6.3828
       171                         -0.2253347              -6.1317
       172                         -0.2202013              -5.9920
       ...                                ...                  ...
       316                          0.7479285              20.3522
      -------------------------------------------------------------
                  HL-Gap            0.0947013 Eh            2.5770 eV

     #   Z          covCN         q      C6AA      α(0)
     1   6 C        2.837    -0.086    30.139     8.997
     2   6 C        2.896    -0.030    28.746     8.791
     3   6 C        2.970     0.013    27.713     8.635
     4   6 C        2.923    -0.032    28.806     8.801
     5   6 C        2.921    -0.041    29.010     8.833
     6   6 C        2.968    -0.001    28.042     8.686
     7   6 C        3.700     0.079    19.418     6.302
     8   8 O        1.705    -0.268    18.451     5.800
     9   6 C        2.858     0.142    24.901     8.179
    10   6 C        2.918    -0.079    29.975     8.978
    11   6 C        2.926    -0.035    28.881     8.813
    12   6 C        2.908    -0.064    29.592     8.920
    13   6 C        3.076     0.045    26.908     8.505
    14   6 C        3.072    -0.039    28.891     8.813
    15   6 C        3.069    -0.009    28.180     8.704
    16   6 C        2.912    -0.033    28.828     8.804
    17   6 C        2.920    -0.041    29.023     8.834
    18   6 C        2.924    -0.035    28.870     8.811
    19   6 C        2.910    -0.052    29.285     8.874
    20   6 C        3.077     0.044    26.939     8.510
    21   7 N        2.805    -0.041    22.032     6.971
    22   6 C        2.912     0.058    26.701     8.473
    23   6 C        2.922    -0.043    29.059     8.840
    24   6 C        2.922    -0.047    29.172     8.857
    25   6 C        2.924     0.060    26.654     8.467
    26   7 N        2.752    -0.071    22.607     7.062
    27   6 C        2.923     0.061    26.641     8.464
    28   6 C        2.922    -0.048    29.190     8.860
    29   6 C        2.921    -0.043    29.061     8.840
    30   6 C        2.912     0.057    26.731     8.478
    31   7 N        2.802    -0.044    22.082     6.979
    32   6 C        3.076     0.046    26.886     8.501
    33   6 C        2.910    -0.051    29.275     8.872
    34   6 C        2.924    -0.034    28.838     8.806
    35   6 C        2.920    -0.041    29.021     8.834
    36   6 C        2.913    -0.033    28.818     8.803
    37   6 C        3.068    -0.017    28.367     8.733
    38   6 C        3.068    -0.017    28.367     8.733
    39   6 C        2.913    -0.033    28.818     8.803
    40   6 C        2.920    -0.041    29.021     8.834
    41   6 C        2.924    -0.034    28.838     8.806
    42   6 C        2.910    -0.051    29.275     8.872
    43   6 C        3.076     0.046    26.886     8.501
    44   6 C        2.921    -0.043    29.059     8.840
    45   6 C        2.922    -0.048    29.189     8.860
    46   6 C        2.924     0.061    26.642     8.465
    47   6 C        2.922    -0.047    29.179     8.858
    48   6 C        2.921    -0.043    29.059     8.840
    49   6 C        2.912     0.057    26.725     8.477
    50   7 N        2.802    -0.043    22.077     6.978
    51   6 C        3.076     0.046    26.887     8.501
    52   6 C        2.910    -0.051    29.272     8.872
    53   6 C        2.924    -0.034    28.838     8.806
    54   6 C        2.920    -0.041    29.021     8.834
    55   6 C        2.913    -0.033    28.818     8.803
    56   6 C        3.068    -0.017    28.367     8.733
    57   6 C        3.068    -0.017    28.367     8.733
    58   6 C        2.913    -0.033    28.818     8.803
    59   6 C        2.920    -0.041    29.020     8.834
    60   6 C        2.924    -0.034    28.837     8.806
    61   6 C        2.910    -0.051    29.272     8.872
    62   6 C        3.076     0.046    26.887     8.501
    63   6 C        2.921    -0.043    29.060     8.840
    64   6 C        2.922    -0.048    29.183     8.859
    65   6 C        2.922    -0.047    29.173     8.857
    66   6 C        2.921    -0.043    29.063     8.841
    67   6 C        2.920    -0.031    28.763     8.795
    68   6 C        2.928    -0.034    28.848     8.808
    69   1 H        0.926     0.039     2.457     2.451
    70   1 H        0.926     0.038     2.481     2.463
    71   1 H        0.925     0.035     2.522     2.483
    72   1 H        0.926     0.038     2.476     2.461
    73   1 H        0.925     0.027     2.632     2.537
    74   1 H        0.924     0.056     2.242     2.342
    75   1 H        0.923     0.034     2.537     2.491
    76   1 H        0.926     0.030     2.579     2.511
    77   1 H        0.926     0.031     2.571     2.508
    78   1 H        0.926     0.028     2.614     2.528
    79   1 H        0.926     0.043     2.413     2.429
    80   1 H        0.926     0.027     2.631     2.536
    81   1 H        0.926     0.027     2.627     2.535
    82   1 H        0.926     0.024     2.667     2.554
    83   1 H        0.926     0.045     2.381     2.413
    84   1 H        0.926     0.038     2.481     2.463
    85   1 H        0.926     0.037     2.483     2.464
    86   1 H        0.926     0.044     2.399     2.422
    87   1 H        0.926     0.026     2.646     2.544
    88   1 H        0.926     0.028     2.610     2.526
    89   1 H        0.926     0.028     2.621     2.532
    90   1 H        0.926     0.031     2.578     2.511
    91   1 H        0.926     0.031     2.578     2.511
    92   1 H        0.926     0.028     2.621     2.532
    93   1 H        0.926     0.028     2.610     2.527
    94   1 H        0.926     0.026     2.646     2.544
    95   1 H        0.926     0.044     2.399     2.422
    96   1 H        0.926     0.038     2.482     2.464
    97   1 H        0.926     0.038     2.479     2.462
    98   1 H        0.926     0.044     2.394     2.420
    99   1 H        0.926     0.026     2.650     2.546
   100   1 H        0.926     0.028     2.610     2.526
   101   1 H        0.926     0.028     2.620     2.531
   102   1 H        0.926     0.031     2.577     2.510
   103   1 H        0.926     0.031     2.577     2.510
   104   1 H        0.926     0.028     2.619     2.531
   105   1 H        0.926     0.029     2.607     2.525
   106   1 H        0.926     0.026     2.648     2.545
   107   1 H        0.926     0.044     2.396     2.420
   108   1 H        0.926     0.038     2.476     2.461
   109   1 H        0.926     0.038     2.476     2.461
   110   1 H        0.926     0.045     2.384     2.414
   111   1 H        0.926     0.042     2.424     2.435
   112   1 H        0.926     0.034     2.533     2.489

molecular dipole:
                 x           y           z       tot (Debye)
 q only:        0.473       0.171      -0.009
   full:        0.575       0.263      -0.101       1.628

 projected vibrational frequencies (cm⁻¹)
eigval :       -0.00    -0.00    -0.00    -0.00     0.00     0.00
eigval :        5.72     6.95    10.75    11.09    11.68    13.17
eigval :       15.29    19.40    23.19    30.88    35.03    38.33
eigval :       39.50    53.73    54.75    63.23    81.72    82.75
eigval :       87.88    94.67   103.91   104.03   107.85   116.11
eigval :      119.46   122.72   144.57   144.88   159.11   163.51
eigval :      166.31   172.20   179.60   185.62   209.79   227.95
eigval :      233.51   236.97   248.92   253.21   262.11   271.62
eigval :      271.89   282.93   299.31   302.48   318.11   319.93
eigval :      325.07   338.54   368.90   372.95   380.28   386.63
eigval :      388.32   393.81   394.10   395.29   398.71   404.77
eigval :      408.73   411.05   417.15   417.97   424.54   426.50
eigval :      430.81   438.14   438.85   446.62   456.97   482.75
eigval :      501.81   503.00   504.48   515.44   519.21   519.41
eigval :      532.74   533.89   534.32   540.09   541.25   541.27
eigval :      541.47   574.40   578.77   581.67   584.32   590.95
eigval :      596.78   597.73   606.27   608.50   615.66   618.57
eigval :      621.94   625.14   643.56   657.05   670.25   673.69
eigval :      673.82   677.89   679.23   683.71   693.48   699.91
eigval :      706.75   707.08   708.63   715.03   736.16   743.45
eigval :      754.35   757.06   761.54   769.33   769.39   776.07
eigval :      780.68   780.73   787.50   806.45   811.94   818.04
eigval :      820.54   829.13   854.33   855.53   865.83   866.43
eigval :      867.52   870.80   872.99   873.21   877.44   878.25
eigval :      879.80   888.79   896.23   897.71   898.85   899.91
eigval :      902.07   902.31   902.57   902.69   904.23   909.64
eigval :      913.30   918.01   918.95   920.04   920.73   920.95
eigval :      924.69   925.23   925.61   926.10   926.73   932.15
eigval :      932.67   934.10   948.94   961.21   981.85   998.19
eigval :     1004.28  1012.07  1012.09  1012.09  1013.84  1021.91
eigval :     1026.77  1031.31  1040.40  1070.15  1070.17  1070.66
eigval :     1073.64  1073.78  1103.18  1117.79  1118.10  1121.02
eigval :     1134.84  1136.13  1137.54  1139.06  1149.77  1152.60
eigval :     1152.82  1176.50  1176.69  1178.11  1181.46  1181.48
eigval :     1182.53  1182.65  1183.10  1187.26  1196.49  1197.17
eigval :     1200.04  1203.41  1205.56  1214.88  1220.95  1236.88
eigval :     1236.95  1240.62  1244.51  1247.56  1249.90  1260.68
eigval :     1263.79  1266.50  1266.80  1276.09  1294.42  1298.44
eigval :     1299.12  1300.32  1302.93  1304.11  1309.11  1310.94
eigval :     1313.85  1318.80  1324.08  1324.18  1326.27  1341.33
eigval :     1357.53  1357.68  1361.24  1363.04  1363.10  1368.08
eigval :     1370.27  1377.00  1379.53  1409.56  1412.06  1416.61
eigval :     1420.32  1420.55  1421.89  1428.74  1428.98  1433.38
eigval :     1438.94  1440.15  1453.00  1476.88  1477.03  1480.28
eigval :     1485.00  1485.38  1488.63  1488.88  1492.62  1494.32
eigval :     1496.87  1552.59  1560.88  1561.20  1573.74  1574.98
eigval :     1575.15  1575.98  1588.67  1589.25  1589.50  1592.89
eigval :     1599.28  1599.31  1599.64  1600.17  1600.80  1601.84
eigval :     1609.98  1615.19  1615.62  1676.23  2878.65  2927.61
eigval :     3044.73  3066.07  3072.34  3074.04  3075.46  3075.55
eigval :     3075.78  3075.89  3080.57  3080.60  3081.53  3081.66
eigval :     3081.74  3082.33  3084.63  3085.36  3085.55  3086.85
eigval :     3087.01  3087.64  3087.76  3088.14  3089.26  3089.35
eigval :     3089.50  3090.76  3094.78  3094.88  3096.42  3096.55
eigval :     3097.50  3097.71  3098.18  3098.23  3098.95  3099.23
eigval :     3099.48  3100.46  3108.87  3111.34  3111.85  3131.41

   temp. (K)  partition function   enthalpy   heat capacity  entropy
                                   cal/mol     cal/K/mol   cal/K/mol   J/K/mol
 298.15  VIB  0.515E+28            32428.033    202.189    204.761
         ROT  0.402E+09              888.752      2.981     42.353
         INT  0.207E+37            33316.785    205.170    247.114
         TR   0.250E+29             1481.254      4.968     46.156
         TOT                       34798.0390   210.1378   293.2701  1227.0420

       T/K    H(0)-H(T)+PV         H(T)/Eh          T*S/Eh         G(T)/Eh
   ------------------------------------------------------------------------
    298.15    0.554542E-01    0.922932E+00    0.139342E+00    0.783590E+00
   ------------------------------------------------------------------------

         :::::::::::::::::::::::::::::::::::::::::::::::::::::
         ::                  THERMODYNAMIC                  ::
         :::::::::::::::::::::::::::::::::::::::::::::::::::::
         :: total free energy        -172.418063950915 Eh   ::
         ::.................................................::
         :: total energy             -173.201654303488 Eh   ::
         :: zero point energy           0.867478220005 Eh   ::
         :: G(RRHO) w/o ZPVE           -0.083887867432 Eh   ::
         :: G(RRHO) contrib.            0.783590352573 Eh   ::
         :::::::::::::::::::::::::::::::::::::::::::::::::::::

           -------------------------------------------------
          | TOTAL ENERGY             -173.201654303488 Eh   |
          | TOTAL ENTHALPY           -172.278721878488 Eh   |
          | TOTAL FREE ENERGY        -172.418063950915 Eh   |
          | GRADIENT NORM               0.000117395044 Eh/α |
          | HOMO-LUMO GAP               2.576952728825 eV   |
           -------------------------------------------------

 * finished run on 2025/09/14 at 04:01:43.580
