   * xtb version 6.7.1 (edcfbbe) compiled by 'albert@albert-system' on 2024-07-22

   ID    Z sym.   atoms
    1    6 C      1-7, 9-20, 22-25, 27-30, 32-49, 51-68
    2    8 O      8
    3    7 N      21, 26, 31, 50
    4    1 H      69-112

          program call               : xtb data2507/gas/V–TPA/V–TPA.xyz --gfn 2 --ohess vtight --parallel 40 --molden --ceasefiles --namespace data2507/gas/V–TPA/V–TPA_gas_S0_preOpt
          :  Hamiltonian                  GFN2-xTB          :
 * total energy  :  -173.1652056 Eh     change       -0.2635232E-08 Eh
 * total energy  :  -173.1865925 Eh     change       -0.2138683E-01 Eh
 * total energy  :  -173.1924947 Eh     change       -0.5902236E-02 Eh
 * total energy  :  -173.1943257 Eh     change       -0.1831036E-02 Eh
 * total energy  :  -173.1960762 Eh     change       -0.1750478E-02 Eh
 * total energy  :  -173.1971118 Eh     change       -0.1035601E-02 Eh
 * total energy  :  -173.1976772 Eh     change       -0.5653583E-03 Eh
 * total energy  :  -173.1980066 Eh     change       -0.3294371E-03 Eh
 * total energy  :  -173.1982722 Eh     change       -0.2656442E-03 Eh
 * total energy  :  -173.1985495 Eh     change       -0.2772473E-03 Eh
 * total energy  :  -173.2016495 Eh     change       -0.3757287E-06 Eh
 * total energy  :  -173.2016499 Eh     change       -0.3696712E-06 Eh
 * total energy  :  -173.2016503 Eh     change       -0.4165914E-06 Eh
 * total energy  :  -173.2016509 Eh     change       -0.5272648E-06 Eh
 * total energy  :  -173.2016514 Eh     change       -0.5663835E-06 Eh
 * total energy  :  -173.2016520 Eh     change       -0.5368097E-06 Eh
 * total energy  :  -173.2016525 Eh     change       -0.5364913E-06 Eh
 * total energy  :  -173.2016530 Eh     change       -0.5346258E-06 Eh
 * total energy  :  -173.2016530 Eh     change       -0.2184180E-08 Eh
   *** GEOMETRY OPTIMIZATION CONVERGED AFTER 122 ITERATIONS ***

 final structure:
================
112
 xtb: 6.7.1 (edcfbbe)
C           12.39601677078427        2.48406075042364        2.13527844989421
C           11.37198121988945        1.65485476313051        2.29746002907219
C           10.80146737971197        0.76521036474035        1.29354718240041
C           11.20629436830388        0.76466681631267       -0.04236304089618
C           10.63269651614044       -0.09612450741239       -0.95520828993728
C            9.64231803069763       -0.98925206866555       -0.56337080684885
C            9.03690051219817       -1.94156649793218       -1.56535502140582
O            7.75096640166731       -2.40343092138748       -1.22176888165571
C            6.71603498650387       -1.51827769570229       -1.22428483353896
C            6.80705860264257       -0.16887763967476       -1.53091493980626
C            5.67395412576898        0.64116631659802       -1.53241521364145
C            4.42181808833041        0.15632507177499       -1.21778431729533
C            4.32507486149463       -1.18834276383024       -0.88251786105712
C            5.45490497357053       -2.03163221407913       -0.89661436591486
C            4.99637010152814       -3.34556313512007       -0.54868450530163
C            5.63448533826611       -4.56773794168601       -0.38248434793213
C            4.87753928823533       -5.66071270432758       -0.01045641496301
C            3.50690492484580       -5.54374927091320        0.20933087972795
C            2.85108391712971       -4.33771642979288        0.05004345382295
C            3.60145512564227       -3.24044250407561       -0.34635917485760
N            3.21021266442715       -1.93141062615939       -0.55120462190259
C            1.90198530155410       -1.44443572960275       -0.44252859895832
C            0.85534359492339       -2.09081042520243       -1.09595275396814
C           -0.43531497157837       -1.61951021025006       -0.98278559470016
C           -0.71199131004541       -0.48731072134109       -0.21601118548846
N           -2.02355780945781       -0.01389967338565       -0.09861562944211
C           -2.27358497733415        1.36061001248438       -0.07041590088007
C           -3.29309213876440        1.88068087681025        0.72823797678918
C           -3.54825820130579        3.23555860963042        0.74598793593883
C           -2.77709300091406        4.10821776617490       -0.01776188485128
N           -3.03199475172280        5.48580425558145        0.00595173582745
C           -3.15541127058481        6.26571370505623        1.13841514981672
C           -3.01390546696619        5.91461049188045        2.47338265383821
C           -3.16598841603127        6.90823232592743        3.42124414010081
C           -3.44428131951426        8.22416664582930        3.05805809432929
C           -3.56315569316167        8.58408896382725        1.73070558707987
C           -3.41424890259891        7.60304814239304        0.75924632794691
C           -3.45202928082724        7.61998829533823       -0.67610694119619
C           -3.67722484177415        8.61865111880896       -1.61436156404638
C           -3.66555600119944        8.28321832521894       -2.95334699675133
C           -3.44750603775937        6.96883971229180       -3.36062493685686
C           -3.22088421590777        5.95807465078276       -2.44638525601904
C           -3.20841984135072        6.29325955262659       -1.09994075385351
C           -1.75052375559865        3.59466345766609       -0.80638137197731
C           -1.50846811092718        2.23763748522572       -0.84049331789257
C           -3.08273619617595       -0.92306904209919       -0.01253791684019
C           -2.93488470770685       -2.11601016423483        0.69599724864399
C           -3.97664814501531       -3.01519224175358        0.78000369495389
C           -5.19169734788109       -2.74637261027862        0.15457810936698
N           -6.24827149410952       -3.66242878515335        0.23655814854536
C           -7.54604487195358       -3.36895018175415        0.60508576918663
C           -8.09792476622438       -2.16345756729100        1.01441027487652
C           -9.43640121046112       -2.14980322052788        1.35660006017701
C          -10.21299781382618       -3.30524578474420        1.30341935789035
C           -9.66415864688288       -4.51215601187503        0.91920852308127
C           -8.32052156576772       -4.55140402915109        0.57071065002980
C           -7.43817129687097       -5.60505367766304        0.15453803051872
C           -7.61382804701144       -6.96306083792180       -0.07648763156290
C           -6.53180848638107       -7.70718446606061       -0.50189707892912
C           -5.29022398482958       -7.11083710481583       -0.71118285887671
C           -5.09061136257176       -5.76209062931233       -0.48796538265566
C           -6.16859293795289       -5.01325301147495       -0.03789487432717
C           -5.34297492087572       -1.55689257628998       -0.55375450638993
C           -4.30246961885128       -0.65561793378682       -0.63484190269986
C            0.33908679580245        0.16118198213918        0.43250306575529
C            1.62942045458680       -0.31283586099781        0.32225075973711
C            9.23484824172936       -0.99999433586237        0.76347940071380
C            9.80161340855855       -0.13101142407140        1.67400985049992
H           12.92667430425738        2.58211304797826        1.20381763991709
H           12.74866869210129        3.10173755740006        2.94337134632823
H           10.89207087700867        1.60037717379826        3.26741503771775
H           11.96997799400646        1.45040824802509       -0.37467475736542
H           10.95460600734114       -0.07723234918535       -1.98746123205217
H            9.64648579320553       -2.85240758266229       -1.61328328751746
H            9.02957000268105       -1.48627426327906       -2.56604822682388
H            7.75834083470325        0.27809664040060       -1.77096533175952
H            5.78807062236345        1.68355914092779       -1.79056126472124
H            3.55358725684147        0.79578465117512       -1.24169481342369
H            6.69837751229548       -4.64538833275811       -0.54020286389557
H            5.35191289300785       -6.62185179247635        0.12241083235633
H            2.94408133914765       -6.41383729549669        0.51449434307760
H            1.79148836966272       -4.25345267323216        0.23998449876304
H            1.06405298707770       -2.95307919224216       -1.71077825103596
H           -1.24033223673983       -2.12058120738876       -1.49963732944086
H           -3.88835003331347        1.21218645556661        1.33228672827765
H           -4.35215894560042        3.62634870158025        1.35126088112948
H           -2.78142475891636        4.90109671029297        2.76412973514727
H           -3.06342272732010        6.65973626512277        4.46741578333815
H           -3.55894290035290        8.97118747167841        3.82937156512789
H           -3.76354691569755        9.60663492459176        1.44826150736315
H           -3.86150128313481        9.63419150815523       -1.29774223121982
H           -3.83620757515362        9.04510212810182       -3.69934842814031
H           -3.45930909189124        6.73392750942292       -4.41486416659003
H           -3.06997419582504        4.93951999042119       -2.77126558516825
H           -1.14111436647422        4.26720126537010       -1.39087841683201
H           -0.71838599260062        1.84644167099546       -1.46401706151054
H           -1.99878432970814       -2.32683803196620        1.19138520182528
H           -3.86145854099569       -3.92413590635060        1.35084127103642
H           -7.50067840514552       -1.26604531219168        1.07516224715338
H           -9.89007095355929       -1.22294573387707        1.67570407876344
H          -11.25651198487076       -3.25235571956071        1.57613449980196
H          -10.26186194851555       -5.41079744209774        0.89267234516118
H           -8.57994199818110       -7.42175378395588        0.07091092206938
H           -6.64632057544010       -8.76521775737736       -0.68505595874415
H           -4.46580961121478       -7.71585031009881       -1.05901258345004
H           -4.12886805536529       -5.30621954042971       -0.66951544579342
H           -6.27457558303561       -1.35333806185056       -1.05970946638455
H           -4.42428528439944        0.25965626613388       -1.19480936848866
H            0.13424187298642        1.03311754342106        1.03581963742624
H            2.43286551034416        0.17968514454573        0.84845626156479
H            8.46527625148679       -1.68983062158356        1.07769385898140
H            9.46910891469422       -0.14847938585083        2.70234278348267

          :  Hamiltonian                  GFN2-xTB          :
         :: gradient norm              0.000033717444 Eh/a0 ::
         :: HOMO-LUMO gap              2.582716769607 eV    ::
         :: SCC energy              -176.406136899169 Eh    ::
         :: -> dispersion             -0.157402632520 Eh    ::
         :: repulsion energy           3.204483871641 Eh    ::

    * Orbital Energies and Occupations

         #    Occupation            Energy/Eh            Energy/eV
      -------------------------------------------------------------
         1        2.0000           -0.7126130             -19.3912
       ...           ...                  ...                  ...
       149        2.0000           -0.4100815             -11.1589
       150        2.0000           -0.4081565             -11.1065
       151        2.0000           -0.4035880             -10.9822
       152        2.0000           -0.4035738             -10.9818
       153        2.0000           -0.3914457             -10.6518
       154        2.0000           -0.3841782             -10.4540
       155        2.0000           -0.3769127             -10.2563
       156        2.0000           -0.3769115             -10.2563
       157        2.0000           -0.3745114             -10.1910
       158        2.0000           -0.3681605             -10.0182
       159        2.0000           -0.3621628              -9.8550
       160        2.0000           -0.3587665              -9.7625
       161        2.0000           -0.3486903              -9.4883 (HOMO)
       162                         -0.2537772              -6.9056 (LUMO)
       163                         -0.2482469              -6.7551
       164                         -0.2473204              -6.7299
       165                         -0.2424375              -6.5971
       166                         -0.2405316              -6.5452
       167                         -0.2401161              -6.5339
       168                         -0.2358777              -6.4186
       169                         -0.2349256              -6.3927
       170                         -0.2345363              -6.3821
       171                         -0.2252821              -6.1302
       172                         -0.2201860              -5.9916
       ...                                ...                  ...
       316                          0.7478410              20.3498
      -------------------------------------------------------------
                  HL-Gap            0.0949131 Eh            2.5827 eV

     #   Z          covCN         q      C6AA      α(0)
     1   6 C        2.837    -0.086    30.140     8.997
     2   6 C        2.896    -0.030    28.746     8.791
     3   6 C        2.970     0.013    27.713     8.635
     4   6 C        2.923    -0.032    28.806     8.802
     5   6 C        2.921    -0.041    29.013     8.833
     6   6 C        2.968    -0.001    28.043     8.686
     7   6 C        3.700     0.079    19.417     6.302
     8   8 O        1.705    -0.268    18.451     5.799
     9   6 C        2.858     0.142    24.902     8.179
    10   6 C        2.918    -0.079    29.975     8.978
    11   6 C        2.926    -0.035    28.881     8.813
    12   6 C        2.908    -0.064    29.592     8.920
    13   6 C        3.075     0.045    26.908     8.505
    14   6 C        3.073    -0.039    28.892     8.813
    15   6 C        3.069    -0.009    28.180     8.704
    16   6 C        2.912    -0.033    28.828     8.804
    17   6 C        2.920    -0.041    29.023     8.834
    18   6 C        2.924    -0.035    28.870     8.811
    19   6 C        2.910    -0.052    29.285     8.874
    20   6 C        3.077     0.044    26.939     8.510
    21   7 N        2.805    -0.041    22.032     6.971
    22   6 C        2.912     0.058    26.702     8.473
    23   6 C        2.922    -0.043    29.059     8.840
    24   6 C        2.922    -0.047    29.174     8.857
    25   6 C        2.924     0.060    26.654     8.466
    26   7 N        2.752    -0.071    22.608     7.062
    27   6 C        2.923     0.061    26.641     8.464
    28   6 C        2.922    -0.048    29.190     8.860
    29   6 C        2.921    -0.043    29.060     8.840
    30   6 C        2.912     0.057    26.732     8.478
    31   7 N        2.802    -0.044    22.083     6.979
    32   6 C        3.076     0.046    26.886     8.501
    33   6 C        2.910    -0.051    29.275     8.872
    34   6 C        2.924    -0.034    28.838     8.806
    35   6 C        2.920    -0.041    29.021     8.834
    36   6 C        2.913    -0.033    28.818     8.803
    37   6 C        3.068    -0.017    28.368     8.733
    38   6 C        3.068    -0.017    28.368     8.733
    39   6 C        2.913    -0.033    28.819     8.803
    40   6 C        2.920    -0.041    29.021     8.834
    41   6 C        2.924    -0.034    28.838     8.806
    42   6 C        2.910    -0.051    29.275     8.872
    43   6 C        3.076     0.046    26.886     8.501
    44   6 C        2.921    -0.043    29.059     8.840
    45   6 C        2.922    -0.048    29.190     8.860
    46   6 C        2.924     0.061    26.642     8.465
    47   6 C        2.922    -0.047    29.176     8.858
    48   6 C        2.921    -0.043    29.060     8.840
    49   6 C        2.912     0.057    26.723     8.477
    50   7 N        2.802    -0.043    22.076     6.978
    51   6 C        3.076     0.046    26.887     8.501
    52   6 C        2.910    -0.051    29.272     8.872
    53   6 C        2.924    -0.034    28.838     8.806
    54   6 C        2.920    -0.041    29.020     8.834
    55   6 C        2.913    -0.033    28.818     8.803
    56   6 C        3.068    -0.017    28.367     8.733
    57   6 C        3.068    -0.017    28.366     8.733
    58   6 C        2.913    -0.033    28.817     8.803
    59   6 C        2.920    -0.041    29.020     8.834
    60   6 C        2.924    -0.034    28.837     8.806
    61   6 C        2.910    -0.051    29.272     8.872
    62   6 C        3.076     0.046    26.887     8.501
    63   6 C        2.921    -0.043    29.060     8.840
    64   6 C        2.922    -0.047    29.180     8.858
    65   6 C        2.922    -0.047    29.175     8.858
    66   6 C        2.921    -0.043    29.063     8.841
    67   6 C        2.920    -0.031    28.762     8.795
    68   6 C        2.928    -0.034    28.848     8.808
    69   1 H        0.926     0.039     2.457     2.451
    70   1 H        0.926     0.038     2.481     2.463
    71   1 H        0.925     0.035     2.521     2.483
    72   1 H        0.926     0.038     2.476     2.461
    73   1 H        0.925     0.027     2.632     2.537
    74   1 H        0.924     0.056     2.242     2.342
    75   1 H        0.923     0.034     2.536     2.490
    76   1 H        0.926     0.030     2.580     2.512
    77   1 H        0.926     0.031     2.571     2.508
    78   1 H        0.926     0.028     2.614     2.528
    79   1 H        0.926     0.043     2.412     2.429
    80   1 H        0.926     0.027     2.631     2.536
    81   1 H        0.926     0.027     2.628     2.535
    82   1 H        0.926     0.024     2.667     2.554
    83   1 H        0.926     0.045     2.382     2.413
    84   1 H        0.926     0.038     2.482     2.464
    85   1 H        0.926     0.037     2.484     2.465
    86   1 H        0.926     0.044     2.399     2.422
    87   1 H        0.926     0.026     2.646     2.544
    88   1 H        0.926     0.028     2.610     2.527
    89   1 H        0.926     0.028     2.621     2.532
    90   1 H        0.926     0.031     2.578     2.511
    91   1 H        0.926     0.031     2.578     2.511
    92   1 H        0.926     0.028     2.621     2.532
    93   1 H        0.926     0.028     2.611     2.527
    94   1 H        0.926     0.026     2.646     2.544
    95   1 H        0.926     0.044     2.399     2.422
    96   1 H        0.926     0.038     2.482     2.463
    97   1 H        0.926     0.038     2.478     2.462
    98   1 H        0.926     0.044     2.393     2.419
    99   1 H        0.926     0.026     2.650     2.545
   100   1 H        0.926     0.028     2.609     2.526
   101   1 H        0.926     0.028     2.620     2.531
   102   1 H        0.926     0.031     2.576     2.510
   103   1 H        0.926     0.031     2.577     2.510
   104   1 H        0.926     0.028     2.619     2.531
   105   1 H        0.926     0.029     2.606     2.525
   106   1 H        0.926     0.026     2.648     2.545
   107   1 H        0.926     0.044     2.395     2.420
   108   1 H        0.926     0.038     2.476     2.461
   109   1 H        0.926     0.038     2.476     2.461
   110   1 H        0.926     0.045     2.384     2.415
   111   1 H        0.926     0.042     2.424     2.435
   112   1 H        0.926     0.034     2.533     2.489

molecular dipole:
                 x           y           z       tot (Debye)
 q only:        0.464       0.165      -0.022
   full:        0.565       0.257      -0.116       1.605

 projected vibrational frequencies (cm⁻¹)
eigval :       -0.00    -0.00     0.00     0.00     0.00     0.00
eigval :        5.74     6.99    10.90    11.09    11.70    13.37
eigval :       15.45    20.96    24.08    32.57    35.17    38.44
eigval :       39.81    53.86    54.81    63.31    81.76    82.81
eigval :       88.01    94.55   103.91   104.06   107.62   116.18
eigval :      119.46   122.75   144.59   144.88   159.07   163.83
eigval :      166.14   171.98   179.56   185.54   209.37   227.96
eigval :      233.50   236.98   249.03   253.24   261.53   271.63
eigval :      271.91   282.98   299.10   302.37   318.00   319.85
eigval :      324.87   338.51   369.01   372.87   380.30   386.63
eigval :      388.28   393.80   394.07   395.28   398.75   404.94
eigval :      408.47   411.01   417.20   417.96   424.33   426.34
eigval :      430.74   438.18   439.04   446.64   457.11   483.55
eigval :      501.81   502.93   504.67   515.36   519.21   519.42
eigval :      532.74   533.79   534.32   540.11   541.24   541.27
eigval :      541.35   574.57   578.78   581.67   584.08   590.93
eigval :      596.79   597.76   606.23   608.07   615.83   619.03
eigval :      621.95   625.16   643.47   657.00   670.26   673.69
eigval :      673.83   677.87   679.18   683.75   693.44   699.91
eigval :      706.74   707.05   708.63   715.02   735.98   743.07
eigval :      754.35   757.07   761.54   769.35   769.40   776.10
eigval :      780.70   780.73   787.72   806.54   812.01   818.08
eigval :      820.49   829.12   854.47   855.31   865.83   866.41
eigval :      867.70   870.78   873.03   873.21   877.47   878.26
eigval :      879.79   888.93   896.21   897.70   898.84   899.90
eigval :      902.09   902.31   902.58   902.70   904.23   909.70
eigval :      913.40   918.02   918.95   920.01   920.74   920.94
eigval :      924.63   925.20   925.63   926.14   926.70   932.17
eigval :      932.66   934.10   948.93   961.20   981.82   998.23
eigval :     1004.26  1012.07  1012.08  1012.09  1013.77  1021.91
eigval :     1026.76  1031.37  1040.47  1070.14  1070.22  1070.73
eigval :     1073.63  1073.83  1103.47  1117.81  1118.10  1120.85
eigval :     1134.87  1136.08  1137.50  1139.07  1149.69  1152.64
eigval :     1152.81  1176.51  1176.69  1178.12  1181.45  1181.48
eigval :     1182.50  1182.67  1183.10  1187.30  1196.49  1197.14
eigval :     1200.01  1203.42  1205.86  1215.02  1221.19  1236.88
eigval :     1236.92  1240.74  1244.51  1247.57  1249.86  1260.83
eigval :     1263.80  1266.49  1266.82  1276.08  1294.47  1298.39
eigval :     1299.04  1300.31  1302.90  1304.05  1309.17  1310.84
eigval :     1313.63  1318.84  1324.07  1324.11  1326.06  1341.31
eigval :     1357.53  1357.67  1361.25  1363.01  1363.10  1368.05
eigval :     1370.22  1377.00  1379.48  1409.55  1411.99  1416.63
eigval :     1420.15  1420.45  1421.90  1428.74  1428.95  1433.38
eigval :     1438.92  1440.08  1452.44  1476.86  1477.02  1480.30
eigval :     1484.94  1485.38  1488.63  1488.86  1492.65  1494.31
eigval :     1496.85  1552.57  1560.86  1561.18  1573.73  1574.98
eigval :     1575.16  1575.95  1588.64  1589.24  1589.48  1592.88
eigval :     1599.27  1599.31  1599.63  1600.15  1600.75  1601.88
eigval :     1609.99  1615.18  1615.62  1676.35  2878.12  2927.15
eigval :     3044.89  3066.24  3072.43  3074.02  3075.43  3075.59
eigval :     3075.76  3075.93  3080.54  3080.64  3081.51  3081.64
eigval :     3081.77  3082.25  3084.61  3085.33  3085.54  3086.83
eigval :     3086.99  3087.66  3087.77  3088.14  3089.24  3089.39
eigval :     3089.79  3090.74  3094.76  3094.91  3096.40  3096.57
eigval :     3097.29  3097.71  3098.11  3098.27  3098.95  3099.21
eigval :     3099.49  3100.38  3108.94  3111.08  3111.24  3131.26

   temp. (K)  partition function   enthalpy   heat capacity  entropy
                                   cal/mol     cal/K/mol   cal/K/mol   J/K/mol
 298.15  VIB  0.411E+28            32421.656    202.247    204.613
         ROT  0.404E+09              888.752      2.981     42.360
         INT  0.166E+37            33310.408    205.228    246.973
         TR   0.250E+29             1481.254      4.968     46.156
         TOT                       34791.6619   210.1960   293.1291  1226.4520

       T/K    H(0)-H(T)+PV         H(T)/Eh          T*S/Eh         G(T)/Eh
   ------------------------------------------------------------------------
    298.15    0.554440E-01    0.922926E+00    0.139275E+00    0.783651E+00
   ------------------------------------------------------------------------

         :::::::::::::::::::::::::::::::::::::::::::::::::::::
         ::                  THERMODYNAMIC                  ::
         :::::::::::::::::::::::::::::::::::::::::::::::::::::
         :: total free energy        -172.418001627711 Eh   ::
         ::.................................................::
         :: total energy             -173.201653027529 Eh   ::
         :: zero point energy           0.867482438120 Eh   ::
         :: G(RRHO) w/o ZPVE           -0.083831038302 Eh   ::
         :: G(RRHO) contrib.            0.783651399818 Eh   ::
         :::::::::::::::::::::::::::::::::::::::::::::::::::::

           -------------------------------------------------
          | TOTAL ENERGY             -173.201653027529 Eh   |
          | TOTAL ENTHALPY           -172.278726546935 Eh   |
          | TOTAL FREE ENERGY        -172.418001627711 Eh   |
          | GRADIENT NORM               0.000033713910 Eh/α |
          | HOMO-LUMO GAP               2.582716468277 eV   |
           -------------------------------------------------

 * finished run on 2025/09/14 at 03:41:22.159
