   * xtb version 6.7.1 (edcfbbe) compiled by 'albert@albert-system' on 2024-07-22

   ID    Z sym.   atoms
    1    6 C      1-7, 9-20, 22-25, 27-30, 32-49, 51-68
    2    8 O      8
    3    7 N      21, 26, 31, 50
    4    1 H      69-112

          program call               : xtb data2507/gas/V–TPA/V–TPA_gas_S0_finalOpt.xtbopt.xyz --gfn 2 --spinpol --tblite --uhf 2 --ohess vtight --parallel 40 --molden --ceasefiles --namespace data2507/gas/V–TPA/V–TPA_gas_T1_preOpt
 * total energy  :  -173.1013852 Eh     change        0.6498604E-07 Eh
 * total energy  :  -173.1040103 Eh     change       -0.2625098E-02 Eh
 * total energy  :  -173.1047419 Eh     change       -0.7315955E-03 Eh
 * total energy  :  -173.1048861 Eh     change       -0.1442467E-03 Eh
 * total energy  :  -173.1050304 Eh     change       -0.1442793E-03 Eh
 * total energy  :  -173.1050946 Eh     change       -0.6423593E-04 Eh
 * total energy  :  -173.1051396 Eh     change       -0.4494814E-04 Eh
 * total energy  :  -173.1051622 Eh     change       -0.2259885E-04 Eh
 * total energy  :  -173.1051712 Eh     change       -0.9026375E-05 Eh
 * total energy  :  -173.1051832 Eh     change       -0.1194391E-04 Eh
 * total energy  :  -173.1052226 Eh     change       -0.8869639E-06 Eh
 * total energy  :  -173.1052232 Eh     change       -0.5863805E-06 Eh
 * total energy  :  -173.1052241 Eh     change       -0.8420884E-06 Eh
 * total energy  :  -173.1052249 Eh     change       -0.8709240E-06 Eh
 * total energy  :  -173.1052256 Eh     change       -0.6300470E-06 Eh
 * total energy  :  -173.1052258 Eh     change       -0.2122430E-06 Eh
 * total energy  :  -173.1052260 Eh     change       -0.2678179E-06 Eh
 * total energy  :  -173.1052263 Eh     change       -0.2675500E-06 Eh
 * total energy  :  -173.1052264 Eh     change       -0.7895062E-07 Eh
   *** GEOMETRY OPTIMIZATION CONVERGED AFTER 44 ITERATIONS ***

 final structure:
================
112
 xtb: 6.7.1 (edcfbbe)
C           12.32760056869791        2.71089536520084        2.46026537023107
C           11.38955761867735        1.78159198003010        2.61910223480373
C           10.87288245827805        0.87856956196443        1.60254057159435
C           11.29934896804944        0.90080669465648        0.27175296818196
C           10.77449079022804        0.02538296519168       -0.65518714138007
C            9.81145815177137       -0.90758726257093       -0.28618076346624
C            9.25701460621263       -1.87463688434593       -1.30287149051405
O            7.95998750308722       -2.34478789883778       -1.00641205380324
C            6.92265751483581       -1.46810530017540       -1.03963510471898
C            7.01518135984046       -0.11694773343812       -1.34701757713343
C            5.87835090137480        0.68717535846751       -1.38935208406219
C            4.61882616447265        0.19451753401564       -1.10828681413379
C            4.51925222602408       -1.14685321989464       -0.76447783930197
C            5.65421500376400       -1.98785799623655       -0.75074443312758
C            5.19227531516808       -3.30490490698676       -0.42992709546298
C            5.83260348584972       -4.52538600419239       -0.25589496642418
C            5.07365864834697       -5.62388415589812        0.09648782682107
C            3.69807329110731       -5.51485944907312        0.29463519846575
C            3.03951642435241       -4.31045878627430        0.12391500304992
C            3.78886450064223       -3.20919243318995       -0.26231694057475
N            3.39411659084307       -1.89802594574749       -0.46730308989504
C            2.09613656162015       -1.41928085929196       -0.38610132021685
C            1.03230482293584       -2.12352118657918       -0.98442383363744
C           -0.24948523325870       -1.65619242423404       -0.90144195162562
C           -0.53677290823570       -0.45643570179353       -0.21353513946332
N           -1.83662493562211        0.01271133747789       -0.11977475242063
C           -2.08394649418265        1.38193945215637       -0.12307915244520
C           -3.11276693548263        1.92684177398659        0.66759987041127
C           -3.35058228136891        3.27660251510959        0.66914940531149
C           -2.57959664717424        4.14004672458782       -0.12675021878336
N           -2.82496003834914        5.50920581400123       -0.12737110199843
C           -3.00837281789030        6.30095465988357        0.99333099952624
C           -2.93281761051896        5.96442806935251        2.33633954314301
C           -3.12481203908706        6.96840771825009        3.26809816230471
C           -3.37855093103541        8.28225629229671        2.87825036240293
C           -3.42509797198227        8.63051611500379        1.54343359125596
C           -3.23162966170526        7.63954231947467        0.58867830437623
C           -3.18182271014616        7.64828344132441       -0.84384141148703
C           -3.34360615512569        8.64474133419779       -1.79877083311780
C           -3.26616169375638        8.30176199244790       -3.13351937467076
C           -3.04859046072830        6.98136610464048       -3.52311697295262
C           -2.88093583376285        5.97319451316645       -2.59117511171060
C           -2.92714058685666        6.31520709779810       -1.24822212995956
C           -1.55646860759663        3.59701436105236       -0.92137788234119
C           -1.30929525933445        2.24890996522098       -0.91620496917780
C           -2.89183631340087       -0.88086720623320       -0.02194586529319
C           -2.74409288238750       -2.09856568616958        0.67661758623886
C           -3.78251599540133       -2.98398024531990        0.76353993505071
C           -5.02238664685077       -2.70100933883205        0.15814067958459
N           -6.07327638486103       -3.60063817972906        0.24466431092268
C           -7.39056658519736       -3.28636408378188        0.53700927165329
C           -7.95527702633857       -2.06556653310658        0.87137980408227
C           -9.30954703134793       -2.03226907030867        1.15483491501539
C          -10.08708414517795       -3.18857252507977        1.11655945047819
C           -9.52559115778381       -4.41346819422557        0.81646428871211
C           -8.16623123285988       -4.47266205469484        0.53243208124448
C           -7.27092079903561       -5.54718517796902        0.22340718662118
C           -7.44204499748866       -6.91726282228367        0.06310434941003
C           -6.34799459286162       -7.68603878757167       -0.27997897075889
C           -5.09714615464014       -7.10505774184272       -0.48221243764706
C           -4.90139278592682       -5.74410481447421       -0.32413913048167
C           -5.98775506353452       -4.97004151536379        0.05224531132969
C           -5.17253279540080       -1.48452809772678       -0.53718998923012
C           -4.13557524457166       -0.59766063881015       -0.62539720393091
C            0.53110587701492        0.24943730549142        0.38258373185924
C            1.81200228540572       -0.21982995510585        0.29806348356410
C            9.38394564948950       -0.94341606233250        1.03498231171286
C            9.90271219596466       -0.06156234157556        1.96008648442301
H           12.81721995376017        2.89248942320792        1.51910673444329
H           12.64342727048493        3.33139023857354        3.28119988199199
H           10.94350263083250        1.65486032915011        3.59853960652933
H           12.04493276651862        1.61422195296816       -0.04281755788746
H           11.11375173243215        0.06237552659252       -1.68158431250333
H            9.87306539906572       -2.78220662799657       -1.31830964727699
H            9.28462307143927       -1.42915448877914       -2.30748079219293
H            7.97121027365921        0.33329917473783       -1.55948188527088
H            5.99269372573597        1.72757227724158       -1.65356599344055
H            3.74956202080596        0.82923692837787       -1.17191636765474
H            6.90002513762052       -4.59655007443028       -0.39018836300292
H            5.55067990504574       -6.58282858773281        0.23534764129773
H            3.13498823499398       -6.38656336448574        0.59324006576033
H            1.97823679356693       -4.23343412557099        0.30488943452008
H            1.24885870283686       -3.01419803244981       -1.55377446094706
H           -1.05375114329955       -2.17832688143949       -1.39789543912747
H           -3.70531300631823        1.26947860157399        1.28614014818921
H           -4.15105107794978        3.68428166729085        1.26713713069939
H           -2.71522659024652        4.95516502826853        2.65152172295096
H           -3.07220895403268        6.72936706758299        4.31988992226421
H           -3.52817637130578        9.03729525766450        3.63569736934260
H           -3.60143042345803        9.65187821852692        1.24156129712937
H           -3.53227838314982        9.66394988644909       -1.49707809405973
H           -3.38726779229234        9.06176918626412       -3.89109912347202
H           -3.01467121600100        6.73880836341017       -4.57487730465473
H           -2.73494742452477        4.95105696170113       -2.90618128093173
H           -0.94797271705578        4.25625599823709       -1.52111437407823
H           -0.52489392456123        1.83734559646468       -1.53355874376611
H           -1.80970178863883       -2.30296651112696        1.17774686407612
H           -3.67556859395822       -3.88956762111324        1.34060476736625
H           -7.36009159737568       -1.16690893610677        0.92820559595951
H           -9.77130520822893       -1.09183149468870        1.41602881949261
H          -11.14184578250966       -3.12179526557200        1.33856514587662
H          -10.12428579048275       -5.31169762187498        0.80753095073697
H           -8.41488475707508       -7.36497430545003        0.19894885779601
H           -6.46044272692454       -8.75249450922863       -0.40764059191847
H           -4.26462196137887       -7.72794681739265       -0.77336542328095
H           -3.93318206054858       -5.30361226066109       -0.50742715192697
H           -6.10379314109991       -1.28120854740394       -1.04295838197574
H           -4.24587431687372        0.31480236144367       -1.19226068525431
H            0.31562401749655        1.14760937612007        0.94192821724564
H            2.61416019084981        0.29989716643587        0.79864082754949
H            8.63633141167147       -1.66468708498472        1.33188674267243
H            9.55531728267027       -0.09974197811424        2.98300546867164

 projected vibrational frequencies (cm⁻¹)
eigval :       -0.00    -0.00    -0.00    -0.00     0.00     0.00
eigval :        5.75     6.54    10.40    11.12    11.93    13.61
eigval :       15.89    21.87    23.68    35.45    36.39    40.06
eigval :       42.16    54.63    55.22    67.33    83.56    88.55
eigval :       90.75    97.68   104.00   104.25   108.36   115.85
eigval :      120.00   128.75   145.32   147.15   162.45   168.17
eigval :      171.63   175.27   181.08   186.81   210.10   227.79
eigval :      235.32   240.82   247.10   253.13   261.31   269.21
eigval :      270.34   283.70   297.43   297.91   305.45   314.86
eigval :      318.95   324.16   368.91   369.55   374.79   381.34
eigval :      386.84   391.32   393.65   394.89   398.18   400.85
eigval :      404.28   405.74   412.88   416.75   420.46   421.68
eigval :      428.91   436.30   438.10   441.13   455.28   470.41
eigval :      475.19   483.81   505.52   509.65   515.85   516.71
eigval :      531.39   533.15   534.30   534.69   535.77   538.08
eigval :      539.48   570.21   572.24   578.01   582.30   585.20
eigval :      588.41   592.57   595.68   603.91   608.87   613.61
eigval :      615.11   616.25   635.13   649.55   652.08   655.32
eigval :      657.73   665.15   667.47   669.43   678.61   693.09
eigval :      697.01   701.82   701.96   704.76   728.07   741.43
eigval :      749.44   755.00   756.99   764.23   765.91   771.09
eigval :      772.97   775.59   779.97   798.69   800.14   802.74
eigval :      804.82   814.28   823.25   841.28   850.43   853.54
eigval :      856.93   864.41   866.45   867.17   869.41   869.63
eigval :      870.96   876.65   880.12   883.62   893.24   894.53
eigval :      895.28   896.45   897.05   898.40   898.51   900.19
eigval :      903.45   909.67   910.59   910.97   911.41   912.22
eigval :      913.44   913.83   916.53   917.67   918.50   921.26
eigval :      923.80   924.32   924.42   928.45   967.28   987.45
eigval :      990.66   998.74  1001.11  1002.95  1004.12  1008.50
eigval :     1009.50  1020.52  1036.08  1065.94  1068.24  1068.49
eigval :     1069.20  1071.28  1089.51  1103.54  1109.34  1115.93
eigval :     1125.21  1132.95  1135.32  1137.16  1137.50  1141.98
eigval :     1148.69  1149.58  1150.59  1165.42  1175.04  1176.05
eigval :     1176.35  1177.92  1178.91  1184.69  1191.25  1193.46
eigval :     1196.28  1202.82  1205.21  1212.90  1214.53  1221.48
eigval :     1223.55  1231.13  1232.49  1233.16  1237.91  1238.29
eigval :     1244.45  1249.17  1258.03  1275.47  1276.93  1280.79
eigval :     1285.67  1289.70  1290.82  1291.57  1295.35  1297.19
eigval :     1302.70  1309.87  1320.93  1322.44  1324.25  1338.14
eigval :     1339.27  1341.76  1344.73  1350.72  1351.62  1353.43
eigval :     1354.56  1357.85  1359.76  1363.78  1366.51  1369.45
eigval :     1402.72  1410.17  1414.52  1414.92  1418.25  1419.17
eigval :     1419.84  1421.76  1437.37  1445.11  1447.63  1451.10
eigval :     1452.83  1453.31  1455.36  1466.88  1468.89  1469.82
eigval :     1470.78  1476.80  1484.96  1485.87  1488.22  1491.23
eigval :     1541.23  1542.17  1548.38  1550.84  1555.85  1556.55
eigval :     1557.22  1572.97  1575.48  1578.68  1579.60  1582.91
eigval :     1583.49  1585.10  1598.79  1655.25  2879.24  2926.47
eigval :     3042.96  3063.33  3070.38  3076.71  3077.02  3077.42
eigval :     3077.50  3077.70  3081.62  3081.72  3082.37  3082.65
eigval :     3082.99  3083.15  3083.84  3084.73  3085.17  3085.42
eigval :     3086.03  3086.99  3087.31  3088.96  3089.63  3090.84
eigval :     3091.36  3094.43  3095.41  3096.31  3096.70  3097.12
eigval :     3097.44  3098.61  3099.29  3099.49  3099.71  3099.91
eigval :     3101.25  3103.13  3110.66  3110.90  3114.61  3131.30

   temp. (K)  partition function   enthalpy   heat capacity  entropy
                                   cal/mol     cal/K/mol   cal/K/mol   J/K/mol
 298.15  VIB  0.320E+28            32662.849    205.019    205.475
         ROT  0.402E+09              888.752      2.981     42.350
         INT  0.129E+37            33551.601    208.000    247.825
         TR   0.250E+29             1481.254      4.968     46.156
         TOT                       35032.8554   212.9678   293.9805  1230.0145

       T/K    H(0)-H(T)+PV         H(T)/Eh          T*S/Eh         G(T)/Eh
   ------------------------------------------------------------------------
    298.15    0.558284E-01    0.916340E+00    0.139680E+00    0.776660E+00
   ------------------------------------------------------------------------

         :::::::::::::::::::::::::::::::::::::::::::::::::::::
         ::                  THERMODYNAMIC                  ::
         :::::::::::::::::::::::::::::::::::::::::::::::::::::
         :: total free energy        -172.328566138972 Eh   ::
         ::.................................................::
         :: total energy             -173.105226413436 Eh   ::
         :: zero point energy           0.860511496605 Eh   ::
         :: G(RRHO) w/o ZPVE           -0.083851222142 Eh   ::
         :: G(RRHO) contrib.            0.776660274464 Eh   ::
         :::::::::::::::::::::::::::::::::::::::::::::::::::::

           -------------------------------------------------
          | TOTAL ENERGY             -173.105226413436 Eh   |
          | TOTAL ENTHALPY           -172.188886508114 Eh   |
          | TOTAL FREE ENERGY        -172.328566138972 Eh   |
          | GRADIENT NORM               0.000116462955 Eh/α |
           -------------------------------------------------

 * finished run on 2025/09/14 at 04:02:12.747
