   * xtb version 6.7.1 (edcfbbe) compiled by 'albert@albert-system' on 2024-07-22

   ID    Z sym.   atoms
    1    6 C      1-7, 9-20, 22-25, 27-30, 32-49, 51-68
    2    8 O      8
    3    7 N      21, 26, 31, 50
    4    1 H      69-112

          program call               : xtb data2507/gas/V–TPA/V–TPA_gas_T1_crest.xyz --gfn 2 --spinpol --tblite --uhf 2 --ohess vtight --parallel 40 --molden --ceasefiles --namespace data2507/gas/V–TPA/V–TPA_gas_T1_finalOpt
 * total energy  :  -173.1062022 Eh     change        0.3786528E-07 Eh
 * total energy  :  -173.1062101 Eh     change       -0.7937992E-05 Eh
 * total energy  :  -173.1062122 Eh     change       -0.2014250E-05 Eh
 * total energy  :  -173.1062138 Eh     change       -0.1653140E-05 Eh
 * total energy  :  -173.1062149 Eh     change       -0.1141656E-05 Eh
 * total energy  :  -173.1062159 Eh     change       -0.9717253E-06 Eh
 * total energy  :  -173.1062182 Eh     change       -0.2310708E-05 Eh
 * total energy  :  -173.1062195 Eh     change       -0.1303875E-05 Eh
 * total energy  :  -173.1062202 Eh     change       -0.6271451E-06 Eh
 * total energy  :  -173.1062212 Eh     change       -0.1005707E-05 Eh
 * total energy  :  -173.1062361 Eh     change       -0.4150729E-06 Eh
 * total energy  :  -173.1062366 Eh     change       -0.5028882E-06 Eh
 * total energy  :  -173.1062369 Eh     change       -0.3464287E-06 Eh
 * total energy  :  -173.1062375 Eh     change       -0.5517684E-06 Eh
 * total energy  :  -173.1062378 Eh     change       -0.2804797E-06 Eh
 * total energy  :  -173.1062379 Eh     change       -0.1613106E-06 Eh
 * total energy  :  -173.1062379 Eh     change        0.7232080E-07 Eh
 * total energy  :  -173.1062380 Eh     change       -0.1772121E-06 Eh
 * total energy  :  -173.1062381 Eh     change       -0.8158477E-07 Eh
   *** GEOMETRY OPTIMIZATION CONVERGED AFTER 36 ITERATIONS ***

 final structure:
================
112
 xtb: 6.7.1 (edcfbbe)
C           12.35897404732818        2.46440394336112        2.47869529501532
C           11.40724228168059        1.54723330886413        2.62563519099814
C           10.87642532147666        0.66599222473106        1.59718535653229
C           11.30144419084759        0.70088449634627        0.26625581593857
C           10.76285641918176       -0.15379773487650       -0.67214094561164
C            9.78706665494859       -1.07797754695220       -0.31483307636240
C            9.21711185116495       -2.02232946036963       -1.34423554370575
O            7.91508384059453       -2.47984430885369       -1.05047131283377
C            6.88965738382662       -1.58847889241616       -1.06571332188431
C            6.99892431005273       -0.23488938769602       -1.35556641688464
C            5.87299616857115        0.58494179680475       -1.38006479571919
C            4.60871840337843        0.10609653016825       -1.09789458899257
C            4.49283200129343       -1.23847688865900       -0.77170937292407
C            5.61597655469912       -2.09450724861591       -0.77580447380304
C            5.13788171068886       -3.40941098002588       -0.46829388792305
C            5.76261460481724       -4.64037686364866       -0.31375963936657
C            4.99074444631371       -5.73311394147396        0.02834090019834
C            3.61797722321385       -5.60796667153264        0.23502412249113
C            2.97489689311425       -4.39275296117993        0.08408482179834
C            3.73734949626597       -3.29666598538238       -0.29113515975626
N            3.35962736152479       -1.97787130576129       -0.47711035115622
C            2.06831598641917       -1.48051952061083       -0.38308758959479
C            0.99294316422293       -2.15655993126250       -0.99047611847609
C           -0.28098493758937       -1.66662931257137       -0.89985191484459
C           -0.54445741084303       -0.47232069715824       -0.19692856697948
N           -1.83435079277855        0.02883005478020       -0.10870725548448
C           -2.04637412593734        1.39996791696984       -0.11083123685492
C           -3.08403012731950        1.97054182047773        0.65467254040554
C           -3.29060554988750        3.32308679572537        0.65234897576962
C           -2.47208441424099        4.17381653865735       -0.11436582862874
N           -2.68188084225232        5.54502037159783       -0.11628805715898
C           -1.70165185594636        6.51639668253419        0.00292579982338
C           -0.33908741393356        6.37636450515679        0.21551709780657
C            0.42109992705007        7.52659564907830        0.33343157794896
C           -0.15922638895746        8.79125608542999        0.25116350384852
C           -1.51991652058247        8.93870699961789        0.07142006491989
C           -2.30484813531680        7.79765564521601       -0.04563451996879
C           -3.71268537432991        7.58254829790867       -0.20168419415024
C           -4.80165512853206        8.43722701213406       -0.32602776108911
C           -6.05647802809495        7.89001889486959       -0.50349568123329
C           -6.23376459364406        6.50937653810756       -0.57616689254922
C           -5.16566393878034        5.63855900411436       -0.45097598389699
C           -3.90683976806386        6.17945762264847       -0.24093359154320
C           -1.43609210572006        3.60580603080033       -0.87953510740412
C           -1.22746211508039        2.25369859884281       -0.87844967156995
C           -2.91233173955764       -0.83994528155322       -0.01925010561402
C           -2.80033299630372       -2.05652672092278        0.68485872186293
C           -3.86459766164441       -2.91169061570096        0.77451037370743
C           -5.09362126858719       -2.59598567233889        0.16523647367005
N           -6.17253541180304       -3.46285440711861        0.25834230919906
C           -7.47753403878330       -3.10605462380502        0.55576924197145
C           -8.00225256980428       -1.86615642655806        0.88542032919591
C           -9.35296707489900       -1.78927124457350        1.17611097310141
C          -10.16631327850043       -2.92091498547034        1.14943050863062
C           -9.64488134696499       -4.16422619625950        0.85314868503538
C           -8.28980069528214       -4.26709715136416        0.56164232843667
C           -7.43009130209946       -5.37075181879796        0.25274025833052
C           -7.64495562242516       -6.73541815460260        0.10005451772088
C           -6.57723408280875       -7.53977081719024       -0.24415524846319
C           -5.30981450826602       -6.99914828903619       -0.45454532350688
C           -5.07067535936453       -5.64449049561919       -0.30437957757312
C           -6.13081383621880       -4.83484877706331        0.07238141051630
C           -5.20653244793025       -1.38276686262363       -0.53963760009400
C           -4.14381421303932       -0.52574420381421       -0.62993580249077
C            0.53402325755464        0.20248485043903        0.41266791537574
C            1.80676633987992       -0.29014375743093        0.32192267324382
C            9.36086312482501       -1.12632054208687        1.00632456010906
C            9.89341255828138       -0.26506477074141        1.94297209940502
H           12.85075804280717        2.65132788678439        1.53969754658141
H           12.68482104663702        3.06866308248990        3.30779878207952
H           10.96006981445069        1.41364438418680        3.60365801965147
H           12.05675791272131        1.40791961113712       -0.03937805212891
H           11.10124132542314       -0.10720161071784       -1.69842706315527
H            9.82130661361237       -2.93742377173363       -1.37537191705868
H            9.24750589793411       -1.56212900338725       -2.34212420427676
H            7.95969237918846        0.20526113316934       -1.56782335671513
H            6.00015555467994        1.62722091191729       -1.63088841387131
H            3.74776250263080        0.75335227800705       -1.14703457379218
H            6.82823465826133       -4.72415217671199       -0.45503326885340
H            5.45537338669658       -6.70020105568001        0.15187037345566
H            3.04452684222805       -6.47604133802111        0.52451073606379
H            1.91555317703848       -4.30374452885078        0.27103497567514
H            1.19233004536455       -3.04406393960577       -1.57092100140913
H           -1.09520936807223       -2.16851168394565       -1.40101751451215
H           -3.69067757856069        1.32763709604011        1.27491765433735
H           -4.05698326118717        3.75528467821560        1.27714210129166
H            0.11923058096597        5.40315270360311        0.30462117867253
H            1.48493387744812        7.44176900703692        0.49774178045826
H            0.46782053057609        9.66570201576330        0.34281760645514
H           -1.97159166955900        9.91823631020523        0.02845158904670
H           -4.66218923667187        9.50709434388559       -0.29041629207195
H           -6.91534399863749        8.53741492543979       -0.60081629651290
H           -7.22392341411541        6.11050997961084       -0.73875522316096
H           -5.31320761968011        4.57241266456256       -0.53275724820831
H           -0.83452320246864        4.24642937789419       -1.50581447731624
H           -0.45586329161276        1.82073940674461       -1.49747836053635
H           -1.87244058964970       -2.28646978028127        1.18702248220423
H           -3.78413737983032       -3.81787662044771        1.35489197292165
H           -7.37895236490463       -0.98617396549728        0.93288774865511
H           -9.78394236046653       -0.83339436522145        1.43399842557441
H          -11.21712726746318       -2.82008143089585        1.37718233928795
H          -10.27114949500541       -5.04349981060704        0.85277715368939
H           -8.63069570110461       -7.15169472991577        0.24277289553421
H           -6.72354398570316       -8.60278801551171       -0.36595169029247
H           -4.49847918599945       -7.64940279189288       -0.74581607865108
H           -4.08988210267938       -5.23527154298486       -0.49336667940896
H           -6.13043143055841       -1.15588483185721       -1.04898629742161
H           -4.22547611697029        0.38519062126365       -1.20402961974435
H            0.33444327108910        1.09506770540151        0.98668735821122
H            2.61832771169669        0.20670769168186        0.83062684482729
H            8.60342013205200       -1.84093104317633        1.29425360855478
H            9.54680156788321       -0.31266277426606        2.96576142265388

 projected vibrational frequencies (cm⁻¹)
eigval :       -0.00    -0.00    -0.00    -0.00     0.00     0.00
eigval :        6.19     6.53    10.44    11.51    12.66    13.92
eigval :       17.00    22.96    25.07    35.71    36.83    41.12
eigval :       42.44    54.56    55.30    65.14    82.52    88.20
eigval :       91.15    93.12   103.70   104.61   107.94   116.19
eigval :      120.21   130.66   143.73   153.58   165.71   167.99
eigval :      174.60   177.33   178.52   180.24   210.18   233.24
eigval :      234.17   234.82   247.37   255.65   264.68   269.41
eigval :      270.81   285.06   298.48   299.44   306.58   309.71
eigval :      319.90   323.91   364.94   369.66   381.94   384.94
eigval :      391.59   391.67   395.79   398.30   399.34   401.08
eigval :      402.27   405.26   408.29   416.00   419.92   421.08
eigval :      429.56   436.80   438.14   443.38   455.44   473.27
eigval :      474.13   483.66   506.37   510.38   516.02   516.51
eigval :      531.78   534.05   534.13   535.13   537.57   537.71
eigval :      539.74   570.69   571.84   573.60   582.58   584.85
eigval :      586.31   592.33   597.96   604.62   609.08   613.92
eigval :      616.01   617.16   636.15   651.42   651.51   652.18
eigval :      658.90   665.87   668.14   668.17   679.04   693.52
eigval :      694.70   701.91   702.60   703.18   728.83   741.47
eigval :      749.94   754.60   756.28   764.94   765.19   772.08
eigval :      774.24   774.34   781.34   798.71   800.34   801.47
eigval :      805.23   815.59   827.45   828.89   849.53   853.91
eigval :      857.80   864.80   866.85   868.04   868.29   868.71
eigval :      872.11   877.30   883.03   883.68   893.75   893.81
eigval :      895.87   896.61   897.22   897.66   898.60   901.56
eigval :      905.82   910.55   911.35   911.39   912.25   912.53
eigval :      913.27   913.51   914.59   918.73   919.24   919.57
eigval :      924.77   924.86   925.09   926.08   968.64   988.12
eigval :      991.71   995.25  1001.67  1003.34  1004.79  1008.74
eigval :     1008.80  1021.05  1036.16  1067.58  1067.81  1068.48
eigval :     1068.54  1071.19  1090.73  1104.21  1108.21  1116.65
eigval :     1127.60  1134.18  1134.86  1136.97  1137.37  1142.99
eigval :     1149.43  1149.68  1149.96  1165.99  1175.82  1176.65
eigval :     1176.79  1178.83  1178.87  1185.40  1191.25  1194.24
eigval :     1196.68  1203.09  1205.26  1214.53  1220.75  1222.45
eigval :     1223.78  1229.44  1232.16  1232.38  1234.52  1236.47
eigval :     1244.44  1249.87  1258.76  1276.04  1278.49  1279.77
eigval :     1287.30  1287.84  1290.79  1293.40  1295.24  1297.16
eigval :     1303.34  1316.32  1319.07  1321.63  1324.68  1339.84
eigval :     1340.36  1342.65  1342.83  1347.72  1348.81  1355.17
eigval :     1355.34  1355.51  1360.20  1365.02  1366.40  1368.80
eigval :     1404.50  1409.95  1416.53  1416.56  1416.88  1418.96
eigval :     1419.94  1421.27  1443.64  1445.12  1445.42  1450.76
eigval :     1453.23  1453.85  1454.20  1467.73  1467.87  1470.21
eigval :     1470.91  1472.04  1485.49  1486.47  1486.57  1492.09
eigval :     1545.40  1547.26  1548.93  1551.18  1551.24  1554.53
eigval :     1557.02  1574.86  1576.76  1580.12  1580.15  1581.39
eigval :     1581.41  1584.77  1599.31  1656.09  2879.07  2926.61
eigval :     3043.09  3063.50  3070.62  3077.37  3077.39  3077.41
eigval :     3077.60  3077.66  3081.70  3082.10  3082.52  3082.84
eigval :     3083.04  3083.43  3083.47  3084.54  3085.01  3085.26
eigval :     3086.36  3086.61  3086.88  3089.60  3089.65  3091.37
eigval :     3091.50  3094.34  3096.30  3096.37  3097.39  3097.71
eigval :     3098.07  3098.88  3099.23  3099.33  3099.69  3099.81
eigval :     3100.52  3103.14  3110.56  3110.65  3114.97  3131.26

   temp. (K)  partition function   enthalpy   heat capacity  entropy
                                   cal/mol     cal/K/mol   cal/K/mol   J/K/mol
 298.15  VIB  0.218E+28            32638.148    204.975    205.089
         ROT  0.395E+09              888.752      2.981     42.316
         INT  0.862E+36            33526.900    207.956    247.405
         TR   0.250E+29             1481.254      4.968     46.156
         TOT                       35008.1543   212.9240   293.5608  1228.2583

       T/K    H(0)-H(T)+PV         H(T)/Eh          T*S/Eh         G(T)/Eh
   ------------------------------------------------------------------------
    298.15    0.557890E-01    0.916450E+00    0.139480E+00    0.776970E+00
   ------------------------------------------------------------------------

         :::::::::::::::::::::::::::::::::::::::::::::::::::::
         ::                  THERMODYNAMIC                  ::
         :::::::::::::::::::::::::::::::::::::::::::::::::::::
         :: total free energy        -172.329268531008 Eh   ::
         ::.................................................::
         :: total energy             -173.106238126274 Eh   ::
         :: zero point energy           0.860660749831 Eh   ::
         :: G(RRHO) w/o ZPVE           -0.083691154565 Eh   ::
         :: G(RRHO) contrib.            0.776969595266 Eh   ::
         :::::::::::::::::::::::::::::::::::::::::::::::::::::

           -------------------------------------------------
          | TOTAL ENERGY             -173.106238126274 Eh   |
          | TOTAL ENTHALPY           -172.189788331430 Eh   |
          | TOTAL FREE ENERGY        -172.329268531008 Eh   |
          | GRADIENT NORM               0.000092882393 Eh/α |
           -------------------------------------------------

 * finished run on 2025/09/14 at 04:37:40.507
