   * xtb version 6.7.1 (edcfbbe) compiled by 'albert@albert-system' on 2024-07-22

   ID    Z sym.   atoms
    1    8 O      1
    2    6 C      2-6, 8-20, 22-39, 41-53, 55-68
    3    7 N      7, 40
    4   16 S      21, 54
    5    1 H      69-108

          program call               : xtb data2507/gas/STAC-BP-STAC/STAC-BP-STAC_gas_T1_crest.xyz --gfn 2 --spinpol --tblite --uhf 2 --ohess vtight --parallel 40 --molden --ceasefiles --namespace data2507/gas/STAC-BP-STAC/STAC-BP-STAC_gas_T1_finalOpt
 * total energy  :  -171.6871078 Eh     change       -0.5785117E-07 Eh
 * total energy  :  -171.6871462 Eh     change       -0.3841418E-04 Eh
 * total energy  :  -171.6871596 Eh     change       -0.1334564E-04 Eh
 * total energy  :  -171.6871612 Eh     change       -0.1582098E-05 Eh
 * total energy  :  -171.6871629 Eh     change       -0.1682552E-05 Eh
 * total energy  :  -171.6871647 Eh     change       -0.1872837E-05 Eh
 * total energy  :  -171.6871672 Eh     change       -0.2499992E-05 Eh
 * total energy  :  -171.6871687 Eh     change       -0.1453448E-05 Eh
 * total energy  :  -171.6871698 Eh     change       -0.1148589E-05 Eh
 * total energy  :  -171.6871710 Eh     change       -0.1206932E-05 Eh
 * total energy  :  -171.6871750 Eh     change       -0.9633055E-06 Eh
 * total energy  :  -171.6871754 Eh     change       -0.4031315E-06 Eh
 * total energy  :  -171.6871757 Eh     change       -0.3470877E-06 Eh
 * total energy  :  -171.6871760 Eh     change       -0.2888042E-06 Eh
 * total energy  :  -171.6871768 Eh     change       -0.7717667E-06 Eh
 * total energy  :  -171.6871772 Eh     change       -0.3863200E-06 Eh
 * total energy  :  -171.6871774 Eh     change       -0.2400462E-06 Eh
 * total energy  :  -171.6871778 Eh     change       -0.3769528E-06 Eh
 * total energy  :  -171.6871778 Eh     change       -0.1276089E-07 Eh
   *** GEOMETRY OPTIMIZATION CONVERGED AFTER 22 ITERATIONS ***

 final structure:
================
108
 xtb: 6.7.1 (edcfbbe)
O            0.00555106851358        4.60175980359313       -0.13063210987414
C            0.00276430696082        3.33370846059463       -0.07854233200030
C           -1.26326266877574        2.62765659841077       -0.05814621435015
C           -1.43859705848967        1.35522149915148        0.51389861185036
C           -2.67748091269446        0.75784320733974        0.52951202066844
C           -3.78355535133195        1.41467794416115       -0.00842140190251
N           -5.06008915900389        0.78219854966905        0.00627411536833
C           -5.34692722414061       -0.16977745039477       -0.95245370433768
C           -4.40091879799306       -0.48367157346384       -1.93643075609740
C           -4.67093460279292       -1.43649875627095       -2.89431527399407
C           -5.88975784369895       -2.09757204570133       -2.90043369620409
C           -6.83521317100626       -1.78260647931363       -1.94240264699919
C           -6.58311675475260       -0.82696407313777       -0.97085107978363
C           -7.67147572546514       -0.51548655636689        0.03681344456797
C           -8.84790231217400        0.04438831426940       -0.74355105891539
C           -8.64100504718547        1.25610203431653       -1.39910708614816
C           -9.63296256002070        1.85641773462332       -2.14730415713896
C          -10.87359164519028        1.24737546333009       -2.25746896665776
C          -11.09933397675938        0.04754521665276       -1.61893903624821
C          -10.09270691003313       -0.55477597360435       -0.86619162274922
S          -10.52691176386795       -2.09187775973249       -0.12016557696044
C           -9.09977158449184       -2.52147952321849        0.82088420551841
C           -9.21520758196508       -3.68400935430432        1.58122437558329
C           -8.16088045161856       -4.12556029098486        2.35036592323160
C           -6.97711757567562       -3.40394181890287        2.36455186476464
C           -6.86950583513746       -2.25272914190446        1.61133504225199
C           -7.92323463069890       -1.78692581509061        0.82812332068588
C           -7.24227646589162        0.54816772733372        1.02638489247387
C           -8.13976350470417        0.93274882841547        2.00981033416758
C           -7.80471028507962        1.88754133941518        2.95172403559032
C           -6.54368370232764        2.46326295117647        2.91591723780527
C           -5.63694880863057        2.09471676318653        1.94605646810229
C           -5.97375385806872        1.13897713116491        0.97916592265845
C           -3.63695730383106        2.69944389530349       -0.53415142379330
C           -2.40361679880642        3.29928072436022       -0.54623867989242
C            1.26281315256104        2.61921187877847       -0.04295495220766
C            1.42403732384964        1.29751235461022       -0.49508195832991
C            2.66032343916719        0.69494862326115       -0.47480844031568
C            3.77735292700414        1.39368950599425       -0.01917396033964
N            5.05274836744389        0.75727870664307       -0.00094773344343
C            5.38722642585004       -0.03966425034689        1.07553409581927
C            4.48904676279219       -0.19985555822764        2.13813958224994
C            4.81014403715469       -0.99580457035975        3.21607333536913
C            6.03226561985489       -1.64926564796429        3.26506014302364
C            6.92851444165045       -1.48820667480322        2.22480829771936
C            6.62492955450857       -0.69187490079278        1.13207361381983
C            7.65896299133437       -0.54933869388872        0.03437512121092
C            7.87004505673509       -1.92727790323981       -0.56811278532523
C            6.73475747012538       -2.58258261760313       -1.03964192761912
C            6.80521887801823       -3.83247321346745       -1.62021882676048
C            8.03326699913870       -4.46406438067339       -1.74339378921228
C            9.16935288263847       -3.83316813825397       -1.28571563236360
C            9.09205414394096       -2.56964154310640       -0.70229984801094
S           10.63013485409501       -1.88512562564939       -0.18023200950140
C           10.17379307764084       -0.37241718787750        0.60174269364478
C           11.22218562099117        0.33583821431984        1.18645191039922
C           10.98884362253353        1.53791284708181        1.81801924957572
C            9.69852435376391        2.04242825479624        1.86998798889855
C            8.66443824064723        1.33567527010561        1.29083370728661
C            8.87722737178767        0.11795619342882        0.64842931958710
C            7.17896505724324        0.35248602196971       -1.08567291356697
C            8.02176782891182        0.57597075136635       -2.16290095945013
C            7.63737263156088        1.38184424660454       -3.21831550603183
C            6.38293039938041        1.97249343256987       -3.20036140144776
C            5.53025249587012        1.76289402424530       -2.13861888517458
C            5.91546240309419        0.95532449583842       -1.06113358714102
C            3.64409235061608        2.72129033659923        0.39012873024532
C            2.41303034818655        3.32557581619596        0.36744614886665
H           -0.60666787423184        0.85575405698153        0.98598633195767
H           -2.80770802596982       -0.22016166943572        0.97173058038741
H           -3.45386313434251        0.03274280188861       -1.94244670591467
H           -3.92663211711911       -1.66333741407877       -3.64259583983316
H           -6.10329344905388       -2.84581545010251       -3.64760602964689
H           -7.79159559627709       -2.28511575945058       -1.94553843310184
H           -7.67459297524543        1.73187725765718       -1.31589099709912
H           -9.44003685269324        2.79521700559144       -2.64331471814724
H          -11.65947922961215        1.70532599664552       -2.83833217159055
H          -12.05669847573883       -0.44655876489146       -1.69120282574489
H          -10.14650358695423       -4.22969044966517        1.55293494424780
H           -8.26037440894022       -5.02716638764519        2.93516069058990
H           -6.14159044943582       -3.73806176010240        2.96036878273537
H           -5.94604364354829       -1.69198017048954        1.62382787483927
H           -9.11636290561671        0.47070589159116        2.03297098823893
H           -8.51699625403533        2.17590688059707        3.70881513994883
H           -6.26376084530181        3.20357518706359        3.64984559543960
H           -4.65569168230374        2.54220449863831        1.92922828623643
H           -4.50274015011068        3.21126435986627       -0.92922264630554
H           -2.27264413352166        4.29394406961139       -0.94377497929840
H            0.58290860755235        0.76031940360474       -0.90533167417129
H            2.77996571253058       -0.32012288390052       -0.82731870147733
H            3.53922083471141        0.31077415552475        2.10788273058591
H            4.10317920411147       -1.10588881837919        4.02441984812864
H            6.28538977325036       -2.27420234600994        4.10714706761488
H            7.88658470566380       -1.98714587348332        2.25529363774199
H            5.77693495215984       -2.09147809681655       -0.94626123135403
H            5.90668193134765       -4.31254806951969       -1.97646584487269
H            8.10402719872574       -5.44195230763301       -2.19451184804990
H           10.13711823422367       -4.30413270433034       -1.37231194600047
H           12.21857684466657       -0.07661668504393        1.13175379583341
H           11.80767954569746        2.07930994313837        2.26649962034834
H            9.49998758497885        2.98369874020285        2.35906162651662
H            7.66009011516482        1.73176265882005        1.33144880862917
H            8.99535131135844        0.10776948470705       -2.17137205613556
H            8.30769585473348        1.54502057286912       -4.04763556585605
H            6.06626145197336        2.59984870185756       -4.01964718025811
H            4.55420291081704        2.22204508135313       -2.13303822742528
H            4.51841954724637        3.26297734868385        0.72135254338856
H            2.29211409348376        4.35324600835360        0.67379486315583

 projected vibrational frequencies (cm⁻¹)
eigval :       -0.00    -0.00    -0.00     0.00     0.00     0.00
eigval :        3.41     3.88     4.55     5.91     7.26     8.27
eigval :       13.70    25.23    29.89    40.95    44.69    45.74
eigval :       52.54    53.45    59.64    60.62    70.29    71.00
eigval :       86.19   101.73   102.62   105.62   120.32   120.94
eigval :      121.28   130.47   151.44   152.84   153.13   154.19
eigval :      161.64   180.54   197.21   213.67   225.87   226.05
eigval :      237.54   239.98   252.09   252.59   264.89   269.98
eigval :      279.20   280.96   281.36   289.19   311.42   328.71
eigval :      339.85   348.08   349.92   349.98   372.93   381.78
eigval :      387.49   392.65   394.32   395.92   398.47   401.45
eigval :      419.10   419.36   420.50   420.52   420.64   421.29
eigval :      425.90   432.28   442.04   442.31   457.17   462.37
eigval :      475.96   480.90   481.47   482.52   484.23   485.08
eigval :      491.92   496.16   517.92   518.92   522.04   522.22
eigval :      543.16   560.59   589.75   591.15   595.54   596.61
eigval :      596.73   600.99   601.79   607.59   608.48   615.31
eigval :      624.70   641.89   647.68   662.68   662.78   663.11
eigval :      669.25   671.69   671.75   676.90   685.58   687.64
eigval :      694.74   695.11   695.72   714.71   714.72   716.29
eigval :      729.32   756.09   771.69   771.77   772.03   772.09
eigval :      772.77   773.03   781.08   781.17   796.33   810.43
eigval :      843.60   859.65   866.99   867.34   867.93   868.64
eigval :      875.38   875.50   876.13   876.15   879.53   893.45
eigval :      895.06   895.62   897.46   899.47   904.98   905.58
eigval :      905.68   909.75   910.34   910.41   911.64   911.81
eigval :      912.25   912.30   913.47   918.67   918.73   922.47
eigval :      922.61   923.24   923.51   923.53   923.59   923.94
eigval :      923.97   936.11   941.70   943.18   943.20  1002.14
eigval :     1008.64  1042.09  1042.31  1049.97  1050.07  1099.10
eigval :     1099.32  1100.53  1101.16  1101.17  1101.44  1103.02
eigval :     1103.16  1123.23  1123.31  1124.72  1126.50  1127.24
eigval :     1131.09  1150.20  1150.21  1158.80  1159.30  1160.12
eigval :     1166.99  1179.65  1179.70  1180.01  1180.19  1180.89
eigval :     1181.25  1181.70  1181.90  1186.32  1187.97  1190.57
eigval :     1197.73  1204.07  1219.93  1226.58  1227.14  1230.06
eigval :     1230.65  1230.81  1246.34  1254.06  1256.06  1256.20
eigval :     1258.69  1259.26  1259.66  1259.69  1263.25  1268.18
eigval :     1268.29  1309.10  1312.42  1316.93  1318.38  1324.10
eigval :     1324.23  1325.74  1327.58  1327.97  1328.00  1331.82
eigval :     1332.04  1336.13  1336.22  1402.94  1403.09  1404.22
eigval :     1406.07  1413.07  1413.22  1425.48  1426.09  1426.97
eigval :     1432.33  1434.90  1442.84  1456.03  1458.61  1458.77
eigval :     1462.22  1462.27  1466.44  1466.56  1476.28  1479.74
eigval :     1491.63  1494.41  1550.59  1559.29  1559.35  1568.11
eigval :     1568.16  1570.83  1571.17  1580.32  1580.44  1580.62
eigval :     1580.71  1586.44  1586.53  1587.10  1591.77  1592.74
eigval :     1594.55  1595.26  3068.37  3068.97  3075.63  3075.77
eigval :     3079.27  3079.39  3079.69  3079.71  3080.37  3080.41
eigval :     3082.82  3083.18  3085.39  3085.43  3085.85  3085.88
eigval :     3087.50  3087.71  3089.28  3089.43  3091.73  3093.07
eigval :     3093.09  3093.70  3093.73  3094.33  3100.48  3100.72
eigval :     3100.81  3101.08  3101.21  3101.36  3101.65  3101.75
eigval :     3101.87  3102.21  3106.40  3107.12  3108.55  3109.13

   temp. (K)  partition function   enthalpy   heat capacity  entropy
                                   cal/mol     cal/K/mol   cal/K/mol   J/K/mol
 298.15  VIB  0.463E+29            32461.504    202.708    208.037
         ROT  0.307E+09              888.752      2.981     41.814
         INT  0.142E+38            33350.257    205.689    249.851
         TR   0.263E+29             1481.254      4.968     46.263
         TOT                       34831.5106   210.6572   296.1146  1238.9434

       T/K    H(0)-H(T)+PV         H(T)/Eh          T*S/Eh         G(T)/Eh
   ------------------------------------------------------------------------
    298.15    0.555075E-01    0.868820E+00    0.140694E+00    0.728126E+00
   ------------------------------------------------------------------------

         :::::::::::::::::::::::::::::::::::::::::::::::::::::
         ::                  THERMODYNAMIC                  ::
         :::::::::::::::::::::::::::::::::::::::::::::::::::::
         :: total free energy        -170.959051593002 Eh   ::
         ::.................................................::
         :: total energy             -171.687177812875 Eh   ::
         :: zero point energy           0.813312264346 Eh   ::
         :: G(RRHO) w/o ZPVE           -0.085186044473 Eh   ::
         :: G(RRHO) contrib.            0.728126219873 Eh   ::
         :::::::::::::::::::::::::::::::::::::::::::::::::::::

           -------------------------------------------------
          | TOTAL ENERGY             -171.687177812875 Eh   |
          | TOTAL ENTHALPY           -170.818358003237 Eh   |
          | TOTAL FREE ENERGY        -170.959051593002 Eh   |
          | GRADIENT NORM               0.000061090466 Eh/α |
           -------------------------------------------------

 * finished run on 2025/07/18 at 18:48:37.956
