   * xtb version 6.7.1 (edcfbbe) compiled by 'albert@albert-system' on 2024-07-22

   ID    Z sym.   atoms
    1    8 O      1
    2    6 C      2-6, 8-20, 22-39, 41-53, 55-68
    3    7 N      7, 40
    4   16 S      21, 54
    5    1 H      69-108

          program call               : xtb data2507/gas/STAC-BP-STAC/STAC-BP-STAC.xyz --gfn 2 --ohess vtight --parallel 40 --molden --ceasefiles --namespace data2507/gas/STAC-BP-STAC/STAC-BP-STAC_gas_S0_preOpt
          :  Hamiltonian                  GFN2-xTB          :
 * total energy  :  -171.7199983 Eh     change       -0.4218549E-08 Eh
 * total energy  :  -171.7464535 Eh     change       -0.2645525E-01 Eh
 * total energy  :  -171.7571567 Eh     change       -0.1070320E-01 Eh
 * total energy  :  -171.7592546 Eh     change       -0.2097881E-02 Eh
 * total energy  :  -171.7600725 Eh     change       -0.8179324E-03 Eh
 * total energy  :  -171.7606156 Eh     change       -0.5430815E-03 Eh
 * total energy  :  -171.7609140 Eh     change       -0.2984204E-03 Eh
 * total energy  :  -171.7610919 Eh     change       -0.1778917E-03 Eh
 * total energy  :  -171.7611906 Eh     change       -0.9866029E-04 Eh
 * total energy  :  -171.7612702 Eh     change       -0.7966447E-04 Eh
 * total energy  :  -171.7621001 Eh     change       -0.3193691E-06 Eh
 * total energy  :  -171.7621004 Eh     change       -0.3252263E-06 Eh
 * total energy  :  -171.7621007 Eh     change       -0.2773217E-06 Eh
 * total energy  :  -171.7621009 Eh     change       -0.2629849E-06 Eh
 * total energy  :  -171.7621012 Eh     change       -0.3055720E-06 Eh
 * total energy  :  -171.7621017 Eh     change       -0.4473034E-06 Eh
 * total energy  :  -171.7621023 Eh     change       -0.6660667E-06 Eh
 * total energy  :  -171.7621032 Eh     change       -0.8789497E-06 Eh
 * total energy  :  -171.7621032 Eh     change       -0.2000445E-07 Eh
   *** GEOMETRY OPTIMIZATION CONVERGED AFTER 152 ITERATIONS ***

 final structure:
================
108
 xtb: 6.7.1 (edcfbbe)
O            0.04582997521732        4.75716885219090        0.92174923994113
C            0.03316111477927        3.56730840049427        0.67807789833357
C           -1.24076930842878        2.81650078066894        0.54424324677175
C           -1.35443936863123        1.47607579816400        0.91003670422748
C           -2.56802153381928        0.82725817657582        0.79968948269416
C           -3.68390662331245        1.50542278214863        0.31755950581979
N           -4.92236062798061        0.82999083693085        0.19154364258028
C           -5.07270434744934       -0.11989337800886       -0.81191940113921
C           -4.03501697231426       -0.36842173736510       -1.71434507413961
C           -4.17459792855432       -1.31184628812703       -2.71173419904847
C           -5.35451743107142       -2.02355499470328       -2.84128252515999
C           -6.39458262670663       -1.76347500467397       -1.96953647157522
C           -6.27190508520287       -0.81946665403291       -0.96166248105160
C           -7.47028324950722       -0.57070976286116       -0.06600122125346
C           -8.58640445419492       -0.05063832731447       -0.95240346458849
C           -8.33606288100563        1.13741135866431       -1.63536070196066
C           -9.27499678234167        1.70945497820206       -2.46906176915578
C          -10.50574286199539        1.09460717869062       -2.64040900134562
C          -10.77481024341503       -0.08162145324583       -1.97520618134925
C           -9.82184061771731       -0.65409537196473       -1.13467972157834
S          -10.31047293445470       -2.15807065052886       -0.35490673416407
C           -8.91181490198269       -2.60237193878964        0.62202974728802
C           -9.04715100450980       -3.77975655412227        1.35546640917530
C           -8.01940681710694       -4.22847669823350        2.15592483641441
C           -6.84303427458536       -3.49852700804452        2.22929858838063
C           -6.71563849964748       -2.33365487044876        1.50072755039413
C           -7.74102722818187       -1.86130256717360        0.68464196970589
C           -7.19131731965800        0.49735480533563        0.97416965729723
C           -8.20438304508064        0.82317179196285        1.86290986558098
C           -8.01324345250465        1.76431473384157        2.85630249304897
C           -6.77809537493309        2.37802269565474        2.97309530733649
C           -5.75828396228995        2.06607406252242        2.09727639462683
C           -5.95379653650406        1.13624047989968        1.07280258876216
C           -3.57929722223724        2.84836114135058       -0.03368533068433
C           -2.36906043434425        3.49834844077970        0.09007918253828
C            1.29077588078291        2.79632522893646        0.50591252732512
C            1.39095172845057        1.72985942874124       -0.38584499316429
C            2.58734326085719        1.05567508692389       -0.53068659376201
C            3.69907089159177        1.43457331286077        0.21635424857359
N            4.92033773477963        0.73029729625426        0.08152156683056
C            5.35781566803228       -0.06611198384962        1.13405138773419
C            4.56961764484350       -0.22578937304447        2.27699232714296
C            4.99783687560582       -1.00913877446242        3.32922040044411
C            6.21667746490764       -1.66165388533169        3.26468512500154
C            6.98731166944768       -1.53304545757373        2.12508071161346
C            6.57253752899398       -0.75056121499093        1.05830917706375
C            7.45899060296422       -0.68929297226321       -0.17105231094265
C            7.54187487034795       -2.09928507347152       -0.72539613607086
C            6.34939135077777       -2.66392037101445       -1.17212877407497
C            6.29810089839313       -3.94193661408174       -1.68993222442392
C            7.45884814924485       -4.69537500384584       -1.77388088480195
C            8.64955451978774       -4.15756918411348       -1.33644433727984
C            8.69396689210761       -2.86676297919738       -0.81276850156054
S           10.28526028641829       -2.32129609417426       -0.28527829247677
C           10.00964787395430       -0.66153392580317        0.24216612401454
C           11.14590717454165        0.02512929433345        0.66599543604557
C           11.05360309276859        1.32740043267981        1.10645759944926
C            9.81761335483759        1.95505653995114        1.12601549909766
C            8.69674284164276        1.26974182612117        0.70410585453828
C            8.76638735991533       -0.04669883126013        0.25384998766448
C            6.86565670381434        0.18737638843620       -1.25682679661961
C            7.57654345448881        0.33111816102163       -2.43846536127424
C            7.11798961153088        1.14227630762375       -3.45867352415191
C            5.93433852565222        1.83820327980080       -3.28398877743853
C            5.21323734887954        1.70660882899119       -2.11474597728436
C            5.65550597956299        0.86412491255808       -1.09138059222438
C            3.60873284416845        2.51133996237137        1.09393832046187
C            2.41607396508070        3.19127338883178        1.22770552403452
H           -0.49991030216792        0.94911473214089        1.30789399431842
H           -2.66249672809740       -0.21009791917318        1.08540601773268
H           -3.11382003823432        0.18878132649806       -1.63814486977774
H           -3.35567443909919       -1.48641287468044       -3.39361943900383
H           -5.46716431839127       -2.76395149307851       -3.61767649972788
H           -7.32752435550589       -2.29939995024041       -2.06933343725516
H           -7.37679213292150        1.61670584967578       -1.50295101829112
H           -9.04938758877988        2.63103266796687       -2.98369114398176
H          -11.25063907249278        1.53003869489270       -3.28888733580252
H          -11.72602684723991       -0.57894620879276       -2.09309266045237
H           -9.97279645653106       -4.33101493303351        1.28250630629972
H           -8.13408762885079       -5.14172329303521        2.71971316935082
H           -6.02911453659386       -3.83700041450386        2.85229208766465
H           -5.79886324814758       -1.76487456194705        1.55951966674972
H           -9.15790521907956        0.32323678283806        1.77049581343298
H           -8.81418819880186        2.00768140961391        3.53669394155505
H           -6.60160355744408        3.10310176349760        3.75336863012458
H           -4.79739308895305        2.54349295877396        2.21291821678701
H           -4.45147645426191        3.37197931661927       -0.39600569966249
H           -2.27180509819250        4.54083616370002       -0.17328105364505
H            0.53734066014655        1.44021840631999       -0.98066042807934
H            2.67070390738891        0.23095570274696       -1.22324568154512
H            3.60977413582126        0.26376971259858        2.33919462033149
H            4.37074222034185       -1.11125704638064        4.20233263525559
H            6.55769815976969       -2.27158483465848        4.08647281710766
H            7.93254894723371       -2.05152558185270        2.05405044919843
H            5.44400621168325       -2.07794785894576       -1.10560371366059
H            5.35732530758048       -4.35033965733559       -2.02650620286354
H            7.43495859837926       -5.69622999208942       -2.17730648654205
H            9.56632467145450       -4.72557152078256       -1.39049367621081
H           12.09737933394298       -0.48495710344604        0.64225222885080
H           11.93951282056830        1.85053214885328        1.43277896891552
H            9.72903801154728        2.97465318421482        1.46894756789177
H            7.73432841078101        1.76053111139146        0.71923346907233
H            8.50896435591901       -0.20327051328963       -2.55175668405692
H            7.68285443547715        1.23951584897501       -4.37252984104260
H            5.56814502009219        2.49357229106538       -4.06002125974047
H            4.30164637607534        2.27050767924391       -1.98976506633553
H            4.47785833344217        2.80656786485216        1.66290792494015
H            2.33327620467363        4.03566716852288        1.89529589988924

          :  Hamiltonian                  GFN2-xTB          :
         :: gradient norm              0.000065521613 Eh/a0 ::
         :: HOMO-LUMO gap              1.555538331101 eV    ::
         :: SCC energy              -174.872341344656 Eh    ::
         :: -> dispersion             -0.178937563705 Eh    ::
         :: repulsion energy           3.110238107112 Eh    ::

    * Orbital Energies and Occupations

         #    Occupation            Energy/Eh            Energy/eV
      -------------------------------------------------------------
         1        2.0000           -0.7200962             -19.5948
       ...           ...                  ...                  ...
       148        2.0000           -0.4122071             -11.2167
       149        2.0000           -0.4121440             -11.2150
       150        2.0000           -0.4009935             -10.9116
       151        2.0000           -0.4006148             -10.9013
       152        2.0000           -0.4006032             -10.9010
       153        2.0000           -0.3998213             -10.8797
       154        2.0000           -0.3995739             -10.8730
       155        2.0000           -0.3989953             -10.8572
       156        2.0000           -0.3988450             -10.8531
       157        2.0000           -0.3588830              -9.7657
       158        2.0000           -0.3588615              -9.7651
       159        2.0000           -0.3571100              -9.7175
       160        2.0000           -0.3567773              -9.7084 (HOMO)
       161                         -0.2996124              -8.1529 (LUMO)
       162                         -0.2552181              -6.9448
       163                         -0.2517147              -6.8495
       164                         -0.2488682              -6.7720
       165                         -0.2465140              -6.7080
       166                         -0.2464381              -6.7059
       167                         -0.2332967              -6.3483
       168                         -0.2332678              -6.3475
       169                         -0.2324659              -6.3257
       170                         -0.2324055              -6.3241
       171                         -0.2287406              -6.2243
       ...                                ...                  ...
       322                          0.6725198              18.3002
      -------------------------------------------------------------
                  HL-Gap            0.0571649 Eh            1.5555 eV

     #   Z          covCN         q      C6AA      α(0)
     1   8 O        0.858    -0.365    20.997     6.144
     2   6 C        2.828     0.226    23.255     7.902
     3   6 C        2.972    -0.014    28.350     8.734
     4   6 C        2.920    -0.027    28.669     8.780
     5   6 C        2.920    -0.037    28.929     8.820
     6   6 C        2.928     0.076    26.310     8.412
     7   7 N        2.752    -0.071    22.626     7.065
     8   6 C        2.924     0.059    26.680     8.471
     9   6 C        2.924    -0.058    29.438     8.898
    10   6 C        2.920    -0.032    28.787     8.799
    11   6 C        2.917    -0.041    29.027     8.835
    12   6 C        2.927    -0.033    28.828     8.805
    13   6 C        2.993    -0.011    28.275     8.723
    14   6 C        3.929     0.020    20.184     6.385
    15   6 C        3.009     0.003    27.952     8.673
    16   6 C        2.932    -0.034    28.840     8.807
    17   6 C        2.918    -0.035    28.876     8.812
    18   6 C        2.920    -0.030    28.751     8.793
    19   6 C        2.996    -0.039    28.968     8.829
    20   6 C        2.971     0.047    26.936     8.513
    21  16 S        2.153    -0.138   146.869    20.397
    22   6 C        2.971     0.047    26.934     8.513
    23   6 C        2.996    -0.039    28.968     8.829
    24   6 C        2.920    -0.030    28.752     8.793
    25   6 C        2.918    -0.035    28.880     8.813
    26   6 C        2.932    -0.034    28.843     8.808
    27   6 C        3.009     0.003    27.951     8.673
    28   6 C        2.993    -0.011    28.281     8.724
    29   6 C        2.927    -0.033    28.830     8.805
    30   6 C        2.917    -0.041    29.018     8.834
    31   6 C        2.920    -0.031    28.774     8.796
    32   6 C        2.924    -0.057    29.429     8.896
    33   6 C        2.924     0.059    26.685     8.471
    34   6 C        2.919    -0.037    28.910     8.817
    35   6 C        2.924    -0.017    28.445     8.746
    36   6 C        2.972    -0.014    28.347     8.733
    37   6 C        2.920    -0.027    28.668     8.780
    38   6 C        2.920    -0.038    28.941     8.822
    39   6 C        2.928     0.075    26.317     8.413
    40   7 N        2.752    -0.071    22.620     7.064
    41   6 C        2.924     0.059    26.682     8.471
    42   6 C        2.924    -0.058    29.434     8.897
    43   6 C        2.920    -0.031    28.785     8.798
    44   6 C        2.917    -0.041    29.024     8.834
    45   6 C        2.927    -0.033    28.833     8.806
    46   6 C        2.993    -0.011    28.274     8.722
    47   6 C        3.929     0.020    20.184     6.385
    48   6 C        3.009     0.003    27.951     8.672
    49   6 C        2.932    -0.034    28.843     8.808
    50   6 C        2.918    -0.035    28.881     8.813
    51   6 C        2.920    -0.030    28.753     8.793
    52   6 C        2.996    -0.039    28.969     8.829
    53   6 C        2.971     0.047    26.934     8.513
    54  16 S        2.153    -0.138   146.877    20.398
    55   6 C        2.971     0.047    26.936     8.513
    56   6 C        2.996    -0.039    28.967     8.829
    57   6 C        2.920    -0.030    28.750     8.793
    58   6 C        2.918    -0.035    28.875     8.812
    59   6 C        2.932    -0.034    28.842     8.808
    60   6 C        3.009     0.002    27.953     8.673
    61   6 C        2.993    -0.011    28.281     8.723
    62   6 C        2.927    -0.033    28.825     8.805
    63   6 C        2.917    -0.041    29.020     8.834
    64   6 C        2.920    -0.031    28.778     8.797
    65   6 C        2.924    -0.058    29.434     8.897
    66   6 C        2.924     0.059    26.684     8.471
    67   6 C        2.920    -0.036    28.906     8.817
    68   6 C        2.924    -0.018    28.451     8.747
    69   1 H        0.926     0.043     2.415     2.430
    70   1 H        0.926     0.046     2.367     2.406
    71   1 H        0.926     0.024     2.677     2.559
    72   1 H        0.926     0.030     2.579     2.512
    73   1 H        0.926     0.031     2.568     2.506
    74   1 H        0.926     0.030     2.583     2.513
    75   1 H        0.926     0.030     2.590     2.517
    76   1 H        0.926     0.034     2.530     2.487
    77   1 H        0.926     0.037     2.485     2.465
    78   1 H        0.926     0.043     2.408     2.426
    79   1 H        0.926     0.043     2.407     2.426
    80   1 H        0.926     0.037     2.487     2.466
    81   1 H        0.926     0.033     2.539     2.492
    82   1 H        0.926     0.029     2.596     2.520
    83   1 H        0.926     0.030     2.588     2.516
    84   1 H        0.926     0.032     2.563     2.504
    85   1 H        0.926     0.033     2.550     2.497
    86   1 H        0.926     0.028     2.621     2.532
    87   1 H        0.926     0.049     2.330     2.387
    88   1 H        0.926     0.063     2.169     2.303
    89   1 H        0.926     0.042     2.422     2.434
    90   1 H        0.926     0.046     2.366     2.405
    91   1 H        0.926     0.025     2.663     2.552
    92   1 H        0.926     0.031     2.571     2.507
    93   1 H        0.926     0.032     2.564     2.504
    94   1 H        0.926     0.031     2.572     2.508
    95   1 H        0.926     0.029     2.597     2.520
    96   1 H        0.926     0.033     2.540     2.492
    97   1 H        0.926     0.037     2.487     2.466
    98   1 H        0.926     0.043     2.407     2.426
    99   1 H        0.926     0.043     2.408     2.427
   100   1 H        0.926     0.037     2.484     2.465
   101   1 H        0.926     0.034     2.527     2.486
   102   1 H        0.926     0.030     2.586     2.515
   103   1 H        0.926     0.029     2.596     2.520
   104   1 H        0.926     0.031     2.566     2.505
   105   1 H        0.926     0.032     2.560     2.502
   106   1 H        0.926     0.027     2.630     2.536
   107   1 H        0.926     0.049     2.334     2.389
   108   1 H        0.926     0.062     2.180     2.309

molecular dipole:
                 x           y           z       tot (Debye)
 q only:       -0.019      -0.378      -0.103
   full:       -0.014      -0.246      -0.104       0.681

 projected vibrational frequencies (cm⁻¹)
eigval :       -0.00    -0.00     0.00     0.00     0.00     0.00
eigval :        4.08     4.54     6.14     6.67     7.40     8.24
eigval :       12.20    31.56    32.51    38.63    44.52    44.98
eigval :       49.85    54.93    59.65    60.20    69.93    70.37
eigval :       79.77   103.26   104.08   109.74   117.35   123.52
eigval :      124.34   129.74   150.75   152.55   153.80   155.06
eigval :      161.15   183.06   192.46   203.48   226.92   227.22
eigval :      238.22   240.75   251.65   252.88   264.08   270.85
eigval :      282.56   283.92   285.99   287.26   312.34   313.17
eigval :      339.97   350.20   350.63   353.22   369.84   377.54
eigval :      386.31   388.45   394.97   396.32   399.46   400.31
eigval :      418.90   419.65   420.64   420.73   421.14   421.18
eigval :      433.55   442.86   443.52   444.32   465.68   466.17
eigval :      473.19   473.99   485.46   485.60   486.89   489.43
eigval :      503.80   504.40   511.40   511.60   530.05   530.07
eigval :      557.53   587.04   594.03   597.44   597.46   600.39
eigval :      601.42   604.01   608.94   611.43   618.46   630.72
eigval :      642.28   650.03   660.40   662.26   662.36   669.24
eigval :      669.32   672.92   678.49   679.64   693.42   693.61
eigval :      700.57   703.06   712.79   712.84   718.52   732.95
eigval :      738.32   760.90   771.76   771.90   772.83   773.09
eigval :      773.73   773.91   782.09   782.18   821.94   827.41
eigval :      865.51   866.48   867.73   867.84   873.82   875.28
eigval :      875.34   876.25   876.35   878.97   889.02   897.32
eigval :      897.83   897.99   899.53   905.09   905.13   909.64
eigval :      909.70   911.40   911.44   911.92   912.04   919.25
eigval :      919.40   919.75   920.72   921.56   921.78   922.58
eigval :      923.14   923.19   923.44   923.47   923.54   926.60
eigval :      929.84   936.53   945.75   945.80   956.66  1014.77
eigval :     1028.86  1043.79  1043.89  1051.69  1051.84  1099.88
eigval :     1099.98  1101.56  1101.62  1108.38  1108.45  1110.12
eigval :     1110.40  1124.04  1124.07  1127.38  1127.41  1130.47
eigval :     1131.35  1150.81  1150.85  1160.76  1160.90  1173.11
eigval :     1179.59  1179.97  1180.00  1180.20  1180.70  1181.88
eigval :     1182.71  1184.91  1185.01  1187.49  1191.02  1191.63
eigval :     1199.92  1204.39  1226.87  1231.76  1231.93  1232.89
eigval :     1233.06  1234.16  1256.54  1256.82  1259.43  1261.20
eigval :     1261.73  1261.98  1262.10  1267.63  1267.85  1270.03
eigval :     1270.28  1312.15  1315.33  1318.91  1320.98  1324.64
eigval :     1324.83  1327.44  1327.71  1328.56  1328.57  1335.93
eigval :     1336.04  1336.32  1336.81  1400.42  1402.30  1403.68
eigval :     1403.75  1413.50  1413.56  1437.17  1437.29  1438.13
eigval :     1438.31  1463.03  1463.29  1467.13  1467.29  1472.79
eigval :     1474.55  1479.72  1480.01  1493.45  1493.83  1558.25
eigval :     1559.92  1568.67  1568.72  1575.14  1575.26  1580.19
eigval :     1580.28  1583.03  1585.69  1587.60  1587.67  1588.43
eigval :     1588.56  1591.98  1592.06  1595.73  1595.82  1603.33
eigval :     1603.50  1693.41  3077.41  3077.72  3078.07  3078.58
eigval :     3078.64  3079.35  3079.73  3080.64  3080.99  3081.65
eigval :     3082.56  3082.88  3083.26  3083.65  3083.66  3083.75
eigval :     3083.96  3083.97  3088.34  3088.73  3090.67  3090.70
eigval :     3091.30  3091.37  3092.65  3093.74  3095.42  3095.82
eigval :     3097.06  3097.25  3099.43  3099.47  3099.83  3100.02
eigval :     3100.03  3100.08  3102.23  3102.51  3103.28  3103.40

   temp. (K)  partition function   enthalpy   heat capacity  entropy
                                   cal/mol     cal/K/mol   cal/K/mol   J/K/mol
 298.15  VIB  0.187E+29            32317.861    201.513    206.645
         ROT  0.301E+09              888.752      2.981     41.775
         INT  0.563E+37            33206.614    204.494    248.420
         TR   0.263E+29             1481.254      4.968     46.263
         TOT                       34687.8677   209.4621   294.6838  1232.9571

       T/K    H(0)-H(T)+PV         H(T)/Eh          T*S/Eh         G(T)/Eh
   ------------------------------------------------------------------------
    298.15    0.552786E-01    0.871671E+00    0.140014E+00    0.731657E+00
   ------------------------------------------------------------------------

         :::::::::::::::::::::::::::::::::::::::::::::::::::::
         ::                  THERMODYNAMIC                  ::
         :::::::::::::::::::::::::::::::::::::::::::::::::::::
         :: total free energy        -171.030446422682 Eh   ::
         ::.................................................::
         :: total energy             -171.762103237543 Eh   ::
         :: zero point energy           0.816391967098 Eh   ::
         :: G(RRHO) w/o ZPVE           -0.084735152237 Eh   ::
         :: G(RRHO) contrib.            0.731656814860 Eh   ::
         :::::::::::::::::::::::::::::::::::::::::::::::::::::

           -------------------------------------------------
          | TOTAL ENERGY             -171.762103237543 Eh   |
          | TOTAL ENTHALPY           -170.890432634570 Eh   |
          | TOTAL FREE ENERGY        -171.030446422682 Eh   |
          | GRADIENT NORM               0.000065537162 Eh/α |
          | HOMO-LUMO GAP               1.555537373861 eV   |
           -------------------------------------------------

 * finished run on 2025/07/18 at 18:18:21.560
