   * xtb version 6.7.1 (edcfbbe) compiled by 'albert@albert-system' on 2024-07-22

   ID    Z sym.   atoms
    1    8 O      1
    2    6 C      2-6, 8-20, 22-39, 41-53, 55-68
    3    7 N      7, 40
    4   16 S      21, 54
    5    1 H      69-108

          program call               : xtb data2507/gas/STAC-BP-STAC/STAC-BP-STAC_gas_S0_crest.xyz --gfn 2 --ohess vtight --parallel 40 --molden --ceasefiles --namespace data2507/gas/STAC-BP-STAC/STAC-BP-STAC_gas_S0_finalOpt
          :  Hamiltonian                  GFN2-xTB          :
 * total energy  :  -171.7621530 Eh     change       -0.4566147E-08 Eh
 * total energy  :  -171.7621552 Eh     change       -0.2276335E-05 Eh
 * total energy  :  -171.7621552 Eh     change       -0.8916459E-09 Eh
 * total energy  :  -171.7621583 Eh     change       -0.3054186E-05 Eh
 * total energy  :  -171.7621607 Eh     change       -0.2411291E-05 Eh
 * total energy  :  -171.7621602 Eh     change        0.5477714E-06 Eh
 * total energy  :  -171.7621618 Eh     change       -0.1620836E-05 Eh
 * total energy  :  -171.7621630 Eh     change       -0.1172204E-05 Eh
 * total energy  :  -171.7621652 Eh     change       -0.2277254E-05 Eh
 * total energy  :  -171.7621677 Eh     change       -0.2456763E-05 Eh
 * total energy  :  -171.7622421 Eh     change       -0.2063225E-06 Eh
 * total energy  :  -171.7622423 Eh     change       -0.1989420E-06 Eh
 * total energy  :  -171.7622425 Eh     change       -0.1971799E-06 Eh
 * total energy  :  -171.7622427 Eh     change       -0.2280600E-06 Eh
 * total energy  :  -171.7622430 Eh     change       -0.2880663E-06 Eh
 * total energy  :  -171.7622433 Eh     change       -0.3307523E-06 Eh
 * total energy  :  -171.7622437 Eh     change       -0.3420524E-06 Eh
 * total energy  :  -171.7622440 Eh     change       -0.3487660E-06 Eh
 * total energy  :  -171.7622440 Eh     change       -0.4615515E-08 Eh
   *** GEOMETRY OPTIMIZATION CONVERGED AFTER 68 ITERATIONS ***

 final structure:
================
108
 xtb: 6.7.1 (edcfbbe)
O           -0.00198027791777        4.99345541018828        0.05403547432850
C           -0.00201033420894        3.77892599102914        0.03661294738248
C           -1.26661261277027        3.00102152797576        0.03732198094656
C           -1.37151236802172        1.75889794439346        0.66155561067718
C           -2.57439465305081        1.08173464324741        0.66230864279967
C           -3.68821137098313        1.63058968669290        0.03279247945806
N           -4.91365979071520        0.92159451338520        0.02142264487010
C           -5.01826756538739       -0.23012211292420       -0.75035373266651
C           -3.95454724432537       -0.64075369773779       -1.55842598215680
C           -4.04702860645996       -1.78464801308867       -2.32468383314041
C           -5.20526871279163       -2.54216272186291       -2.31356135175903
C           -6.27185015231589       -2.12608499742622       -1.54001982101223
C           -6.19644313398434       -0.97949252455195       -0.76419062371142
C           -7.42204768876089       -0.57246405488980        0.03129443213567
C           -8.53103041502762       -0.30916633685253       -0.97009104327134
C           -8.32199777845109        0.73285560694318       -1.87064818796698
C           -9.25536261763795        1.06217136798091       -2.83209500423580
C          -10.43829420437721        0.34384815196226       -2.91460946461085
C          -10.66574814074702       -0.69174150812119       -2.03468399516638
C           -9.71821208145111       -1.01983213731914       -1.06679138146977
S          -10.14661691226778       -2.37240680502116       -0.01996856708662
C           -8.79525735803588       -2.47899534158911        1.10723213443132
C           -8.91495722694216       -3.46067466734320        2.08926954052666
C           -7.91815787266498       -3.64285284798559        3.02282932204512
C           -6.78870360975061       -2.84004099908443        2.98033614857403
C           -6.67715205147949       -1.86898096592939        2.00633267503412
C           -7.67260963063171       -1.66610656613717        1.05320187246382
C           -7.19756725318253        0.71329072170351        0.80335240637291
C           -8.24418313997214        1.20391226371065        1.56905882564868
C           -8.10304663914060        2.34908812002881        2.32907186625688
C           -6.88392249811718        3.00448536567986        2.33755690014759
C           -5.83140044471380        2.53069913501612        1.58116203284042
C           -5.97674930815841        1.39077083119532        0.78618971122872
C           -3.59234597250125        2.87785771083566       -0.57823059614695
C           -2.39354007923344        3.56006935272952       -0.56372187193815
C            1.26266014116923        3.00132070402313        0.01456172506228
C            1.37057833794947        1.78250354545670       -0.65346907416145
C            2.57295327058608        1.10460252864040       -0.67105481715754
C            3.68286508977883        1.62887404690702       -0.01428025658021
N            4.90734816200756        0.91809090748222       -0.01841710103177
C            5.00504851480246       -0.25994069462619        0.71359278529809
C            3.93206233023920       -0.70206338454524        1.49227880031881
C            4.01797413179658       -1.87235909153779        2.21839503269540
C            5.17872400611871       -2.62575385039602        2.19608278585840
C            6.25412935473367       -2.17942172747497        1.45220212817256
C            6.18523838146076       -1.00631350826472        0.71645368555249
C            7.41990997580711       -0.56880354010565       -0.04812608587138
C            7.69023930868188       -1.62876049270983       -1.09994932324243
C            6.70437268409089       -1.81316812123795       -2.06669890378366
C            6.83356431003640       -2.75357479125888       -3.06819383466779
C            7.97150891325703       -3.54340936926040       -3.12523235174951
C            8.95936007042426       -3.37862300208678       -2.17902094000280
C            8.82207353777178       -2.42756144233260       -1.16953346851859
S           10.16484302170452       -2.33864551852442       -0.03060354690488
C            9.70866614710918       -1.03023761335117        1.05966726067636
C           10.64228155218013       -0.72568756710997        2.04856426398648
C           10.39308581322233        0.27467284814276        2.96267850739427
C            9.20190268754334        0.98070000895712        2.89395685767238
C            8.28244856180848        0.67493627609117        1.91156302041737
C            8.51370263656259       -0.33104993492071        0.97612670501912
C            7.19998581912453        0.73966799666891       -0.78245001558263
C            8.25323861381875        1.25665242883549       -1.52123838183599
C            8.11743206707133        2.42569166670733       -2.24501146283126
C            6.89724131187124        3.07916118005163       -2.24422603037483
C            5.83807080119926        2.57909183827216       -1.51451666251866
C            5.97760735987279        1.41395545843756       -0.75587315682192
C            3.58414376843856        2.85364652925960        0.64021909605409
C            2.38616433031376        3.53750844820087        0.64211808163756
H           -0.51875131178215        1.33623170087301        1.17178368386848
H           -2.66181678086703        0.12111506652306        1.14838085309696
H           -3.04988924455745       -0.05318013920083       -1.59272112985935
H           -3.20844839585598       -2.08079123827110       -2.93717423314631
H           -5.28116627900248       -3.43900328170652       -2.90818848206864
H           -7.18841492115632       -2.69812912126498       -1.53585778103629
H           -7.39958340743982        1.29206766384728       -1.80794535525376
H           -9.06221613383133        1.87513645831731       -3.51534342415027
H          -11.17822558864917        0.58976545837088       -3.66095974554663
H          -11.57900488820365       -1.26615635770958       -2.08010088669731
H           -9.80354223222047       -4.07410877530816        2.10168359327571
H           -8.02036752864130       -4.40604800969424        3.77921492152103
H           -5.99873636889218       -2.97129594473774        3.70413145330931
H           -5.79674514923409       -1.24343331536112        1.97529926441410
H           -9.18369985466832        0.66994573617426        1.56725008891576
H           -8.92946443299305        2.71820816764567        2.91595872275728
H           -6.74546756568981        3.88984180642678        2.93978612356303
H           -4.88390430498683        3.04611838168019        1.61341638546615
H           -4.46226115456171        3.30347130753429       -1.05599686812940
H           -2.30416614986189        4.53031379852126       -1.02871862716864
H            0.52060042928547        1.37942179513833       -1.18383523730577
H            2.66280267661423        0.16219610411435       -1.19114235866108
H            3.02504307172826       -0.11876906309573        1.53542409047009
H            3.17209373870687       -2.19258882802500        2.80831582615227
H            5.24954585031140       -3.54299569746389        2.75938789949167
H            7.17266077937590       -2.74822298236914        1.43997542347016
H            5.81734389832778       -1.19772305281114       -2.02403201607415
H            6.05068419831614       -2.87120758758810       -3.80195395086093
H            8.08725965389160       -4.28303635856730       -3.90277998369949
H            9.85441028072349       -3.98225018859032       -2.20255598671068
H           11.56229640857358       -1.29000922494397        2.08268409499554
H           11.12255570139706        0.50280673585857        3.72480556886453
H            8.99169947111514        1.76602619098212        3.60397295955892
H            7.35379934787522        1.22481320452207        1.85939623571485
H            9.19387755191262        0.72471749521274       -1.52714326564061
H            8.94898110635683        2.81509946799525       -2.81117635552472
H            6.76321054086847        3.98364976340649       -2.81836884224535
H            4.88993785201592        3.09376535191285       -1.53935036275040
H            4.45123551183859        3.26085705846469        1.13872038967042
H            2.29480262613372        4.49058928997048        1.14097980666530

          :  Hamiltonian                  GFN2-xTB          :
         :: gradient norm              0.000042992527 Eh/a0 ::
         :: HOMO-LUMO gap              1.572072930330 eV    ::
         :: SCC energy              -174.872391133506 Eh    ::
         :: -> dispersion             -0.179069552479 Eh    ::
         :: repulsion energy           3.110147127884 Eh    ::

    * Orbital Energies and Occupations

         #    Occupation            Energy/Eh            Energy/eV
      -------------------------------------------------------------
         1        2.0000           -0.7201250             -19.5956
       ...           ...                  ...                  ...
       148        2.0000           -0.4122317             -11.2174
       149        2.0000           -0.4121989             -11.2165
       150        2.0000           -0.4007108             -10.9039
       151        2.0000           -0.4006610             -10.9025
       152        2.0000           -0.4006302             -10.9017
       153        2.0000           -0.3998534             -10.8806
       154        2.0000           -0.3998171             -10.8796
       155        2.0000           -0.3988795             -10.8541
       156        2.0000           -0.3988347             -10.8528
       157        2.0000           -0.3589317              -9.7670
       158        2.0000           -0.3589065              -9.7663
       159        2.0000           -0.3571291              -9.7180
       160        2.0000           -0.3569675              -9.7136 (HOMO)
       161                         -0.2991950              -8.1415 (LUMO)
       162                         -0.2550762              -6.9410
       163                         -0.2515115              -6.8440
       164                         -0.2486001              -6.7648
       165                         -0.2465560              -6.7091
       166                         -0.2464785              -6.7070
       167                         -0.2333363              -6.3494
       168                         -0.2333105              -6.3487
       169                         -0.2324885              -6.3263
       170                         -0.2324741              -6.3259
       171                         -0.2289128              -6.2290
       ...                                ...                  ...
       322                          0.6730638              18.3150
      -------------------------------------------------------------
                  HL-Gap            0.0577726 Eh            1.5721 eV

     #   Z          covCN         q      C6AA      α(0)
     1   8 O        0.858    -0.366    21.004     6.145
     2   6 C        2.828     0.226    23.256     7.902
     3   6 C        2.972    -0.014    28.352     8.734
     4   6 C        2.920    -0.027    28.665     8.780
     5   6 C        2.920    -0.037    28.933     8.821
     6   6 C        2.928     0.075    26.317     8.413
     7   7 N        2.752    -0.071    22.617     7.063
     8   6 C        2.924     0.059    26.681     8.471
     9   6 C        2.924    -0.058    29.433     8.897
    10   6 C        2.920    -0.032    28.787     8.799
    11   6 C        2.917    -0.041    29.025     8.835
    12   6 C        2.927    -0.033    28.832     8.806
    13   6 C        2.993    -0.011    28.272     8.722
    14   6 C        3.929     0.020    20.184     6.385
    15   6 C        3.009     0.003    27.952     8.673
    16   6 C        2.932    -0.034    28.840     8.807
    17   6 C        2.918    -0.035    28.875     8.812
    18   6 C        2.920    -0.030    28.750     8.793
    19   6 C        2.996    -0.039    28.968     8.829
    20   6 C        2.971     0.047    26.936     8.513
    21  16 S        2.153    -0.138   146.874    20.397
    22   6 C        2.971     0.047    26.934     8.513
    23   6 C        2.996    -0.039    28.967     8.829
    24   6 C        2.920    -0.030    28.752     8.793
    25   6 C        2.918    -0.035    28.880     8.813
    26   6 C        2.932    -0.034    28.846     8.808
    27   6 C        3.009     0.003    27.952     8.673
    28   6 C        2.993    -0.011    28.281     8.723
    29   6 C        2.927    -0.033    28.826     8.805
    30   6 C        2.917    -0.041    29.016     8.833
    31   6 C        2.920    -0.031    28.774     8.796
    32   6 C        2.924    -0.058    29.431     8.897
    33   6 C        2.924     0.059    26.687     8.472
    34   6 C        2.919    -0.037    28.916     8.818
    35   6 C        2.924    -0.018    28.449     8.747
    36   6 C        2.972    -0.014    28.350     8.734
    37   6 C        2.920    -0.027    28.666     8.780
    38   6 C        2.920    -0.038    28.933     8.821
    39   6 C        2.928     0.075    26.319     8.413
    40   7 N        2.752    -0.071    22.617     7.063
    41   6 C        2.924     0.059    26.681     8.471
    42   6 C        2.924    -0.058    29.434     8.897
    43   6 C        2.920    -0.032    28.788     8.799
    44   6 C        2.917    -0.041    29.025     8.835
    45   6 C        2.927    -0.033    28.831     8.806
    46   6 C        2.993    -0.011    28.272     8.722
    47   6 C        3.929     0.020    20.184     6.385
    48   6 C        3.009     0.003    27.952     8.673
    49   6 C        2.932    -0.034    28.845     8.808
    50   6 C        2.918    -0.035    28.880     8.813
    51   6 C        2.920    -0.030    28.752     8.793
    52   6 C        2.996    -0.039    28.968     8.829
    53   6 C        2.971     0.047    26.934     8.513
    54  16 S        2.153    -0.138   146.873    20.397
    55   6 C        2.971     0.047    26.936     8.513
    56   6 C        2.996    -0.039    28.968     8.829
    57   6 C        2.920    -0.030    28.750     8.793
    58   6 C        2.918    -0.035    28.875     8.812
    59   6 C        2.932    -0.034    28.840     8.807
    60   6 C        3.009     0.003    27.952     8.673
    61   6 C        2.993    -0.011    28.281     8.723
    62   6 C        2.927    -0.033    28.827     8.805
    63   6 C        2.917    -0.041    29.016     8.833
    64   6 C        2.920    -0.031    28.774     8.796
    65   6 C        2.924    -0.058    29.430     8.896
    66   6 C        2.924     0.059    26.687     8.472
    67   6 C        2.919    -0.037    28.916     8.818
    68   6 C        2.924    -0.018    28.450     8.747
    69   1 H        0.926     0.042     2.423     2.434
    70   1 H        0.926     0.046     2.369     2.407
    71   1 H        0.926     0.024     2.673     2.557
    72   1 H        0.926     0.031     2.578     2.511
    73   1 H        0.926     0.031     2.565     2.505
    74   1 H        0.926     0.031     2.572     2.508
    75   1 H        0.926     0.030     2.588     2.516
    76   1 H        0.926     0.034     2.530     2.487
    77   1 H        0.926     0.037     2.485     2.465
    78   1 H        0.926     0.043     2.408     2.426
    79   1 H        0.926     0.043     2.407     2.426
    80   1 H        0.926     0.037     2.486     2.466
    81   1 H        0.926     0.033     2.539     2.492
    82   1 H        0.926     0.029     2.595     2.519
    83   1 H        0.926     0.029     2.596     2.520
    84   1 H        0.926     0.032     2.564     2.504
    85   1 H        0.926     0.033     2.550     2.497
    86   1 H        0.926     0.028     2.614     2.528
    87   1 H        0.926     0.049     2.331     2.388
    88   1 H        0.926     0.062     2.176     2.307
    89   1 H        0.926     0.042     2.423     2.434
    90   1 H        0.926     0.046     2.368     2.406
    91   1 H        0.926     0.024     2.673     2.557
    92   1 H        0.926     0.031     2.579     2.511
    93   1 H        0.926     0.031     2.566     2.505
    94   1 H        0.926     0.031     2.574     2.509
    95   1 H        0.926     0.029     2.595     2.519
    96   1 H        0.926     0.033     2.538     2.491
    97   1 H        0.926     0.037     2.487     2.466
    98   1 H        0.926     0.043     2.407     2.426
    99   1 H        0.926     0.043     2.408     2.426
   100   1 H        0.926     0.037     2.485     2.465
   101   1 H        0.926     0.034     2.530     2.487
   102   1 H        0.926     0.030     2.589     2.516
   103   1 H        0.926     0.029     2.595     2.519
   104   1 H        0.926     0.032     2.564     2.504
   105   1 H        0.926     0.033     2.550     2.497
   106   1 H        0.926     0.028     2.614     2.528
   107   1 H        0.926     0.049     2.332     2.388
   108   1 H        0.926     0.062     2.179     2.308

molecular dipole:
                 x           y           z       tot (Debye)
 q only:       -0.006      -0.345      -0.007
   full:       -0.008      -0.190      -0.005       0.484

 projected vibrational frequencies (cm⁻¹)
eigval :       -0.00    -0.00    -0.00     0.00     0.00     0.00
eigval :        4.52     4.67     6.32     6.83     7.57     9.66
eigval :       10.58    31.34    33.57    37.46    44.47    45.12
eigval :       49.12    52.90    59.77    59.94    69.96    70.45
eigval :       80.57   103.48   104.41   110.94   115.67   123.75
eigval :      124.08   130.00   151.50   151.62   153.47   154.98
eigval :      162.89   183.42   191.90   203.36   227.03   227.23
eigval :      238.07   240.78   251.80   252.74   265.00   270.84
eigval :      282.75   283.21   286.26   287.71   311.70   313.37
eigval :      340.21   350.53   350.75   353.09   371.80   379.17
eigval :      386.42   391.32   394.67   395.90   399.50   399.60
eigval :      419.38   419.69   420.80   420.87   421.14   421.19
eigval :      432.20   442.90   443.72   444.01   465.87   466.48
eigval :      473.40   473.89   485.49   485.57   486.32   489.48
eigval :      503.93   504.80   511.53   511.88   530.03   530.04
eigval :      556.44   587.65   595.26   597.45   597.47   600.43
eigval :      602.34   603.87   608.55   610.13   617.76   630.45
eigval :      642.28   650.09   660.85   662.28   662.37   669.33
eigval :      669.37   672.82   678.35   680.11   693.48   693.67
eigval :      700.54   703.45   712.90   712.92   718.61   732.80
eigval :      738.28   760.69   771.82   771.83   772.80   772.80
eigval :      773.94   774.04   782.08   782.17   822.03   826.86
eigval :      865.72   865.80   867.87   868.31   873.52   875.30
eigval :      875.31   876.24   876.31   878.33   889.13   897.29
eigval :      897.74   898.04   899.42   905.11   905.15   909.71
eigval :      909.73   911.43   911.43   911.91   911.94   919.06
eigval :      919.40   919.63   920.74   921.55   921.64   922.68
eigval :      923.15   923.17   923.43   923.49   923.53   926.73
eigval :      929.98   935.60   945.72   945.75   956.55  1014.63
eigval :     1028.85  1043.64  1043.73  1051.73  1051.77  1099.85
eigval :     1099.89  1101.55  1101.57  1108.61  1108.66  1110.44
eigval :     1110.46  1123.94  1123.99  1127.36  1127.46  1130.70
eigval :     1131.43  1150.83  1150.84  1160.76  1160.88  1173.54
eigval :     1179.88  1180.00  1180.05  1180.32  1180.91  1182.05
eigval :     1182.85  1184.98  1185.01  1187.59  1191.37  1192.00
eigval :     1199.89  1204.47  1226.86  1231.73  1232.12  1232.94
eigval :     1233.07  1234.35  1256.54  1256.81  1259.66  1261.06
eigval :     1261.81  1261.95  1261.98  1267.76  1267.88  1270.19
eigval :     1270.30  1312.12  1315.10  1318.36  1320.70  1324.69
eigval :     1324.72  1327.45  1327.62  1328.50  1328.58  1335.77
eigval :     1335.86  1336.21  1336.30  1400.81  1402.59  1403.74
eigval :     1403.77  1413.48  1413.51  1437.24  1437.28  1438.06
eigval :     1438.12  1463.19  1463.26  1467.39  1467.52  1472.87
eigval :     1474.57  1479.68  1479.76  1493.21  1493.58  1557.79
eigval :     1559.30  1568.67  1568.69  1575.19  1575.21  1580.14
eigval :     1580.25  1582.40  1584.57  1587.60  1587.60  1588.41
eigval :     1588.49  1592.02  1592.05  1595.73  1595.74  1603.30
eigval :     1603.46  1693.49  3077.72  3077.77  3078.10  3078.14
eigval :     3078.63  3078.76  3080.19  3080.36  3081.25  3082.20
eigval :     3082.36  3083.07  3083.61  3083.62  3083.84  3083.85
eigval :     3084.00  3084.01  3088.55  3088.72  3090.67  3090.69
eigval :     3091.20  3091.23  3092.85  3093.78  3095.64  3095.93
eigval :     3097.74  3097.83  3099.38  3099.40  3099.77  3099.88
eigval :     3099.91  3099.95  3102.44  3102.47  3103.73  3103.77

   temp. (K)  partition function   enthalpy   heat capacity  entropy
                                   cal/mol     cal/K/mol   cal/K/mol   J/K/mol
 298.15  VIB  0.155E+29            32314.116    201.447    206.379
         ROT  0.300E+09              888.752      2.981     41.773
         INT  0.465E+37            33202.868    204.428    248.152
         TR   0.263E+29             1481.254      4.968     46.263
         TOT                       34684.1223   209.3957   294.4153  1231.8335

       T/K    H(0)-H(T)+PV         H(T)/Eh          T*S/Eh         G(T)/Eh
   ------------------------------------------------------------------------
    298.15    0.552727E-01    0.871678E+00    0.139886E+00    0.731792E+00
   ------------------------------------------------------------------------

         :::::::::::::::::::::::::::::::::::::::::::::::::::::
         ::                  THERMODYNAMIC                  ::
         :::::::::::::::::::::::::::::::::::::::::::::::::::::
         :: total free energy        -171.030452490935 Eh   ::
         ::.................................................::
         :: total energy             -171.762244005622 Eh   ::
         :: zero point energy           0.816405044739 Eh   ::
         :: G(RRHO) w/o ZPVE           -0.084613530052 Eh   ::
         :: G(RRHO) contrib.            0.731791514687 Eh   ::
         :::::::::::::::::::::::::::::::::::::::::::::::::::::

           -------------------------------------------------
          | TOTAL ENERGY             -171.762244005622 Eh   |
          | TOTAL ENTHALPY           -170.890566293764 Eh   |
          | TOTAL FREE ENERGY        -171.030452490935 Eh   |
          | GRADIENT NORM               0.000042988128 Eh/α |
          | HOMO-LUMO GAP               1.572072334019 eV   |
           -------------------------------------------------

 * finished run on 2025/07/18 at 18:27:25.427
