   * xtb version 6.7.1 (edcfbbe) compiled by 'albert@albert-system' on 2024-07-22

   ID    Z sym.   atoms
    1    8 O      1
    2    6 C      2-6, 8-20, 22-39, 41-53, 55-68
    3    7 N      7, 40
    4   16 S      21, 54
    5    1 H      69-108

          program call               : xtb data2507/gas/STAC-BP-STAC/STAC-BP-STAC_gas_S0_finalOpt.xtbopt.xyz --gfn 2 --spinpol --tblite --uhf 2 --ohess vtight --parallel 40 --molden --ceasefiles --namespace data2507/gas/STAC-BP-STAC/STAC-BP-STAC_gas_T1_preOpt
 * total energy  :  -171.6804515 Eh     change       -0.4050253E-07 Eh
 * total energy  :  -171.6843583 Eh     change       -0.3906841E-02 Eh
 * total energy  :  -171.6853028 Eh     change       -0.9445055E-03 Eh
 * total energy  :  -171.6854272 Eh     change       -0.1243253E-03 Eh
 * total energy  :  -171.6855175 Eh     change       -0.9030267E-04 Eh
 * total energy  :  -171.6855906 Eh     change       -0.7309379E-04 Eh
 * total energy  :  -171.6856789 Eh     change       -0.8833160E-04 Eh
 * total energy  :  -171.6857654 Eh     change       -0.8653465E-04 Eh
 * total energy  :  -171.6858315 Eh     change       -0.6608960E-04 Eh
 * total energy  :  -171.6858460 Eh     change       -0.1452596E-04 Eh
 * total energy  :  -171.6861625 Eh     change       -0.2322029E-06 Eh
 * total energy  :  -171.6861627 Eh     change       -0.1560712E-06 Eh
 * total energy  :  -171.6861629 Eh     change       -0.1960659E-06 Eh
 * total energy  :  -171.6861631 Eh     change       -0.2242702E-06 Eh
 * total energy  :  -171.6861633 Eh     change       -0.1893992E-06 Eh
 * total energy  :  -171.6861635 Eh     change       -0.1691082E-06 Eh
 * total energy  :  -171.6861636 Eh     change       -0.1404692E-06 Eh
 * total energy  :  -171.6861637 Eh     change       -0.1135200E-06 Eh
 * total energy  :  -171.6861638 Eh     change       -0.9432722E-07 Eh
   *** GEOMETRY OPTIMIZATION CONVERGED AFTER 78 ITERATIONS ***

 final structure:
================
108
 xtb: 6.7.1 (edcfbbe)
O           -0.00218076843393        4.74397640911126        0.06831701001062
C           -0.00190809432939        3.47631455441964        0.04880485194534
C           -1.25915382397270        2.75796172831889       -0.01583682237962
C           -1.43346370581500        1.47436264430509        0.53234948084825
C           -2.66474453749763        0.86457629824726        0.51312678374635
C           -3.76470388764082        1.51042328763815       -0.05512931260492
N           -5.03194349169776        0.86651299127675       -0.06407503585859
C           -5.20594331305746       -0.26215857845597       -0.84518051921035
C           -4.18003986197848       -0.70133281486691       -1.69227352427942
C           -4.33133930769980       -1.83973996430119       -2.45351287819423
C           -5.51037715029382       -2.56727749799919       -2.40031864061122
C           -6.54198805475761       -2.12112388859416       -1.59613511834013
C           -6.40992733969108       -0.97650771143069       -0.82571683787232
C           -7.59861057073441       -0.52323471548708       -0.00397447184241
C           -8.72132734852832       -0.23152890380565       -0.98338974975026
C           -8.48648134106669        0.77731261151377       -1.91502354094486
C           -9.42728553881731        1.12443408317184       -2.86286289341152
C          -10.64303699244997        0.45882490472166       -2.89921798887423
C          -10.89672666288191       -0.54128759787749       -1.98617792662021
C           -9.94205450906636       -0.88791688808467       -1.03154228229513
S          -10.40894759409184       -2.18729395118843        0.06448769933151
C           -9.02590971342456       -2.34589576412195        1.14555850634029
C           -9.16215649347040       -3.30310192909273        2.14968912801292
C           -8.14442545106605       -3.52171099191834        3.05217445250891
C           -6.97568638546990       -2.78224738704720        2.95507313237308
C           -6.84700685763662       -1.83532353678504        1.95965059436650
C           -7.86440998349769       -1.59541831123705        1.03863237693871
C           -7.30976293691922        0.75598746739286        0.75361585273756
C           -8.32333582111117        1.30127850377300        1.52582021177760
C           -8.11392920197282        2.43601160294369        2.28650953508144
C           -6.85714492796428        3.02122784656150        2.29524531957746
C           -5.83734728077834        2.49544199258977        1.53212034727108
C           -6.05115979716287        1.36949289794842        0.72615553464182
C           -3.61201025881801        2.79501731187823       -0.58274023360699
C           -2.38925951225609        3.41559921061044       -0.54294056679560
C            1.25569339214983        2.75689820067662        0.09142236440388
C            1.43073840047202        1.49103010030342       -0.49632518263902
C            2.66226414475993        0.88143509428694       -0.49557221429326
C            3.76173410857943        1.50974124103717        0.09294902509564
N            5.02918699773422        0.86627531973597        0.08253815409214
C            5.20310000048015       -0.28615077845121        0.82818823726159
C            4.17691118990023       -0.75170834677265        1.66072220526953
C            4.32808933946981       -1.91327109607264        2.38616634895144
C            5.50729331498640       -2.63857905437817        2.31084284583390
C            6.53918435415737       -2.16736067919965        1.52145027867139
C            6.40724733287423       -0.99930230757936        0.78703863622969
C            7.59619479817952       -0.52038018752480       -0.01964116786582
C            7.86254179667850       -1.55941952032007       -1.09514930864084
C            6.84613955808855       -1.76949792377274       -2.02451838303077
C            6.97534521495890       -2.68488132173026       -3.04895818720799
C            8.14361837091961       -3.42192034936432       -3.16770891531458
C            9.16034768618383       -3.23256600830285       -2.25751236177831
C            9.02355242458744       -2.30720126870075       -1.22403782376023
S           10.40521976974312       -2.18389594679809       -0.13663052176904
C            9.93862203583160       -0.91795264306899        0.99797734858407
C           10.89287073695581       -0.60128163293479        1.96338097664595
C           10.63929125214099        0.37080138607259        2.90624022256729
C            9.42407729571963        1.03817129771901        2.88929244909902
C            8.48370772893117        0.72081242687385        1.93064678107205
C            8.71846485102359       -0.25938606522787        0.96890490472911
C            7.30747795983461        0.78188635194080       -0.73692908993085
C            8.32136724944809        1.35130466638092       -1.49108876933932
C            8.11213587581764        2.50924937714668       -2.21600541145530
C            6.85520823115974        3.09415716160178       -2.20718417974270
C            5.83508689981958        2.54451290549126       -1.46149595535569
C            6.04871433149771        1.39395963132029       -0.69101199696087
C            3.60831260642053        2.77728409222208        0.66011510522322
C            2.38532690013100        3.39832899494058        0.63908971611773
H           -0.60389783838129        0.97876931850095        1.01341895973639
H           -2.79621356952735       -0.11551431792268        0.95053457171361
H           -3.26383367035636       -0.13565888096198       -1.75272158646882
H           -3.52436410144082       -2.15995410056249       -3.09511448848301
H           -5.62884394483109       -3.46365970500285       -2.98863571001005
H           -7.47395513700322       -2.66675629283956       -1.56349156204405
H           -7.53865229417170        1.29546500874704       -1.88906433879406
H           -9.21381471228659        1.90987425347333       -3.57144804692691
H          -11.38826653157375        0.71842573088012       -3.63541405561450
H          -11.83614222698524       -1.07356416453798       -1.99469721605661
H          -10.08109753891961       -3.86740795527814        2.20438230719523
H           -8.26074222143692       -4.26402140426435        3.82691094006703
H           -6.16880446136963       -2.94259242850219        3.65360679650556
H           -5.93594050221001       -1.25906007564562        1.88808739159546
H           -9.29065947443069        0.81973183284823        1.53014010689778
H           -8.91613012158096        2.85004866147572        2.87697629911047
H           -6.66788962405434        3.89268057143724        2.90335241091493
H           -4.86118334017864        2.95227599915650        1.56131266724677
H           -4.46660228991582        3.29239393459051       -1.01897092952091
H           -2.25978394715255        4.41329623614830       -0.93310884135467
H            0.60155123453534        1.01029442913100       -0.99287488285650
H            2.79430698585301       -0.08454418678057       -0.96315516084084
H            3.26056988579123       -0.18836077239751        1.73837884133180
H            3.52089309434509       -2.25347180499126        3.01711456636793
H            5.62567138503227       -3.55285442639018        2.87096741090664
H            7.47126079579940       -2.71155663347039        1.47224694991459
H            5.93542877886015       -1.19501629959236       -1.93608797646537
H            6.16922780023727       -2.82259616798924       -3.75317971767458
H            8.26034168685450       -4.13968721785310       -3.96517818448668
H           10.07889566163920       -3.79567429616562       -2.32868056029004
H           11.83184859652855       -1.13435282196478        1.95639856985496
H           11.38416184174599        0.60725837946646        3.65055169917309
H            9.21067364613124        1.80182294452791        3.62132979595629
H            7.53629077575787        1.24025886267820        1.91980092650184
H            9.28880623180843        0.87033147322179       -1.50989507467895
H            8.91458060536718        2.94174824452969       -2.79274714197319
H            6.66608526711837        3.98415310908671       -2.78785787858143
H            4.85882123618332        3.00179987004517       -1.47698437538870
H            4.46251946844071        3.26120256482164        1.11195472099043
H            2.25529581955515        4.38337738259957        1.05999782027376

 projected vibrational frequencies (cm⁻¹)
eigval :       -0.00    -0.00     0.00     0.00     0.00     0.00
eigval :        4.41     5.12     6.04     6.24     7.80     9.61
eigval :       12.49    34.66    34.87    40.33    45.87    49.41
eigval :       52.22    59.48    60.22    65.07    72.03    73.49
eigval :       92.42   104.53   106.50   108.16   121.62   124.52
eigval :      124.58   130.33   151.79   152.73   155.54   156.39
eigval :      165.02   184.28   200.14   213.02   225.89   226.25
eigval :      238.68   240.37   251.08   251.74   267.29   273.19
eigval :      274.08   280.49   282.91   291.81   313.17   327.82
eigval :      340.38   347.27   349.68   350.42   375.67   381.38
eigval :      386.66   392.02   392.90   396.74   398.82   401.94
eigval :      417.66   419.46   421.04   421.19   421.91   421.97
eigval :      422.10   429.23   444.47   444.70   459.68   462.77
eigval :      474.32   480.33   481.83   482.05   483.88   485.10
eigval :      492.88   495.78   518.82   520.27   523.10   523.11
eigval :      543.48   558.53   588.73   590.54   595.31   596.67
eigval :      596.68   601.11   601.66   608.16   609.41   615.61
eigval :      624.74   641.62   647.86   661.66   662.88   662.92
eigval :      669.49   671.83   671.94   677.54   684.65   685.70
eigval :      694.52   695.50   695.93   714.80   714.82   716.57
eigval :      729.10   755.81   771.86   771.97   772.71   772.79
eigval :      773.36   773.38   781.57   781.65   799.56   812.18
eigval :      846.72   861.07   868.43   869.20   870.20   870.42
eigval :      875.71   875.76   876.49   876.54   878.19   894.73
eigval :      895.39   895.45   897.38   903.25   905.47   906.53
eigval :      908.94   910.11   911.04   912.00   912.06   912.60
eigval :      912.65   913.50   914.24   918.77   918.77   922.79
eigval :      922.97   923.72   923.72   924.13   924.13   924.52
eigval :      924.53   931.61   939.17   943.01   943.04  1001.08
eigval :     1008.43  1042.22  1042.31  1050.31  1050.32  1099.49
eigval :     1099.53  1101.54  1101.55  1102.81  1103.83  1105.22
eigval :     1105.24  1123.31  1123.41  1126.27  1126.41  1128.29
eigval :     1131.32  1150.58  1150.59  1158.47  1160.14  1160.57
eigval :     1166.87  1179.80  1179.83  1180.07  1180.32  1181.30
eigval :     1181.43  1182.51  1182.51  1187.81  1189.11  1190.90
eigval :     1197.44  1205.07  1220.45  1228.15  1228.29  1229.14
eigval :     1231.31  1231.45  1246.43  1255.67  1256.38  1256.71
eigval :     1259.11  1259.77  1259.92  1260.54  1262.73  1268.93
eigval :     1269.23  1307.21  1309.18  1310.92  1311.16  1324.45
eigval :     1324.46  1326.46  1327.98  1328.01  1329.39  1331.12
eigval :     1332.25  1335.87  1335.87  1402.58  1402.59  1407.44
eigval :     1407.84  1412.60  1412.62  1424.47  1425.29  1427.62
eigval :     1431.54  1435.42  1442.28  1455.90  1458.22  1458.24
eigval :     1462.29  1462.30  1465.71  1465.77  1476.13  1478.26
eigval :     1488.04  1491.59  1542.93  1558.90  1558.91  1568.38
eigval :     1568.39  1570.46  1570.80  1580.27  1580.27  1580.61
eigval :     1580.73  1583.48  1586.80  1586.80  1591.52  1591.57
eigval :     1594.13  1594.73  3067.34  3067.87  3074.16  3074.17
eigval :     3078.66  3078.68  3079.88  3079.88  3080.28  3080.32
eigval :     3081.83  3081.88  3085.21  3085.21  3085.58  3085.60
eigval :     3087.26  3087.27  3088.51  3089.57  3089.57  3090.39
eigval :     3092.69  3092.70  3093.14  3093.16  3101.22  3101.27
eigval :     3101.42  3101.53  3101.67  3101.69  3101.72  3101.83
eigval :     3102.34  3102.54  3108.73  3108.94  3112.85  3112.86

   temp. (K)  partition function   enthalpy   heat capacity  entropy
                                   cal/mol     cal/K/mol   cal/K/mol   J/K/mol
 298.15  VIB  0.657E+28            32356.391    203.125    206.052
         ROT  0.153E+09              888.752      2.981     40.431
         INT  0.100E+37            33245.143    206.106    246.483
         TR   0.263E+29             1481.254      4.968     46.263
         TOT                       34726.3970   211.0743   292.7467  1224.8522

       T/K    H(0)-H(T)+PV         H(T)/Eh          T*S/Eh         G(T)/Eh
   ------------------------------------------------------------------------
    298.15    0.553400E-01    0.868886E+00    0.139093E+00    0.729793E+00
   ------------------------------------------------------------------------

         :::::::::::::::::::::::::::::::::::::::::::::::::::::
         ::                  THERMODYNAMIC                  ::
         :::::::::::::::::::::::::::::::::::::::::::::::::::::
         :: total free energy        -170.956370964273 Eh   ::
         ::.................................................::
         :: total energy             -171.686163796233 Eh   ::
         :: zero point energy           0.813546202876 Eh   ::
         :: G(RRHO) w/o ZPVE           -0.083753370915 Eh   ::
         :: G(RRHO) contrib.            0.729792831961 Eh   ::
         :::::::::::::::::::::::::::::::::::::::::::::::::::::

           -------------------------------------------------
          | TOTAL ENERGY             -171.686163796233 Eh   |
          | TOTAL ENTHALPY           -170.817277557217 Eh   |
          | TOTAL FREE ENERGY        -170.956370964273 Eh   |
          | GRADIENT NORM               0.000152513725 Eh/α |
           -------------------------------------------------

 * finished run on 2025/07/18 at 18:27:59.672
