   * xtb version 6.7.1 (edcfbbe) compiled by 'albert@albert-system' on 2024-07-22

   ID    Z sym.   atoms
    1   35 Br     1
    2    6 C      2-6, 8-16, 18-33, 35-49
    3    7 N      7, 17, 34
    4    1 H      50-81

          program call               : xtb data2507/toluene/TPA-PyI/TPA-PyI_toluene_S0_crest.xyz --gfn 2 --gbsa toluene --ohess vtight --parallel 40 --molden --ceasefiles --namespace data2507/toluene/TPA-PyI/TPA-PyI_toluene_S0_finalOpt
      * Solvation model:               GBSA
        Solvent                        toluene
        Solvent mass                       9.2140E+01 g/mol
          :  Hamiltonian                  GFN2-xTB          :
 * total energy  :  -125.6064629 Eh     change       -0.3577526E-08 Eh
 * total energy  :  -125.6065118 Eh     change       -0.4886380E-04 Eh
 * total energy  :  -125.6065380 Eh     change       -0.2621159E-04 Eh
 * total energy  :  -125.6065485 Eh     change       -0.1050802E-04 Eh
 * total energy  :  -125.6065589 Eh     change       -0.1042823E-04 Eh
 * total energy  :  -125.6065651 Eh     change       -0.6158183E-05 Eh
 * total energy  :  -125.6065687 Eh     change       -0.3597301E-05 Eh
 * total energy  :  -125.6065712 Eh     change       -0.2500822E-05 Eh
 * total energy  :  -125.6065730 Eh     change       -0.1784388E-05 Eh
 * total energy  :  -125.6065746 Eh     change       -0.1635529E-05 Eh
 * total energy  :  -125.6066029 Eh     change       -0.1214590E-05 Eh
 * total energy  :  -125.6066041 Eh     change       -0.1194706E-05 Eh
 * total energy  :  -125.6066053 Eh     change       -0.1194226E-05 Eh
 * total energy  :  -125.6066065 Eh     change       -0.1234164E-05 Eh
 * total energy  :  -125.6066078 Eh     change       -0.1309431E-05 Eh
 * total energy  :  -125.6066093 Eh     change       -0.1437816E-05 Eh
 * total energy  :  -125.6066108 Eh     change       -0.1530665E-05 Eh
 * total energy  :  -125.6066123 Eh     change       -0.1472876E-05 Eh
 * total energy  :  -125.6066123 Eh     change       -0.4411149E-08 Eh
   *** GEOMETRY OPTIMIZATION CONVERGED AFTER 44 ITERATIONS ***

 final structure:
================
81
 xtb: 6.7.1 (edcfbbe)
Br          -4.74608574099833        4.53158455492453       -0.61623379119666
C           -3.77697430039833        3.18337216224708        0.33363164981456
C           -2.97242581671538        3.54363099086033        1.40089497042278
C           -2.28802260892373        2.55211504881515        2.08498152732577
C           -2.41567926891884        1.22470919610094        1.71873675792665
C           -3.22556877644200        0.87989641088024        0.63992134898906
N           -3.38506993211397       -0.46605340965529        0.27501878783315
C           -2.40648098173964       -1.40403733280740        0.04806251468907
C           -0.97627212313765       -1.15157337968054        0.03780555018030
C           -0.11637422082285       -2.18430470819008        0.41589984782673
C            1.24962726752413       -2.00259702451491        0.39942997416939
C            1.80525869031245       -0.78434449840106        0.00551015758001
C            3.25948622468466       -0.58963207280273       -0.00804025228774
C            4.11311619243801       -1.60494686208003       -0.43971509640951
C            5.47929313397733       -1.42442621967053       -0.46515492873401
C            6.04460224896899       -0.22118037698038       -0.03784542133946
N            7.42875123809506       -0.04030836908311       -0.05147308935401
C            7.97490194742622        1.21564443426458       -0.34770369841525
C            7.39490249117294        2.03074409311240       -1.31985059836629
C            7.93730842464634        3.26934559098744       -1.60419493723499
C            9.06752930944343        3.71158966146231       -0.93549818675232
C            9.65149476934081        2.90309432503853        0.02650713049818
C            9.11105719993753        1.66678534947820        0.32422130692143
C            8.28083487428140       -1.11947428921210        0.22190335279638
C            9.46866540436880       -1.27989603806325       -0.49122665622250
C           10.30722181903563       -2.34335240968673       -0.21696788012684
C            9.97441339422026       -3.26560695802565        0.76216933445374
C            8.79468650885431       -3.11164035353734        1.47257972207197
C            7.95412085371902       -2.04657593164872        1.21153808154029
C            5.19515296043453        0.79531214963093        0.40364058687480
C            3.82847518230634        0.61416345863736        0.40745450145962
C            0.94276084913895        0.23827660656033       -0.38885336263211
C           -0.42541958725409        0.05864566941420       -0.38261747778700
N           -2.93260616713910       -2.57389616676480       -0.21321726472922
C           -4.28758442973572       -2.42828545726414       -0.16608515198920
C           -5.16417218552442       -3.57105250130255       -0.37832762286845
C           -6.44187149656815       -3.63433725358541        0.17509479289043
C           -7.24293349951266       -4.73928799717175       -0.04587084890024
C           -6.78139167524865       -5.79753792680410       -0.81201399421513
C           -5.50527378677952       -5.75026250350747       -1.35056395808160
C           -4.70130089891311       -4.64773429455129       -1.13454841500787
C           -4.59737066975466       -1.11241094294225        0.12772887179108
C           -5.87843567234790       -0.42812695276154        0.26466478736722
C           -6.83135966498204       -0.53174062610988       -0.74834421589235
C           -8.03974211101312        0.12999681901675       -0.63967679640117
C           -8.31326784568083        0.90430229208811        0.47700576416359
C           -7.37568781066041        1.00502651498425        1.49149259909275
C           -6.16485987073884        0.34470735189443        1.38879172665302
C           -3.90759892891300        1.86653840652750       -0.06545376684564
H           -2.88447811772204        4.57825758476253        1.69222442753289
H           -1.65851845214950        2.81899725411497        2.91936431008665
H           -1.89357180639415        0.45121853011644        2.26089298551945
H           -0.54606545109437       -3.12544013574994        0.72343456169067
H            1.89778477529172       -2.80673426298924        0.71491757441756
H            3.69654648766213       -2.53657890441013       -0.79351602341345
H            6.12193617241857       -2.21547305283953       -0.82325732856100
H            6.52037397556361        1.68406006187724       -1.85112192627081
H            7.47873881448236        3.88971826540887       -2.36066976964591
H            9.49021981505737        4.67879505440666       -1.16269207416556
H           10.53074441084627        3.24066432080134        0.55590604235545
H            9.56395785562961        1.04199481687619        1.08042448779608
H            9.72613592977965       -0.56753162930598       -1.26164201859996
H           11.22289922767138       -2.45738160932312       -0.77891328793946
H           10.63018805530875       -4.09754655838142        0.97088424455850
H            8.53004903879031       -3.82175520631996        2.24264457143084
H            7.03935532440223       -1.92375252176651        1.77312079072221
H            5.61784941330040        1.72743947012960        0.74939980488110
H            3.19162567848109        1.40780718971306        0.77003360941049
H            1.35176681601617        1.17669093067822       -0.73356344487969
H           -1.06553685524383        0.85627467175312       -0.73048884276313
H           -6.80336451342241       -2.82199944031833        0.78816690554806
H           -8.23234748876113       -4.77660925878771        0.38741459573156
H           -7.41150097033997       -6.65836037050510       -0.98272146963896
H           -5.13683075105659       -6.57644060540184       -1.94179212054802
H           -3.70396019123297       -4.59838297889794       -1.54484901879379
H           -6.61201183974244       -1.13297859842805       -1.61907306506013
H           -8.76862556823368        0.04610882057270       -1.43237707192415
H           -9.25560956562981        1.42537686249433        0.55718512423013
H           -7.58684728073435        1.60081752104453        2.36760836657598
H           -5.44156682438314        0.41628781932600        2.18913815924371
H           -4.52967732701148        1.60347566073271       -0.90687758267369

          :  Hamiltonian                  GFN2-xTB          :
         :: gradient norm              0.000052769195 Eh/a0 ::
         :: HOMO-LUMO gap              2.202614953176 eV    ::
         :: SCC energy              -127.901813984582 Eh    ::
         :: -> dispersion             -0.114597842512 Eh    ::
         :: -> Gsolv                  -0.054755930377 Eh    ::
         :: repulsion energy           2.295201692564 Eh    ::

    * Orbital Energies and Occupations

         #    Occupation            Energy/Eh            Energy/eV
      -------------------------------------------------------------
         1        2.0000           -0.8462320             -23.0271
       ...           ...                  ...                  ...
       105        2.0000           -0.4124063             -11.2221
       106        2.0000           -0.4115307             -11.1983
       107        2.0000           -0.4089769             -11.1288
       108        2.0000           -0.4087890             -11.1237
       109        2.0000           -0.4080352             -11.1032
       110        2.0000           -0.4054275             -11.0322
       111        2.0000           -0.4049440             -11.0191
       112        2.0000           -0.4039298             -10.9915
       113        2.0000           -0.4016992             -10.9308
       114        2.0000           -0.3938635             -10.7176
       115        2.0000           -0.3827617             -10.4155
       116        2.0000           -0.3674213              -9.9980
       117        2.0000           -0.3493041              -9.5050 (HOMO)
       118                         -0.2683595              -7.3024 (LUMO)
       119                         -0.2588891              -7.0447
       120                         -0.2539499              -6.9103
       121                         -0.2479572              -6.7473
       122                         -0.2315640              -6.3012
       123                         -0.2310030              -6.2859
       124                         -0.2281233              -6.2076
       125                         -0.2279052              -6.2016
       126                         -0.2274505              -6.1892
       127                         -0.2223772              -6.0512
       128                         -0.2222309              -6.0472
       ...                                ...                  ...
       233                          0.7017453              19.0955
      -------------------------------------------------------------
                  HL-Gap            0.0809446 Eh            2.2026 eV

     #   Z          covCN         q      C6AA      α(0)
     1  35 Br       1.063    -0.179   190.000    22.225
     2   6 C        2.917     0.087    26.056     8.371
     3   6 C        2.984    -0.034    28.848     8.810
     4   6 C        2.923    -0.022    28.559     8.764
     5   6 C        2.920    -0.039    28.974     8.827
     6   6 C        2.915     0.072    26.400     8.425
     7   7 N        2.850    -0.044    22.097     6.982
     8   6 C        3.149     0.129    24.931     8.167
     9   6 C        2.974    -0.005    28.154     8.703
    10   6 C        2.925    -0.030    28.756     8.794
    11   6 C        2.923    -0.034    28.842     8.807
    12   6 C        2.975     0.013    27.726     8.637
    13   6 C        2.975    -0.000    28.026     8.684
    14   6 C        2.924    -0.034    28.854     8.809
    15   6 C        2.920    -0.049    29.220     8.864
    16   6 C        2.923     0.065    26.548     8.450
    17   7 N        2.752    -0.078    22.746     7.083
    18   6 C        2.923     0.065    26.537     8.448
    19   6 C        2.922    -0.048    29.186     8.859
    20   6 C        2.919    -0.030    28.754     8.793
    21   6 C        2.919    -0.039    28.969     8.826
    22   6 C        2.919    -0.030    28.751     8.793
    23   6 C        2.922    -0.048    29.183     8.859
    24   6 C        2.924     0.065    26.538     8.448
    25   6 C        2.922    -0.047    29.177     8.858
    26   6 C        2.919    -0.030    28.750     8.793
    27   6 C        2.919    -0.039    28.963     8.825
    28   6 C        2.919    -0.030    28.751     8.793
    29   6 C        2.922    -0.047    29.179     8.858
    30   6 C        2.920    -0.049    29.228     8.866
    31   6 C        2.924    -0.035    28.862     8.810
    32   6 C        2.924    -0.035    28.883     8.813
    33   6 C        2.920    -0.037    28.910     8.817
    34   7 N        1.913    -0.310    28.882     7.968
    35   6 C        3.160     0.055    26.455     8.408
    36   6 C        2.973     0.006    27.887     8.662
    37   6 C        2.923    -0.039    28.964     8.826
    38   6 C        2.919    -0.031    28.776     8.797
    39   6 C        2.919    -0.033    28.817     8.803
    40   6 C        2.918    -0.031    28.767     8.795
    41   6 C        2.927    -0.031    28.779     8.798
    42   6 C        3.065     0.015    27.608     8.616
    43   6 C        2.971     0.005    27.900     8.664
    44   6 C        2.925    -0.032    28.805     8.802
    45   6 C        2.918    -0.027    28.680     8.782
    46   6 C        2.920    -0.029    28.729     8.790
    47   6 C        2.918    -0.029    28.714     8.787
    48   6 C        2.923    -0.035    28.867     8.811
    49   6 C        2.996    -0.043    29.065     8.844
    50   1 H        0.926     0.068     2.110     2.272
    51   1 H        0.926     0.065     2.138     2.287
    52   1 H        0.926     0.054     2.272     2.357
    53   1 H        0.926     0.045     2.377     2.411
    54   1 H        0.926     0.041     2.431     2.438
    55   1 H        0.926     0.037     2.494     2.470
    56   1 H        0.926     0.033     2.542     2.493
    57   1 H        0.926     0.032     2.557     2.500
    58   1 H        0.926     0.033     2.538     2.491
    59   1 H        0.926     0.032     2.557     2.501
    60   1 H        0.926     0.033     2.537     2.491
    61   1 H        0.926     0.032     2.563     2.504
    62   1 H        0.926     0.032     2.564     2.504
    63   1 H        0.926     0.034     2.536     2.490
    64   1 H        0.926     0.032     2.554     2.499
    65   1 H        0.926     0.034     2.531     2.488
    66   1 H        0.926     0.033     2.550     2.497
    67   1 H        0.926     0.033     2.540     2.492
    68   1 H        0.926     0.036     2.503     2.474
    69   1 H        0.926     0.038     2.474     2.460
    70   1 H        0.926     0.024     2.680     2.560
    71   1 H        0.926     0.025     2.663     2.552
    72   1 H        0.926     0.031     2.579     2.511
    73   1 H        0.926     0.032     2.557     2.501
    74   1 H        0.926     0.033     2.549     2.497
    75   1 H        0.926     0.044     2.400     2.423
    76   1 H        0.926     0.031     2.574     2.509
    77   1 H        0.926     0.037     2.483     2.464
    78   1 H        0.926     0.038     2.482     2.464
    79   1 H        0.926     0.035     2.516     2.481
    80   1 H        0.926     0.024     2.677     2.559
    81   1 H        0.926     0.057     2.229     2.335

molecular dipole:
                 x           y           z       tot (Debye)
 q only:        1.054       0.391       0.809
   full:        1.003       0.422       1.040       3.824

 projected vibrational frequencies (cm⁻¹)
eigval :       -0.00    -0.00    -0.00     0.00     0.00     0.00
eigval :        6.91    10.76    11.95    17.87    23.18    28.58
eigval :       32.49    34.32    38.92    47.95    53.62    54.58
eigval :       65.67    69.25    71.58    82.51    87.57    97.50
eigval :      103.29   123.57   129.12   138.61   166.73   176.05
eigval :      187.50   205.55   229.52   231.12   241.32   243.50
eigval :      248.67   266.22   269.03   280.89   303.59   312.92
eigval :      320.52   345.06   366.69   371.27   372.62   375.62
eigval :      378.00   380.81   385.67   387.81   403.32   410.02
eigval :      419.11   432.49   464.64   475.81   486.10   488.40
eigval :      496.66   514.28   516.60   538.64   544.95   583.82
eigval :      585.67   586.97   587.86   593.38   601.01   609.80
eigval :      615.50   616.10   628.89   651.61   653.93   658.39
eigval :      659.38   664.18   668.07   674.87   681.03   686.06
eigval :      689.34   705.03   724.40   743.64   754.31   757.36
eigval :      761.98   764.28   784.91   798.22   802.25   826.65
eigval :      863.18   866.76   872.53   873.14   875.22   877.63
eigval :      878.37   889.04   891.40   894.08   900.71   901.85
eigval :      908.71   909.75   914.76   916.57   920.02   922.54
eigval :      925.81   927.08   927.89   929.38   929.70   929.85
eigval :      930.72   931.63   933.22   941.21   947.70   971.07
eigval :      978.56   988.74  1004.08  1011.27  1019.67  1035.89
eigval :     1080.13  1080.71  1082.14  1082.20  1083.15  1097.27
eigval :     1108.39  1117.64  1118.77  1120.22  1122.50  1123.23
eigval :     1138.42  1146.88  1163.27  1179.02  1179.10  1179.56
eigval :     1179.82  1179.93  1184.91  1193.99  1194.31  1194.96
eigval :     1198.94  1201.86  1211.82  1215.56  1250.98  1267.90
eigval :     1271.01  1273.90  1277.22  1278.44  1280.77  1283.24
eigval :     1292.36  1307.59  1310.82  1313.36  1314.28  1317.69
eigval :     1318.87  1322.57  1324.29  1324.95  1335.19  1355.51
eigval :     1387.29  1397.61  1413.50  1416.15  1427.21  1432.46
eigval :     1434.15  1440.38  1450.39  1459.85  1466.86  1469.77
eigval :     1472.60  1485.98  1497.34  1533.99  1551.32  1556.90
eigval :     1561.45  1564.17  1575.65  1577.11  1579.30  1580.21
eigval :     1581.37  1584.47  1591.11  1595.63  1596.29  1598.38
eigval :     1602.93  3066.68  3068.02  3070.75  3071.04  3071.86
eigval :     3072.05  3072.70  3073.66  3074.01  3075.74  3077.27
eigval :     3078.62  3081.50  3081.61  3082.30  3082.94  3083.54
eigval :     3083.95  3084.77  3086.32  3087.29  3089.44  3090.03
eigval :     3093.16  3093.93  3094.12  3094.96  3096.93  3099.24
eigval :     3103.48  3105.48  3112.31

   temp. (K)  partition function   enthalpy   heat capacity  entropy
                                   cal/mol     cal/K/mol   cal/K/mol   J/K/mol
 298.15  VIB  0.247E+21            23960.503    145.778    152.612
         ROT  0.162E+09              888.752      2.981     40.543
         INT  0.399E+29            24849.256    148.759    193.155
         TR   0.177E+29             1481.254      4.968     45.475
         TOT                       26330.5098   153.7267   238.6298   998.4269

       T/K    H(0)-H(T)+PV         H(T)/Eh          T*S/Eh         G(T)/Eh
   ------------------------------------------------------------------------
    298.15    0.419603E-01    0.663415E+00    0.113381E+00    0.550035E+00
   ------------------------------------------------------------------------

         :::::::::::::::::::::::::::::::::::::::::::::::::::::
         ::                  THERMODYNAMIC                  ::
         :::::::::::::::::::::::::::::::::::::::::::::::::::::
         :: total free energy        -125.056577513725 Eh   ::
         ::.................................................::
         :: total energy             -125.606612289622 Eh   ::
         :: zero point energy           0.621455135278 Eh   ::
         :: G(RRHO) w/o ZPVE           -0.071420359381 Eh   ::
         :: G(RRHO) contrib.            0.550034775897 Eh   ::
         :::::::::::::::::::::::::::::::::::::::::::::::::::::

           -------------------------------------------------
          | TOTAL ENERGY             -125.606612289622 Eh   |
          | TOTAL ENTHALPY           -124.943196816159 Eh   |
          | TOTAL FREE ENERGY        -125.056577513725 Eh   |
          | GRADIENT NORM               0.000052771140 Eh/α |
          | HOMO-LUMO GAP               2.202614596589 eV   |
           -------------------------------------------------

 * finished run on 2025/08/22 at 04:55:45.885
