   * xtb version 6.7.1 (edcfbbe) compiled by 'albert@albert-system' on 2024-07-22

   ID    Z sym.   atoms
    1   35 Br     1
    2    6 C      2-6, 8-16, 18-33, 35-49
    3    7 N      7, 17, 34
    4    1 H      50-81

          program call               : xtb data2507/toluene/TPA-PyI/TPA-PyI.xyz --gfn 2 --gbsa toluene --ohess vtight --parallel 40 --molden --ceasefiles --namespace data2507/toluene/TPA-PyI/TPA-PyI_toluene_S0_preOpt
      * Solvation model:               GBSA
        Solvent                        toluene
        Solvent mass                       9.2140E+01 g/mol
          :  Hamiltonian                  GFN2-xTB          :
 * total energy  :  -125.5801853 Eh     change       -0.2204928E-08 Eh
 * total energy  :  -125.5924047 Eh     change       -0.1221933E-01 Eh
 * total energy  :  -125.5964552 Eh     change       -0.4050491E-02 Eh
 * total energy  :  -125.5978554 Eh     change       -0.1400182E-02 Eh
 * total energy  :  -125.5987981 Eh     change       -0.9427786E-03 Eh
 * total energy  :  -125.5992684 Eh     change       -0.4703179E-03 Eh
 * total energy  :  -125.5995552 Eh     change       -0.2867781E-03 Eh
 * total energy  :  -125.5997933 Eh     change       -0.2380660E-03 Eh
 * total energy  :  -125.6000342 Eh     change       -0.2408591E-03 Eh
 * total energy  :  -125.6002769 Eh     change       -0.2427044E-03 Eh
 * total energy  :  -125.6062941 Eh     change       -0.5602030E-06 Eh
 * total energy  :  -125.6062945 Eh     change       -0.4119439E-06 Eh
 * total energy  :  -125.6062948 Eh     change       -0.3282544E-06 Eh
 * total energy  :  -125.6062951 Eh     change       -0.2925739E-06 Eh
 * total energy  :  -125.6062954 Eh     change       -0.3204573E-06 Eh
 * total energy  :  -125.6062958 Eh     change       -0.3698153E-06 Eh
 * total energy  :  -125.6062963 Eh     change       -0.4639099E-06 Eh
 * total energy  :  -125.6062968 Eh     change       -0.4944805E-06 Eh
 * total energy  :  -125.6062968 Eh     change       -0.5478583E-08 Eh
   *** GEOMETRY OPTIMIZATION CONVERGED AFTER 122 ITERATIONS ***

 final structure:
================
81
 xtb: 6.7.1 (edcfbbe)
Br          -1.22841891788704        3.17455291576689       -3.56200928243887
C           -2.45746419082081        3.02498091063554       -2.10399216472695
C           -2.96757405694916        4.17283623193356       -1.52072945739484
C           -3.85337132452180        4.04731545586682       -0.46378639913769
C           -4.21710139540327        2.79889625390073        0.00875110995467
C           -3.69682717052156        1.65562412093041       -0.59008332325326
N           -4.05046334265588        0.37963522857047       -0.12536644852211
C           -3.19848471677699       -0.64728020444513        0.20326215366003
C           -1.74780280443061       -0.55110100922094        0.21026951219433
C           -0.99414353756195       -1.66270309218253       -0.16701602152902
C            0.38346652850739       -1.60413055723928       -0.17990189043639
C            1.05458224330603       -0.43982520091993        0.19609355789066
C            2.52027986858800       -0.37234308364316        0.17210824022121
C            3.24768850424807       -0.95259393666566       -0.86709056787785
C            4.62365422373310       -0.87675368679671       -0.90271303217072
C            5.32500189394705       -0.22904915202039        0.11618920514301
N            6.71873556300557       -0.15220910160999        0.08553423237515
C            7.37234382241397        0.99257012699128        0.55967838785255
C            6.83082059774374        2.25980814197418        0.34282026076269
C            7.47973572311862        3.38426772022393        0.81561778129337
C            8.67829122966210        3.26762840031340        1.50119692010347
C            9.22338007840299        2.01166903703252        1.71443838667524
C            8.57725709668048        0.88061590665396        1.25353797203144
C            7.46973279438479       -1.21935487357869       -0.42622629991079
C            8.60597894984418       -0.97792272152287       -1.19810100007208
C            9.34577068280236       -2.03332826165388       -1.69638363977457
C            8.96391638938121       -3.34076506212825       -1.44156683512454
C            7.83411141420897       -3.58590845833104       -0.67762370687843
C            7.09252385107075       -2.53718235788347       -0.16829316287092
C            4.60264100985880        0.34111664293988        1.16623021564587
C            3.22584424646408        0.27644627102961        1.18555771684216
C            0.29656979936289        0.65791394393563        0.60328650860086
C           -1.08208740741544        0.60614226116034        0.61348394996430
N           -3.86620424270438       -1.71685305811643        0.55113638643214
C           -5.19301868479907       -1.41088175636748        0.45945732701698
C           -6.20803925083124       -2.41467204330432        0.74610255513019
C           -5.90108188151829       -3.46261166203127        1.61374964702972
C           -6.84208102107390       -4.43215782768867        1.90268923874278
C           -8.10158962637970       -4.37386474697975        1.32749541064497
C           -8.40885445929291       -3.34608044832069        0.45046740525287
C           -7.47047860732018       -2.37445831685183        0.15635119847163
C           -5.33475128084153       -0.09762959870452        0.04708656251778
C           -6.51818296446931        0.72277457453205       -0.18413455395968
C           -6.67865189271984        1.43336611627362       -1.37246693165193
C           -7.79994448350149        2.21819596372230       -1.57055482595281
C           -8.77309001462111        2.30437919920704       -0.58882763445621
C           -8.62376214889967        1.59636138878886        0.59349003709854
C           -7.50511146649072        0.81099389332691        0.79740579692316
C           -2.81596134575856        1.76598430401315       -1.66236273346123
H           -2.67628485952290        5.14468904313452       -1.88636898281513
H           -4.25796875035616        4.93337410762884       -0.00020092584024
H           -4.89722345482246        2.70425085582242        0.84091594643292
H           -1.51217642449245       -2.56627616346209       -0.45114787433112
H            0.95115705444718       -2.47644702652023       -0.46825511987807
H            2.72430702102838       -1.43948838508387       -1.67686379646750
H            5.16808397991552       -1.31406143615668       -1.72691447044820
H            5.90231427805454        2.35504123526889       -0.20123217194625
H            7.05020169381512        4.35975279877385        0.63879299419557
H            9.18398084554360        4.14906273242479        1.86606154906067
H           10.15512835346418        1.91003073851108        2.25182804444747
H            9.00018338606005       -0.09796412098081        1.42897954215478
H            8.90159838922153        0.04071652842618       -1.40401007547675
H           10.22268848140514       -1.83277658250877       -2.29482362512552
H            9.54299283577528       -4.16259492017154       -1.83531653735748
H            7.53186474609085       -4.60207343993648       -0.46915492530194
H            6.21750666068629       -2.73016931213465        0.43538310986671
H            5.13255298026343        0.83144364192071        1.96991998914838
H            2.68845217323652        0.70778112711192        2.01738713462916
H            0.79463389403758        1.56931009692533        0.90005387270385
H           -1.64317310429175        1.46541147404804        0.95201523408147
H           -4.91483772782533       -3.49874594522227        2.05126644653083
H           -6.59376233163749       -5.23694480880754        2.57984556460082
H           -8.83858143885521       -5.13024950605339        1.55534313231533
H           -9.38466808479757       -3.30325233844729       -0.01212773498026
H           -7.71237110203325       -1.58722884692734       -0.54236069252336
H           -5.93017561846878        1.35773464633327       -2.14872298176039
H           -7.91448698710539        2.76146763608313       -2.49720514320494
H           -9.64702506385241        2.91909214250024       -0.74535717290726
H           -9.38061122286147        1.65877868829503        1.36160881332146
H           -7.38375643149449        0.25887164440593        1.71818665594690
H           -2.41832644513762        0.87904390330608       -2.13178556393557

          :  Hamiltonian                  GFN2-xTB          :
         :: gradient norm              0.000056271194 Eh/a0 ::
         :: HOMO-LUMO gap              2.215411432595 eV    ::
         :: SCC energy              -127.901622347183 Eh    ::
         :: -> dispersion             -0.114401002509 Eh    ::
         :: -> Gsolv                  -0.054879780175 Eh    ::
         :: repulsion energy           2.295325588805 Eh    ::

    * Orbital Energies and Occupations

         #    Occupation            Energy/Eh            Energy/eV
      -------------------------------------------------------------
         1        2.0000           -0.8460480             -23.0221
       ...           ...                  ...                  ...
       105        2.0000           -0.4121037             -11.2139
       106        2.0000           -0.4106150             -11.1734
       107        2.0000           -0.4091538             -11.1336
       108        2.0000           -0.4083470             -11.1117
       109        2.0000           -0.4074019             -11.0860
       110        2.0000           -0.4049614             -11.0196
       111        2.0000           -0.4043754             -11.0036
       112        2.0000           -0.4038738             -10.9900
       113        2.0000           -0.4017663             -10.9326
       114        2.0000           -0.3936037             -10.7105
       115        2.0000           -0.3828991             -10.4192
       116        2.0000           -0.3675665             -10.0020
       117        2.0000           -0.3487802              -9.4908 (HOMO)
       118                         -0.2673652              -7.2754 (LUMO)
       119                         -0.2589116              -7.0453
       120                         -0.2542383              -6.9182
       121                         -0.2480919              -6.7509
       122                         -0.2317401              -6.3060
       123                         -0.2303330              -6.2677
       124                         -0.2282091              -6.2099
       125                         -0.2273479              -6.1865
       126                         -0.2272499              -6.1838
       127                         -0.2217987              -6.0354
       128                         -0.2216968              -6.0327
       ...                                ...                  ...
       233                          0.7011751              19.0799
      -------------------------------------------------------------
                  HL-Gap            0.0814150 Eh            2.2154 eV

     #   Z          covCN         q      C6AA      α(0)
     1  35 Br       1.063    -0.178   189.982    22.224
     2   6 C        2.917     0.088    26.041     8.368
     3   6 C        2.985    -0.034    28.847     8.810
     4   6 C        2.923    -0.022    28.565     8.765
     5   6 C        2.920    -0.039    28.975     8.827
     6   6 C        2.916     0.072    26.399     8.425
     7   7 N        2.851    -0.044    22.097     6.982
     8   6 C        3.152     0.130    24.904     8.162
     9   6 C        2.973    -0.005    28.155     8.704
    10   6 C        2.924    -0.030    28.752     8.793
    11   6 C        2.923    -0.034    28.835     8.806
    12   6 C        2.975     0.013    27.715     8.636
    13   6 C        2.975     0.000    28.020     8.683
    14   6 C        2.924    -0.034    28.845     8.808
    15   6 C        2.920    -0.049    29.213     8.863
    16   6 C        2.923     0.065    26.542     8.449
    17   7 N        2.752    -0.078    22.748     7.084
    18   6 C        2.924     0.065    26.536     8.448
    19   6 C        2.922    -0.048    29.188     8.860
    20   6 C        2.919    -0.030    28.754     8.793
    21   6 C        2.919    -0.039    28.973     8.827
    22   6 C        2.919    -0.030    28.753     8.793
    23   6 C        2.922    -0.048    29.187     8.860
    24   6 C        2.924     0.065    26.537     8.448
    25   6 C        2.922    -0.047    29.176     8.858
    26   6 C        2.919    -0.030    28.750     8.793
    27   6 C        2.919    -0.039    28.964     8.825
    28   6 C        2.919    -0.030    28.750     8.793
    29   6 C        2.922    -0.047    29.179     8.858
    30   6 C        2.920    -0.049    29.218     8.864
    31   6 C        2.924    -0.034    28.854     8.809
    32   6 C        2.924    -0.035    28.869     8.811
    33   6 C        2.920    -0.036    28.906     8.817
    34   7 N        1.911    -0.311    28.899     7.970
    35   6 C        3.163     0.055    26.443     8.405
    36   6 C        2.973     0.006    27.882     8.661
    37   6 C        2.927    -0.031    28.778     8.797
    38   6 C        2.918    -0.031    28.767     8.795
    39   6 C        2.919    -0.033    28.818     8.803
    40   6 C        2.919    -0.031    28.776     8.797
    41   6 C        2.923    -0.039    28.963     8.826
    42   6 C        3.063     0.015    27.616     8.617
    43   6 C        2.971     0.006    27.894     8.663
    44   6 C        2.924    -0.034    28.857     8.809
    45   6 C        2.918    -0.029    28.727     8.789
    46   6 C        2.920    -0.030    28.749     8.793
    47   6 C        2.918    -0.028    28.693     8.784
    48   6 C        2.925    -0.033    28.811     8.802
    49   6 C        2.996    -0.044    29.070     8.844
    50   1 H        0.926     0.068     2.108     2.271
    51   1 H        0.926     0.065     2.143     2.289
    52   1 H        0.926     0.055     2.256     2.349
    53   1 H        0.926     0.043     2.404     2.424
    54   1 H        0.926     0.041     2.432     2.439
    55   1 H        0.926     0.036     2.496     2.471
    56   1 H        0.926     0.034     2.537     2.491
    57   1 H        0.926     0.032     2.558     2.501
    58   1 H        0.926     0.033     2.538     2.491
    59   1 H        0.926     0.032     2.558     2.501
    60   1 H        0.926     0.033     2.538     2.491
    61   1 H        0.926     0.032     2.564     2.504
    62   1 H        0.926     0.032     2.561     2.502
    63   1 H        0.926     0.034     2.534     2.489
    64   1 H        0.926     0.032     2.553     2.499
    65   1 H        0.926     0.034     2.532     2.488
    66   1 H        0.926     0.032     2.555     2.499
    67   1 H        0.926     0.033     2.539     2.492
    68   1 H        0.926     0.035     2.509     2.477
    69   1 H        0.926     0.038     2.478     2.462
    70   1 H        0.926     0.024     2.680     2.560
    71   1 H        0.926     0.043     2.406     2.426
    72   1 H        0.926     0.033     2.550     2.497
    73   1 H        0.926     0.032     2.557     2.501
    74   1 H        0.926     0.031     2.577     2.510
    75   1 H        0.926     0.025     2.660     2.550
    76   1 H        0.926     0.023     2.687     2.563
    77   1 H        0.926     0.036     2.507     2.476
    78   1 H        0.926     0.038     2.478     2.462
    79   1 H        0.926     0.038     2.477     2.461
    80   1 H        0.926     0.032     2.563     2.504
    81   1 H        0.926     0.056     2.251     2.346

molecular dipole:
                 x           y           z       tot (Debye)
 q only:       -0.053       1.034       0.486
   full:       -0.405       1.282       0.651       3.797

 projected vibrational frequencies (cm⁻¹)
eigval :       -0.00    -0.00    -0.00     0.00     0.00     0.00
eigval :        7.47    10.00    14.04    20.78    22.33    31.56
eigval :       35.93    36.89    44.19    49.41    52.72    57.89
eigval :       63.68    69.95    79.23    83.79    85.22    96.50
eigval :      106.17   125.29   130.61   137.52   169.41   175.23
eigval :      187.49   205.26   223.00   230.44   237.24   247.22
eigval :      259.13   263.07   267.49   283.64   299.92   314.11
eigval :      321.86   348.28   366.53   371.56   373.83   375.58
eigval :      376.25   381.31   382.32   389.02   406.48   411.22
eigval :      419.56   434.32   461.11   477.55   482.60   491.90
eigval :      502.57   515.08   517.97   538.61   544.93   584.34
eigval :      585.82   586.65   587.58   593.77   599.97   611.44
eigval :      614.35   619.61   627.48   649.49   656.46   658.71
eigval :      659.53   664.39   665.86   676.65   680.17   688.48
eigval :      689.05   704.85   718.34   745.02   754.81   756.81
eigval :      763.10   765.98   786.12   800.95   806.08   830.41
eigval :      867.50   870.76   873.83   874.69   876.02   877.23
eigval :      879.27   887.63   889.81   890.50   901.72   902.77
eigval :      909.25   912.95   915.31   920.74   921.99   925.21
eigval :      925.86   927.21   927.97   928.53   928.67   928.85
eigval :      931.78   932.34   934.53   941.43   947.80   970.89
eigval :      978.60   988.88  1003.93  1010.97  1020.10  1035.74
eigval :     1079.59  1081.26  1081.77  1082.80  1083.14  1096.99
eigval :     1109.33  1118.88  1120.49  1121.02  1123.19  1124.96
eigval :     1136.92  1146.29  1163.88  1179.28  1179.40  1179.42
eigval :     1180.41  1180.59  1185.66  1193.64  1194.52  1195.69
eigval :     1200.24  1201.77  1210.80  1214.94  1251.94  1267.14
eigval :     1269.87  1273.53  1277.16  1278.34  1281.39  1282.52
eigval :     1291.88  1307.76  1311.18  1313.26  1314.61  1317.55
eigval :     1317.92  1321.95  1324.31  1324.63  1334.52  1356.52
eigval :     1384.88  1396.80  1414.92  1416.49  1427.11  1431.87
eigval :     1434.67  1440.94  1450.66  1460.35  1467.19  1469.89
eigval :     1472.70  1486.49  1497.59  1538.85  1551.61  1557.24
eigval :     1561.59  1563.74  1575.91  1577.09  1579.55  1579.92
eigval :     1581.57  1584.73  1591.17  1595.38  1596.42  1598.18
eigval :     1602.88  3066.53  3069.16  3070.40  3071.51  3071.80
eigval :     3071.96  3072.49  3072.79  3074.33  3075.03  3077.08
eigval :     3079.34  3081.21  3081.48  3081.84  3082.64  3084.04
eigval :     3084.46  3085.05  3085.69  3086.88  3088.62  3089.92
eigval :     3093.56  3093.94  3094.26  3095.88  3096.23  3096.62
eigval :     3101.78  3105.50  3112.58

   temp. (K)  partition function   enthalpy   heat capacity  entropy
                                   cal/mol     cal/K/mol   cal/K/mol   J/K/mol
 298.15  VIB  0.111E+21            23905.038    146.048    152.011
         ROT  0.144E+09              888.752      2.981     40.308
         INT  0.160E+29            24793.790    149.029    192.319
         TR   0.177E+29             1481.254      4.968     45.475
         TOT                       26275.0443   153.9968   237.7938   994.9294

       T/K    H(0)-H(T)+PV         H(T)/Eh          T*S/Eh         G(T)/Eh
   ------------------------------------------------------------------------
    298.15    0.418719E-01    0.663528E+00    0.112984E+00    0.550545E+00
   ------------------------------------------------------------------------

         :::::::::::::::::::::::::::::::::::::::::::::::::::::
         ::                  THERMODYNAMIC                  ::
         :::::::::::::::::::::::::::::::::::::::::::::::::::::
         :: total free energy        -125.055751927304 Eh   ::
         ::.................................................::
         :: total energy             -125.606296766124 Eh   ::
         :: zero point energy           0.621656414406 Eh   ::
         :: G(RRHO) w/o ZPVE           -0.071111575586 Eh   ::
         :: G(RRHO) contrib.            0.550544838820 Eh   ::
         :::::::::::::::::::::::::::::::::::::::::::::::::::::

           -------------------------------------------------
          | TOTAL ENERGY             -125.606296766124 Eh   |
          | TOTAL ENTHALPY           -124.942768403413 Eh   |
          | TOTAL FREE ENERGY        -125.055751927304 Eh   |
          | GRADIENT NORM               0.000056270667 Eh/α |
          | HOMO-LUMO GAP               2.215414485815 eV   |
           -------------------------------------------------

 * finished run on 2025/08/22 at 04:49:41.580
