   * xtb version 6.7.1 (edcfbbe) compiled by 'albert@albert-system' on 2024-07-22

   ID    Z sym.   atoms
    1   35 Br     1
    2    6 C      2-6, 8-16, 18-33, 35-49
    3    7 N      7, 17, 34
    4    1 H      50-81

          program call               : xtb data2507/toluene/TPA-PyI/TPA-PyI_toluene_T1_crest.xyz --gfn 2 --uhf 2 --gbsa toluene --ohess vtight --parallel 40 --molden --ceasefiles --namespace data2507/toluene/TPA-PyI/TPA-PyI_toluene_T1_finalOpt
      * Solvation model:               GBSA
        Solvent                        toluene
        Solvent mass                       9.2140E+01 g/mol
          :  Hamiltonian                  GFN2-xTB          :
 * total energy  :  -125.5241096 Eh     change       -0.5651373E-08 Eh
 * total energy  :  -125.5241766 Eh     change       -0.6697865E-04 Eh
 * total energy  :  -125.5242117 Eh     change       -0.3511291E-04 Eh
 * total energy  :  -125.5242217 Eh     change       -0.1005953E-04 Eh
 * total energy  :  -125.5242300 Eh     change       -0.8301967E-05 Eh
 * total energy  :  -125.5242341 Eh     change       -0.4090931E-05 Eh
 * total energy  :  -125.5242371 Eh     change       -0.2975838E-05 Eh
 * total energy  :  -125.5242393 Eh     change       -0.2169611E-05 Eh
 * total energy  :  -125.5242407 Eh     change       -0.1445422E-05 Eh
 * total energy  :  -125.5242418 Eh     change       -0.1074429E-05 Eh
 * total energy  :  -125.5242432 Eh     change       -0.2073566E-06 Eh
 * total energy  :  -125.5242434 Eh     change       -0.1604612E-06 Eh
 * total energy  :  -125.5242436 Eh     change       -0.1905726E-06 Eh
 * total energy  :  -125.5242437 Eh     change       -0.1594253E-06 Eh
 * total energy  :  -125.5242439 Eh     change       -0.1611773E-06 Eh
 * total energy  :  -125.5242441 Eh     change       -0.1447082E-06 Eh
 * total energy  :  -125.5242442 Eh     change       -0.1151574E-06 Eh
 * total energy  :  -125.5242443 Eh     change       -0.1076757E-06 Eh
 * total energy  :  -125.5242443 Eh     change       -0.6018638E-08 Eh
   *** GEOMETRY OPTIMIZATION CONVERGED AFTER 22 ITERATIONS ***

 final structure:
================
81
 xtb: 6.7.1 (edcfbbe)
Br          -5.00610242626514        4.53915511272491       -0.55394359670856
C           -3.96463875367623        3.22597815361010        0.37532869279690
C           -3.16465007243618        3.62252231692720        1.43613530566398
C           -2.41457589704734        2.65616138329404        2.09473179620537
C           -2.47400428464374        1.33241092197711        1.71375777012006
C           -3.28775861675544        0.94603336443311        0.64088298948241
N           -3.38710738806175       -0.39275283636492        0.27304622071036
C           -2.34581812070427       -1.31382241583461        0.07388704823902
C           -0.96697162613281       -1.05957978449982        0.01174175181360
C           -0.07751142325642       -2.17648401652561        0.03734040303514
C            1.26975858196524       -2.01786311813781       -0.00311666392044
C            1.87575824688411       -0.72960896423336       -0.08088782003119
C            3.29086790184284       -0.55367950089262       -0.07821266828087
C            4.18255734390950       -1.60749596556384       -0.40629886490223
C            5.53894365757137       -1.43717783918701       -0.40009066220283
C            6.11100815613431       -0.19675342288043       -0.06314295719614
N            7.48618172178397       -0.02288912160507       -0.05686998161671
C            8.04391604650178        1.21264682792906       -0.40555484552151
C            7.48755233118042        1.97417566272427       -1.43553571439569
C            8.04134172330670        3.19359971098808       -1.77263669220312
C            9.15446101988135        3.67024148649797       -1.09694349921839
C            9.71258023872352        2.91579986115137       -0.07601431148821
C            9.16500232287685        1.69666658964239        0.27211680354843
C            8.32977761349551       -1.08263130335357        0.29763692614531
C            9.53650646975424       -1.27912685315169       -0.37696977449022
C           10.36610593113250       -2.32489895279385       -0.02274305435248
C           10.00835003480835       -3.18894476104273        1.00109939061042
C            8.81136292981846       -2.99712325221168        1.67423125012603
C            7.97534580791512       -1.95291077391567        1.33057932360644
C            5.24492273872045        0.86156211975632        0.26728981807316
C            3.88897395077254        0.68808916238176        0.25980096410619
C            0.98220501686960        0.37353115613348       -0.18080178461035
C           -0.36917466558162        0.22425528866754       -0.14431972936525
N           -2.85841068789572       -2.53288892740558       -0.15713361455751
C           -4.18783700168889       -2.42037753898805       -0.16567883182308
C           -5.03255287454977       -3.58832475596717       -0.36764526646577
C           -6.26714039905983       -3.72806801937323        0.26650404104844
C           -7.03274165277987       -4.85977211809246        0.05731057201884
C           -6.57979637008949       -5.86764788716577       -0.77921626765948
C           -5.34449408917433       -5.74628337410469       -1.39659735928944
C           -4.57403501953947       -4.61871247126653       -1.18976299248093
C           -4.56911467625588       -1.08675498604589        0.09386447974015
C           -5.88751533364227       -0.50962148878082        0.20429269986851
C           -6.86932015109523       -0.83099268332665       -0.74311326224218
C           -8.13197184404119       -0.28247034547803       -0.65864469919795
C           -8.44965058409988        0.59293174629293        0.37058871385488
C           -7.49229972202394        0.90556410896235        1.32414461319303
C           -6.22464032004015        0.36543136049468        1.24557409771013
C           -4.03682115391597        1.91361977254185       -0.03794732613876
H           -3.12922987097049        4.65624489727521        1.73978513952013
H           -1.78854081176086        2.94692562517606        2.92421973607959
H           -1.90309143175950        0.58156162176858        2.23843526364370
H           -0.52128236777403       -3.15654426966606        0.11908051613759
H            1.89684162030371       -2.89298146737925        0.07021957998286
H            3.78449125538077       -2.56049348887853       -0.71642928827905
H            6.18645023655524       -2.25326058752209       -0.68651485827934
H            6.63067685555045        1.59526149226302       -1.97277078164073
H            7.60618369753735        3.77188111283594       -2.57422515661453
H            9.58435771091430        4.62332271349239       -1.36505761293793
H           10.57610886549408        3.28340642906997        0.45828667892771
H            9.59221577211719        1.11567539045536        1.07607413162243
H            9.80922275933928       -0.61445446948075       -1.18335807394587
H           11.29438260578905       -2.47153073978873       -0.55472963162214
H           10.65871366185341       -4.00620471770320        1.27350610294631
H            8.53029899954193       -3.66084732285252        2.47842697742086
H            7.05039359014010       -1.79389083594624        1.86501615440400
H            5.66566116776571        1.81242537319411        0.56105219592754
H            3.26204034309918        1.51027192971317        0.56689045293442
H            1.38414264240718        1.36211300477721       -0.34514162505729
H           -0.99736415125930        1.08900923654463       -0.29251029893657
H           -6.61800849021483       -2.95676671459885        0.93607175470819
H           -7.98726405530350       -4.95736687166707        0.55421778427128
H           -7.18412828227940       -6.74789604210259       -0.94287224112851
H           -4.98260190979292       -6.53395534920982       -2.04162193810190
H           -3.60901689769978       -4.51001884836799       -1.66146805609505
H           -6.61919626331912       -1.50189107947564       -1.55221824716167
H           -8.87329143154873       -0.53165300843931       -1.40387832074802
H           -9.43690714638461        1.02560683215576        0.43102936448553
H           -7.73644600050485        1.57530431186522        2.13625579128140
H           -5.49497269900050        0.59472634773737        2.00908854764912
H           -4.65387624021207        1.63123905491156       -0.87681141565009

          :  Hamiltonian                  GFN2-xTB          :
         :: gradient norm              0.000032821163 Eh/a0 ::
         :: HOMO-LUMO gap              0.588520005855 eV    ::
         :: SCC energy              -127.800857646816 Eh    ::
         :: -> dispersion             -0.114803660551 Eh    ::
         :: -> Gsolv                  -0.056535696350 Eh    ::
         :: repulsion energy           2.276613361508 Eh    ::

    * Orbital Energies and Occupations

         #    Occupation            Energy/Eh            Energy/eV
      -------------------------------------------------------------
         1        2.0000           -0.8405545             -22.8727
       ...           ...                  ...                  ...
       106        2.0000           -0.4120327             -11.2120
       107        2.0000           -0.4105647             -11.1720
       108        2.0000           -0.4100565             -11.1582
       109        2.0000           -0.4076587             -11.0930
       110        2.0000           -0.4050085             -11.0208
       111        2.0000           -0.4041144             -10.9965
       112        2.0000           -0.4020800             -10.9412
       113        2.0000           -0.3959206             -10.7735
       114        2.0000           -0.3904659             -10.6251
       115        2.0000           -0.3779406             -10.2843
       116        1.9997           -0.3649069              -9.9296
       117        1.0003           -0.3495390              -9.5114
       118        1.0000           -0.2752376              -7.4896 (HOMO)
       119        0.0000           -0.2536099              -6.9011 (LUMO)
       120                         -0.2472174              -6.7271
       121                         -0.2440157              -6.6400
       122                         -0.2407856              -6.5521
       123                         -0.2352285              -6.4009
       124                         -0.2312385              -6.2923
       125                         -0.2304429              -6.2707
       126                         -0.2275794              -6.1928
       127                         -0.2231072              -6.0711
       128                         -0.2220444              -6.0421
       129                         -0.2191475              -5.9633
       ...                                ...                  ...
       233                          0.7119671              19.3736
      -------------------------------------------------------------
                  HL-Gap            0.0216278 Eh            0.5885 eV

     #   Z          covCN         q      C6AA      α(0)
     1  35 Br       1.064    -0.195   190.474    22.253
     2   6 C        2.916     0.081    26.197     8.393
     3   6 C        2.983    -0.047    29.147     8.856
     4   6 C        2.922    -0.028    28.696     8.785
     5   6 C        2.918    -0.045    29.110     8.848
     6   6 C        2.913     0.063    26.590     8.456
     7   7 N        2.822    -0.058    22.364     7.024
     8   6 C        3.113     0.123    25.153     8.216
     9   6 C        2.968    -0.015    28.384     8.739
    10   6 C        2.920    -0.037    28.922     8.819
    11   6 C        2.914    -0.038    28.952     8.823
    12   6 C        2.969    -0.003    28.103     8.695
    13   6 C        2.968     0.007    27.856     8.657
    14   6 C        2.919    -0.037    28.930     8.820
    15   6 C        2.914    -0.044    29.098     8.846
    16   6 C        2.924     0.054    26.796     8.489
    17   7 N        2.752    -0.035    21.924     6.954
    18   6 C        2.926     0.063    26.595     8.457
    19   6 C        2.921    -0.042    29.032     8.836
    20   6 C        2.919    -0.027    28.673     8.781
    21   6 C        2.919    -0.032    28.804     8.801
    22   6 C        2.919    -0.027    28.671     8.781
    23   6 C        2.921    -0.042    29.054     8.839
    24   6 C        2.927     0.063    26.596     8.457
    25   6 C        2.921    -0.042    29.049     8.839
    26   6 C        2.919    -0.027    28.670     8.780
    27   6 C        2.919    -0.032    28.800     8.800
    28   6 C        2.919    -0.027    28.671     8.781
    29   6 C        2.921    -0.041    29.028     8.835
    30   6 C        2.914    -0.044    29.101     8.846
    31   6 C        2.920    -0.038    28.940     8.822
    32   6 C        2.916    -0.037    28.920     8.819
    33   6 C        2.911    -0.044    29.104     8.846
    34   7 N        1.897    -0.319    29.117     8.000
    35   6 C        3.133     0.074    26.148     8.371
    36   6 C        2.974     0.006    27.876     8.660
    37   6 C        2.922    -0.034    28.857     8.809
    38   6 C        2.918    -0.030    28.743     8.792
    39   6 C        2.919    -0.030    28.743     8.792
    40   6 C        2.918    -0.029    28.733     8.790
    41   6 C        2.927    -0.028    28.707     8.787
    42   6 C        3.036     0.022    27.479     8.598
    43   6 C        2.969     0.001    27.996     8.679
    44   6 C        2.924    -0.034    28.848     8.808
    45   6 C        2.917    -0.029    28.715     8.787
    46   6 C        2.919    -0.032    28.804     8.801
    47   6 C        2.917    -0.029    28.722     8.788
    48   6 C        2.922    -0.035    28.875     8.812
    49   6 C        2.995    -0.049    29.214     8.866
    50   1 H        0.926     0.054     2.266     2.354
    51   1 H        0.926     0.053     2.283     2.363
    52   1 H        0.926     0.044     2.390     2.417
    53   1 H        0.926     0.042     2.426     2.436
    54   1 H        0.926     0.033     2.539     2.492
    55   1 H        0.926     0.039     2.466     2.456
    56   1 H        0.926     0.037     2.490     2.468
    57   1 H        0.926     0.041     2.433     2.439
    58   1 H        0.926     0.041     2.432     2.439
    59   1 H        0.926     0.040     2.445     2.445
    60   1 H        0.926     0.042     2.423     2.434
    61   1 H        0.926     0.041     2.439     2.442
    62   1 H        0.926     0.041     2.440     2.443
    63   1 H        0.926     0.042     2.422     2.434
    64   1 H        0.926     0.041     2.442     2.444
    65   1 H        0.926     0.042     2.426     2.436
    66   1 H        0.926     0.041     2.430     2.438
    67   1 H        0.926     0.036     2.497     2.471
    68   1 H        0.926     0.037     2.490     2.467
    69   1 H        0.926     0.030     2.590     2.517
    70   1 H        0.926     0.016     2.792     2.613
    71   1 H        0.926     0.027     2.628     2.535
    72   1 H        0.926     0.035     2.522     2.483
    73   1 H        0.926     0.037     2.491     2.468
    74   1 H        0.926     0.037     2.488     2.467
    75   1 H        0.926     0.044     2.397     2.421
    76   1 H        0.926     0.028     2.618     2.530
    77   1 H        0.926     0.035     2.516     2.480
    78   1 H        0.926     0.035     2.519     2.482
    79   1 H        0.926     0.032     2.561     2.503
    80   1 H        0.926     0.020     2.729     2.583
    81   1 H        0.926     0.045     2.377     2.411

molecular dipole:
                 x           y           z       tot (Debye)
 q only:        4.511      -0.374       0.459
   full:        4.430      -0.353       0.713      11.441

 projected vibrational frequencies (cm⁻¹)
eigval :       -0.00    -0.00     0.00     0.00     0.00     0.00
eigval :        7.25    12.70    14.04    20.29    26.54    32.57
eigval :       34.75    35.65    43.60    52.12    53.63    61.76
eigval :       64.08    71.20    80.69    89.25    94.78   102.86
eigval :      105.34   122.98   136.18   146.35   165.68   176.19
eigval :      186.31   213.82   227.40   230.29   241.72   244.64
eigval :      250.41   255.09   267.73   279.45   297.09   309.34
eigval :      313.95   324.69   355.41   367.13   371.76   373.99
eigval :      375.05   380.34   381.94   388.16   401.89   408.29
eigval :      412.19   428.76   445.36   460.47   474.36   483.03
eigval :      489.13   496.84   511.27   517.91   531.00   579.07
eigval :      583.77   584.21   585.83   589.99   593.10   602.52
eigval :      608.81   609.09   617.56   628.14   646.58   650.16
eigval :      653.28   655.87   659.61   660.64   674.06   674.76
eigval :      678.47   682.23   718.64   733.47   752.10   756.02
eigval :      760.38   762.13   771.57   784.97   796.07   812.23
eigval :      814.15   839.31   855.62   870.57   870.78   872.02
eigval :      873.37   876.16   893.65   895.57   897.10   903.01
eigval :      903.29   905.82   907.66   910.77   911.77   914.10
eigval :      919.81   924.05   926.58   927.48   927.72   929.18
eigval :      930.05   931.09   931.70   932.23   934.37   950.14
eigval :      969.03   977.25   987.67   999.91  1000.78  1009.95
eigval :     1032.35  1074.89  1078.44  1079.67  1080.34  1082.09
eigval :     1091.03  1116.00  1118.89  1119.46  1121.39  1121.73
eigval :     1133.63  1136.42  1155.24  1165.96  1175.32  1175.90
eigval :     1177.54  1178.18  1178.26  1186.19  1189.23  1192.40
eigval :     1196.85  1200.56  1207.56  1222.03  1248.85  1253.65
eigval :     1264.51  1269.75  1272.51  1274.45  1277.32  1281.71
eigval :     1285.76  1293.11  1307.30  1313.44  1317.20  1317.73
eigval :     1319.11  1320.07  1324.07  1331.09  1336.39  1353.63
eigval :     1381.83  1396.97  1407.20  1414.67  1420.51  1429.27
eigval :     1429.55  1433.14  1437.51  1438.92  1446.67  1455.55
eigval :     1457.14  1459.65  1468.24  1469.71  1478.86  1490.77
eigval :     1495.39  1511.20  1548.23  1549.15  1564.46  1568.64
eigval :     1569.96  1574.34  1577.58  1580.33  1583.34  1591.30
eigval :     1597.52  3069.61  3069.75  3072.59  3073.01  3076.40
eigval :     3078.20  3078.65  3079.07  3079.45  3079.58  3080.02
eigval :     3080.33  3082.11  3083.54  3085.55  3087.82  3088.89
eigval :     3089.68  3089.74  3091.19  3091.71  3093.17  3095.22
eigval :     3096.65  3098.72  3099.26  3100.38  3100.73  3101.46
eigval :     3101.72  3104.62  3111.64

   temp. (K)  partition function   enthalpy   heat capacity  entropy
                                   cal/mol     cal/K/mol   cal/K/mol   J/K/mol
 298.15  VIB  0.709E+20            24100.686    147.992    152.397
         ROT  0.165E+09              888.752      2.981     40.577
         INT  0.117E+29            24989.439    150.973    192.974
         TR   0.177E+29             1481.254      4.968     45.475
         TOT                       26470.6927   155.9414   238.4485   997.6685

       T/K    H(0)-H(T)+PV         H(T)/Eh          T*S/Eh         G(T)/Eh
   ------------------------------------------------------------------------
    298.15    0.421837E-01    0.660303E+00    0.113295E+00    0.547008E+00
   ------------------------------------------------------------------------

         :::::::::::::::::::::::::::::::::::::::::::::::::::::
         ::                  THERMODYNAMIC                  ::
         :::::::::::::::::::::::::::::::::::::::::::::::::::::
         :: total free energy        -124.977235908986 Eh   ::
         ::.................................................::
         :: total energy             -125.524244283565 Eh   ::
         :: zero point energy           0.618119209828 Eh   ::
         :: G(RRHO) w/o ZPVE           -0.071110835250 Eh   ::
         :: G(RRHO) contrib.            0.547008374578 Eh   ::
         :::::::::::::::::::::::::::::::::::::::::::::::::::::

           -------------------------------------------------
          | TOTAL ENERGY             -125.524244283565 Eh   |
          | TOTAL ENTHALPY           -124.863941339801 Eh   |
          | TOTAL FREE ENERGY        -124.977235908986 Eh   |
          | GRADIENT NORM               0.000033357475 Eh/α |
          | HOMO-LUMO GAP               0.588521548794 eV   |
           -------------------------------------------------

 * finished run on 2025/08/22 at 05:01:52.479
