   * xtb version 6.7.1 (edcfbbe) compiled by 'albert@albert-system' on 2024-07-22

   ID    Z sym.   atoms
    1   35 Br     1
    2    6 C      2-6, 8-16, 18-33, 35-49
    3    7 N      7, 17, 34
    4    1 H      50-81

          program call               : xtb data2507/toluene/TPA-PyI/TPA-PyI_toluene_S0_finalOpt.xtbopt.xyz --gfn 2 --uhf 2 --gbsa toluene --ohess vtight --parallel 40 --molden --ceasefiles --namespace data2507/toluene/TPA-PyI/TPA-PyI_toluene_T1_preOpt
      * Solvation model:               GBSA
        Solvent                        toluene
        Solvent mass                       9.2140E+01 g/mol
          :  Hamiltonian                  GFN2-xTB          :
 * total energy  :  -125.5122772 Eh     change       -0.8113460E-08 Eh
 * total energy  :  -125.5180697 Eh     change       -0.5792407E-02 Eh
 * total energy  :  -125.5208761 Eh     change       -0.2806484E-02 Eh
 * total energy  :  -125.5217151 Eh     change       -0.8389996E-03 Eh
 * total energy  :  -125.5225668 Eh     change       -0.8516395E-03 Eh
 * total energy  :  -125.5230711 Eh     change       -0.5043474E-03 Eh
 * total energy  :  -125.5233657 Eh     change       -0.2945864E-03 Eh
 * total energy  :  -125.5235439 Eh     change       -0.1781927E-03 Eh
 * total energy  :  -125.5236839 Eh     change       -0.1400089E-03 Eh
 * total energy  :  -125.5238120 Eh     change       -0.1281199E-03 Eh
 * total energy  :  -125.5242345 Eh     change       -0.1649859E-05 Eh
 * total energy  :  -125.5242359 Eh     change       -0.1445190E-05 Eh
 * total energy  :  -125.5242372 Eh     change       -0.1253482E-05 Eh
 * total energy  :  -125.5242384 Eh     change       -0.1222987E-05 Eh
 * total energy  :  -125.5242396 Eh     change       -0.1165979E-05 Eh
 * total energy  :  -125.5242406 Eh     change       -0.1084116E-05 Eh
 * total energy  :  -125.5242417 Eh     change       -0.1006851E-05 Eh
 * total energy  :  -125.5242426 Eh     change       -0.9731551E-06 Eh
 * total energy  :  -125.5242426 Eh     change       -0.6562331E-08 Eh
   *** GEOMETRY OPTIMIZATION CONVERGED AFTER 44 ITERATIONS ***

 final structure:
================
81
 xtb: 6.7.1 (edcfbbe)
Br          -4.94939288241212        4.61445230067592       -0.48613914489933
C           -3.92931184764261        3.27784162487287        0.43330138945203
C           -3.12382702298686        3.65352117909706        1.49756491196725
C           -2.38945934777810        2.67049863995292        2.14917510548507
C           -2.46904627419075        1.35090106607880        1.75764990083079
C           -3.28758093745793        0.98582469528011        0.68095343326544
N           -3.40668809438673       -0.34825167695044        0.30181822786365
C           -2.37921607372308       -1.28246747699635        0.09165693354824
C           -0.99746250806708       -1.04590059390295        0.02657102615857
C           -0.12167625684333       -2.17392974435524        0.03436723234626
C            1.22742799899294       -2.03119092706353       -0.00791694140497
C            1.84849858419335       -0.74933023010390       -0.06855093069247
C            3.26544938558421       -0.58866186077994       -0.06681163868567
C            4.14540005620297       -1.64378518081930       -0.42055227317350
C            5.50329650226808       -1.48502347620458       -0.42087117223853
C            6.08840298059632       -0.25684878948348       -0.06196211426780
N            7.46481934722562       -0.09352923388798       -0.06223423686739
C            8.02792153950983        1.14775829620282       -0.38177619962737
C            7.47077070718153        1.93872225928133       -1.38887570054545
C            8.02773045337027        3.16493549715800       -1.69485405278273
C            9.14511420387145        3.61899976848466       -1.01069487513646
C            9.70483000999374        2.83468217169672       -0.01344539380301
C            9.15409776173752        1.60843524930309        0.30352000299035
C            8.30387221734656       -1.16791895976546        0.25649606128280
C            9.50610733304289       -1.35100676306267       -0.42988301348247
C           10.33009782737313       -2.41315349157383       -0.11325487828830
C            9.97119963916450       -3.30693129113501        0.88433781652746
C            8.77925767725602       -3.12791711749767        1.56985248256273
C            7.94915189437510       -2.06730740640232        1.26418809000621
C            5.23381926648128        0.80127077839923        0.29777974261488
C            3.87642265066603        0.64014828555010        0.29432517444860
C            0.96852300751964        0.36582660969919       -0.15187511101100
C           -0.38437188029680        0.23246674005572       -0.11497542872326
N           -2.91004146466791       -2.49224294854276       -0.14723965619904
C           -4.23774965212567       -2.36062879722347       -0.15026596378470
C           -5.10034097314042       -3.51462644970607       -0.35676084227689
C           -6.33512350165897       -3.63937466920101        0.28022053015092
C           -7.11853871310189       -4.75796211108338        0.06658546054647
C           -6.68350451232223       -5.76762616851046       -0.77725431591645
C           -5.44816412738019       -5.66153306071974       -1.39736473925244
C           -4.65996648249327       -4.54711695482458       -1.18613175401782
C           -4.59905107625002       -1.02360366760137        0.12057604002458
C           -5.90818247314946       -0.42731287398330        0.23857323270882
C           -6.89738690685226       -0.72697808088261       -0.70829105247880
C           -8.15120658385079       -0.15971238743877       -0.61653390967528
C           -8.45239910369013        0.71379770716139        0.41925855529333
C           -7.48771151930906        1.00529023994639        1.37212299832432
C           -6.22885749319317        0.44600896982598        1.28651671095057
C           -4.02151482995170        1.97004938499390        0.00964460196188
H           -3.07234815493942        4.68418066521284        1.80922174734190
H           -1.75970171715035        2.94499344441578        2.98138947381699
H           -1.91023012706786        0.58704571642884        2.27654597501895
H           -0.57731547428407       -3.14949043806795        0.10389513255087
H            1.84448500545454       -2.91455348049820        0.05101159758895
H            3.73650480868085       -2.58700438855651       -0.74631003933138
H            6.14148126810133       -2.30049901579184       -0.72906433922774
H            6.61022501081752        1.57772688440205       -1.93257728552283
H            7.59149649274410        3.76675821190741       -2.47834553637456
H            9.57707187443714        4.57787709211867       -1.25372974611362
H           10.57209023725676        3.18432130909375        0.52678254227294
H            9.58241870086040        1.00371020966035        1.08921138896440
H            9.77944400752013       -0.66294570337317       -1.21620735422022
H           11.25475998733499       -2.54916512029657       -0.65427506410940
H           10.61708914718499       -4.13691303015238        1.12726427010822
H            8.49767687906451       -3.81497755167975        2.35404300325881
H            7.02818124622111       -1.91868716647080        1.80845004366479
H            5.66464974809802        1.74170197986230        0.60986149548142
H            3.25847740106530        1.46086396549111        0.62287076102736
H            1.38239650384745        1.35144196955208       -0.30401413070656
H           -1.00202282672606        1.10655809682154       -0.25160848688556
H           -6.67235908941400       -2.86691475762504        0.95542428097659
H           -8.07300229262248       -4.84385490244814        0.56576001893863
H           -7.30171828390242       -6.63751016050995       -0.94438583825056
H           -5.10017938020628       -6.45074665310741       -2.04811216663162
H           -3.69469351215712       -4.45058684505199       -1.65993894110162
H           -6.65974724793962       -1.39617909589947       -1.52255335659810
H           -8.89838388241458       -0.39225619015723       -1.36130228287757
H           -9.43260943452284        1.16142770718658        0.48528403891052
H           -7.71918383955015        1.67356284998631        2.18914525629030
H           -5.49381521109616        0.65861036634544        2.04969978414311
H           -4.64227693507887        1.70354493491258       -0.83168468849417

          :  Hamiltonian                  GFN2-xTB          :
         :: gradient norm              0.000066429219 Eh/a0 ::
         :: HOMO-LUMO gap              0.588114897317 eV    ::
         :: SCC energy              -127.800851896721 Eh    ::
         :: -> dispersion             -0.114822129428 Eh    ::
         :: -> Gsolv                  -0.056537662199 Eh    ::
         :: repulsion energy           2.276609260626 Eh    ::

    * Orbital Energies and Occupations

         #    Occupation            Energy/Eh            Energy/eV
      -------------------------------------------------------------
         1        2.0000           -0.8405649             -22.8729
       ...           ...                  ...                  ...
       106        2.0000           -0.4120411             -11.2122
       107        2.0000           -0.4105491             -11.1716
       108        2.0000           -0.4100430             -11.1578
       109        2.0000           -0.4076939             -11.0939
       110        2.0000           -0.4050092             -11.0209
       111        2.0000           -0.4041173             -10.9966
       112        2.0000           -0.4020787             -10.9411
       113        2.0000           -0.3959157             -10.7734
       114        2.0000           -0.3905020             -10.6261
       115        2.0000           -0.3779408             -10.2843
       116        1.9997           -0.3648845              -9.9290
       117        1.0003           -0.3495109              -9.5107
       118        1.0000           -0.2751949              -7.4884 (HOMO)
       119        0.0000           -0.2535820              -6.9003 (LUMO)
       120                         -0.2472499              -6.7280
       121                         -0.2440657              -6.6414
       122                         -0.2407782              -6.5519
       123                         -0.2352363              -6.4011
       124                         -0.2312986              -6.2940
       125                         -0.2304660              -6.2713
       126                         -0.2275681              -6.1924
       127                         -0.2230998              -6.0709
       128                         -0.2220432              -6.0421
       129                         -0.2191448              -5.9632
       ...                                ...                  ...
       233                          0.7119115              19.3721
      -------------------------------------------------------------
                  HL-Gap            0.0216130 Eh            0.5881 eV

     #   Z          covCN         q      C6AA      α(0)
     1  35 Br       1.064    -0.195   190.472    22.253
     2   6 C        2.916     0.081    26.197     8.393
     3   6 C        2.983    -0.046    29.147     8.856
     4   6 C        2.922    -0.028    28.696     8.785
     5   6 C        2.918    -0.045    29.109     8.847
     6   6 C        2.913     0.063    26.589     8.456
     7   7 N        2.822    -0.058    22.367     7.024
     8   6 C        3.112     0.123    25.154     8.216
     9   6 C        2.968    -0.015    28.385     8.739
    10   6 C        2.920    -0.037    28.922     8.819
    11   6 C        2.914    -0.038    28.951     8.823
    12   6 C        2.969    -0.003    28.103     8.696
    13   6 C        2.968     0.007    27.856     8.657
    14   6 C        2.919    -0.037    28.929     8.820
    15   6 C        2.914    -0.044    29.100     8.846
    16   6 C        2.924     0.054    26.795     8.489
    17   7 N        2.752    -0.035    21.923     6.954
    18   6 C        2.926     0.063    26.596     8.457
    19   6 C        2.921    -0.041    29.030     8.836
    20   6 C        2.919    -0.027    28.673     8.781
    21   6 C        2.919    -0.032    28.803     8.801
    22   6 C        2.919    -0.027    28.671     8.781
    23   6 C        2.921    -0.042    29.052     8.839
    24   6 C        2.926     0.063    26.596     8.457
    25   6 C        2.921    -0.042    29.051     8.839
    26   6 C        2.919    -0.027    28.670     8.780
    27   6 C        2.919    -0.032    28.801     8.801
    28   6 C        2.919    -0.027    28.671     8.781
    29   6 C        2.921    -0.041    29.030     8.836
    30   6 C        2.914    -0.044    29.102     8.846
    31   6 C        2.920    -0.038    28.940     8.822
    32   6 C        2.916    -0.037    28.921     8.819
    33   6 C        2.911    -0.045    29.107     8.847
    34   7 N        1.896    -0.319    29.117     8.000
    35   6 C        3.133     0.074    26.147     8.371
    36   6 C        2.974     0.006    27.876     8.660
    37   6 C        2.922    -0.034    28.857     8.809
    38   6 C        2.918    -0.030    28.743     8.792
    39   6 C        2.919    -0.030    28.743     8.792
    40   6 C        2.918    -0.029    28.733     8.790
    41   6 C        2.927    -0.028    28.707     8.787
    42   6 C        3.036     0.022    27.478     8.598
    43   6 C        2.969     0.001    27.997     8.679
    44   6 C        2.924    -0.034    28.848     8.808
    45   6 C        2.917    -0.029    28.715     8.787
    46   6 C        2.919    -0.032    28.805     8.801
    47   6 C        2.917    -0.029    28.722     8.788
    48   6 C        2.922    -0.035    28.876     8.812
    49   6 C        2.995    -0.049    29.213     8.866
    50   1 H        0.926     0.054     2.266     2.354
    51   1 H        0.926     0.053     2.283     2.363
    52   1 H        0.926     0.044     2.390     2.418
    53   1 H        0.926     0.042     2.426     2.436
    54   1 H        0.926     0.033     2.539     2.492
    55   1 H        0.926     0.039     2.467     2.456
    56   1 H        0.926     0.037     2.488     2.467
    57   1 H        0.926     0.041     2.433     2.439
    58   1 H        0.926     0.041     2.432     2.439
    59   1 H        0.926     0.040     2.445     2.445
    60   1 H        0.926     0.042     2.422     2.434
    61   1 H        0.926     0.041     2.439     2.442
    62   1 H        0.926     0.041     2.441     2.443
    63   1 H        0.926     0.042     2.423     2.434
    64   1 H        0.926     0.040     2.442     2.444
    65   1 H        0.926     0.042     2.427     2.436
    66   1 H        0.926     0.041     2.429     2.437
    67   1 H        0.926     0.036     2.497     2.471
    68   1 H        0.926     0.037     2.489     2.467
    69   1 H        0.926     0.030     2.590     2.517
    70   1 H        0.926     0.016     2.791     2.613
    71   1 H        0.926     0.027     2.627     2.535
    72   1 H        0.926     0.035     2.522     2.483
    73   1 H        0.926     0.037     2.491     2.468
    74   1 H        0.926     0.037     2.488     2.467
    75   1 H        0.926     0.044     2.397     2.421
    76   1 H        0.926     0.028     2.619     2.531
    77   1 H        0.926     0.035     2.516     2.481
    78   1 H        0.926     0.035     2.520     2.482
    79   1 H        0.926     0.032     2.562     2.503
    80   1 H        0.926     0.020     2.729     2.583
    81   1 H        0.926     0.045     2.378     2.411

molecular dipole:
                 x           y           z       tot (Debye)
 q only:        4.504      -0.421       0.441
   full:        4.423      -0.402       0.696      11.427

 projected vibrational frequencies (cm⁻¹)
eigval :       -0.00    -0.00    -0.00     0.00     0.00     0.00
eigval :       11.14    13.18    14.36    20.93    26.47    32.98
eigval :       35.18    36.40    43.43    51.59    55.61    62.63
eigval :       64.99    71.31    80.87    88.60    95.30   103.20
eigval :      105.23   122.83   136.15   147.16   165.88   176.76
eigval :      185.78   213.91   227.66   231.28   242.35   244.55
eigval :      250.56   255.16   267.86   279.73   297.22   309.28
eigval :      314.20   324.67   355.62   367.12   372.90   374.44
eigval :      377.53   381.36   383.09   388.50   401.48   408.11
eigval :      412.41   428.78   445.47   460.74   474.56   483.14
eigval :      489.13   497.12   511.22   518.08   531.14   579.14
eigval :      583.91   584.28   586.07   590.10   593.19   602.73
eigval :      608.75   609.20   617.57   628.24   646.64   650.24
eigval :      653.44   656.13   659.66   661.02   673.97   675.08
eigval :      678.47   682.23   718.70   733.59   752.43   753.99
eigval :      757.41   762.56   771.61   784.89   795.11   810.57
eigval :      813.38   835.43   854.79   868.88   870.47   872.57
eigval :      874.61   876.52   891.23   893.88   896.06   902.89
eigval :      903.33   905.71   907.55   910.89   912.10   913.42
eigval :      919.03   925.90   927.57   927.60   928.35   929.00
eigval :      929.50   930.33   930.66   933.07   934.39   950.14
eigval :      969.11   977.39   988.03   999.91  1001.19  1009.95
eigval :     1032.48  1075.02  1079.47  1080.73  1080.78  1082.62
eigval :     1091.60  1117.11  1119.00  1119.98  1121.89  1122.00
eigval :     1133.90  1136.35  1154.73  1166.76  1175.93  1177.27
eigval :     1177.67  1178.57  1178.67  1186.81  1190.39  1193.17
eigval :     1197.29  1200.77  1207.82  1221.79  1249.20  1253.55
eigval :     1264.13  1269.63  1273.12  1274.56  1278.55  1282.29
eigval :     1285.99  1293.40  1307.11  1313.46  1317.22  1317.75
eigval :     1319.17  1320.08  1324.06  1331.21  1336.36  1353.76
eigval :     1381.95  1396.92  1407.19  1414.66  1420.72  1429.15
eigval :     1429.78  1433.11  1437.51  1438.90  1446.60  1456.12
eigval :     1457.69  1460.00  1468.28  1469.77  1478.80  1490.79
eigval :     1495.36  1511.06  1548.17  1549.12  1564.46  1568.64
eigval :     1569.97  1574.40  1577.61  1580.36  1583.31  1591.38
eigval :     1597.54  3069.57  3070.31  3072.56  3073.32  3076.41
eigval :     3078.46  3078.56  3078.93  3079.43  3079.59  3079.66
eigval :     3080.09  3082.61  3083.91  3085.06  3087.60  3088.60
eigval :     3089.69  3090.24  3090.81  3091.39  3093.05  3095.88
eigval :     3097.34  3098.54  3099.10  3100.13  3100.80  3101.17
eigval :     3101.87  3104.12  3111.70

   temp. (K)  partition function   enthalpy   heat capacity  entropy
                                   cal/mol     cal/K/mol   cal/K/mol   J/K/mol
 298.15  VIB  0.386E+20            24079.667    148.056    151.790
         ROT  0.164E+09              888.752      2.981     40.575
         INT  0.634E+28            24968.419    151.037    192.365
         TR   0.177E+29             1481.254      4.968     45.475
         TOT                       26449.6731   156.0048   237.8401   995.1228

       T/K    H(0)-H(T)+PV         H(T)/Eh          T*S/Eh         G(T)/Eh
   ------------------------------------------------------------------------
    298.15    0.421502E-01    0.660329E+00    0.113005E+00    0.547323E+00
   ------------------------------------------------------------------------

         :::::::::::::::::::::::::::::::::::::::::::::::::::::
         ::                  THERMODYNAMIC                  ::
         :::::::::::::::::::::::::::::::::::::::::::::::::::::
         :: total free energy        -124.976919286894 Eh   ::
         ::.................................................::
         :: total energy             -125.524242634252 Eh   ::
         :: zero point energy           0.618178595634 Eh   ::
         :: G(RRHO) w/o ZPVE           -0.070855248276 Eh   ::
         :: G(RRHO) contrib.            0.547323347358 Eh   ::
         :::::::::::::::::::::::::::::::::::::::::::::::::::::

           -------------------------------------------------
          | TOTAL ENERGY             -125.524242634252 Eh   |
          | TOTAL ENTHALPY           -124.863913801602 Eh   |
          | TOTAL FREE ENERGY        -124.976919286894 Eh   |
          | GRADIENT NORM               0.000066137920 Eh/α |
          | HOMO-LUMO GAP               0.588119118587 eV   |
           -------------------------------------------------

 * finished run on 2025/08/22 at 04:55:54.594
