   * xtb version 6.7.1 (edcfbbe) compiled by 'albert@albert-system' on 2024-07-22

   ID    Z sym.   atoms
    1    6 C      1-5, 7-13, 15-19, 21-28, 30-46, 48-60, 62, 63
    2    7 N      6, 14, 20, 61
    3   16 S      29, 47
    4    1 H      64-97

          program call               : xtb data2507/gas/BDBTCz-Trz/BDBTCz-Trz.xyz --gfn 2 --ohess vtight --parallel 40 --molden --ceasefiles --namespace data2507/gas/BDBTCz-Trz/BDBTCz-Trz_gas_S0_preOpt
          :  Hamiltonian                  GFN2-xTB          :
 * total energy  :  -157.6520352 Eh     change       -0.9930545E-09 Eh
 * total energy  :  -157.6708348 Eh     change       -0.1879958E-01 Eh
 * total energy  :  -157.6762521 Eh     change       -0.5417332E-02 Eh
 * total energy  :  -157.6781657 Eh     change       -0.1913574E-02 Eh
 * total energy  :  -157.6795496 Eh     change       -0.1383894E-02 Eh
 * total energy  :  -157.6800377 Eh     change       -0.4881145E-03 Eh
 * total energy  :  -157.6802399 Eh     change       -0.2022349E-03 Eh
 * total energy  :  -157.6803607 Eh     change       -0.1207216E-03 Eh
 * total energy  :  -157.6804757 Eh     change       -0.1149875E-03 Eh
 * total energy  :  -157.6805876 Eh     change       -0.1119281E-03 Eh
 * total energy  :  -157.6818092 Eh     change       -0.3185620E-06 Eh
 * total energy  :  -157.6818095 Eh     change       -0.3064037E-06 Eh
 * total energy  :  -157.6818097 Eh     change       -0.2364094E-06 Eh
 * total energy  :  -157.6818099 Eh     change       -0.1725271E-06 Eh
 * total energy  :  -157.6818100 Eh     change       -0.1367345E-06 Eh
 * total energy  :  -157.6818101 Eh     change       -0.1418999E-06 Eh
 * total energy  :  -157.6818103 Eh     change       -0.1795491E-06 Eh
 * total energy  :  -157.6818106 Eh     change       -0.2240907E-06 Eh
 * total energy  :  -157.6818106 Eh     change       -0.1827686E-08 Eh
   *** GEOMETRY OPTIMIZATION CONVERGED AFTER 94 ITERATIONS ***

 final structure:
================
97
 xtb: 6.7.1 (edcfbbe)
C           -9.00521340948797       -3.76827261396400       -3.38606823746361
C           -9.77894631080748       -2.84138966363348       -2.70486089915427
C           -9.17916658730824       -1.91348251724059       -1.87593254216064
C           -7.79415797811269       -1.90688296815799       -1.72303124092733
C           -7.15541085771921       -0.92549373122533       -0.84584727208148
N           -7.93654790100360       -0.07763326228204       -0.18290283170524
C           -7.31539829086259        0.79734086987846        0.60279807544731
C           -8.13460907994252        1.75005594720706        1.35226618407480
C           -7.53001180636454        2.71138904021439        2.15985606603734
C           -8.30672326789173        3.60905810944879        2.86603270594411
C           -9.68891194711665        3.55578374486162        2.77374933912038
C          -10.29528289939246        2.60130024817729        1.97180488440568
C           -9.52434093092668        1.70103876976107        1.26260004497243
N           -5.99466306023809        0.85875029250634        0.74831048624202
C           -5.29044149202918       -0.02671316159895        0.04905933694436
C           -3.83517640721903       -0.00030756087301        0.17642219416820
C           -3.04748403628256       -0.86194422032889       -0.58574507202291
C           -1.67470184368914       -0.83752596729884       -0.46988958624565
C           -1.06289902980181        0.04672387169422        0.41866442783627
N            0.32900850486279        0.06882411845035        0.53970944937370
C            1.12767476810496        1.19639977556793        0.50995766897288
C            0.78354893532498        2.52572834568280        0.31112381445519
C            1.79773493514343        3.46116528078777        0.28763819332094
C            3.14316962405144        3.10656710491887        0.45402638182257
C            4.18777355532906        4.14120192322935        0.42717677154353
C            5.24963230652850        4.09180799239846        1.33884330567740
C            6.24432598680765        5.04705985206769        1.33628737679021
C            6.18131904473001        6.06825727759018        0.40251437319652
S            7.33472618559756        7.37132583457541        0.22232103486586
C            6.41389556758520        8.03270943590567       -1.11151796411874
C            6.73719503983198        9.16960810342152       -1.83329941495196
C            5.89956361376280        9.55653792336564       -2.86153347452974
C            4.75801772204643        8.82029589402605       -3.16396421296591
C            4.43745730006399        7.68806040751686       -2.44366961214553
C            5.26537502548894        7.27752580172574       -1.40297942056493
C            5.12983246767563        6.14244632214514       -0.52631630900908
C            4.13606246795639        5.17183187469597       -0.50113333346080
C            3.48375938271691        1.77153536815208        0.63040776214018
C            2.48139605009399        0.81524564828775        0.64970344279995
C            2.49163443162527       -0.61629274265905        0.77625088210776
C            3.50465680549817       -1.54421836036092        0.95693573879107
C            3.17922750183392       -2.89037134596216        1.06252539582106
C            4.23422854348720       -3.89960003971714        1.23735949680901
C            5.31164208358222       -3.65335105635254        2.09729776117126
C            6.31475745933447       -4.58256075496671        2.27699008375554
C            6.24446122402938       -5.77833162088381        1.58133294345076
S            7.40644622135954       -7.08400336953457        1.65775241678347
C            6.46736783777862       -8.01745349823561        0.51264442335005
C            6.78785203460361       -9.27963857516177        0.04122843066994
C            5.93492713764402       -9.87983955168240       -0.86479186609399
C            4.78102088922504       -9.23035494240882       -1.29293042304734
C            4.46332992040469       -7.97301002723847       -0.82210273653506
C            5.30661069806076       -7.34709421487273        0.09119203553565
C            5.17684850994240       -6.05284320506794        0.71033535736902
C            4.17503418990915       -5.10381210273840        0.54945076784105
C            1.83501367262055       -3.28344970860769        1.00997444529028
C            0.81065067488881       -2.37517102068616        0.83846680083055
C            1.14442965306262       -1.03565732331190        0.69832572448799
C           -1.84870284591459        0.90758461082676        1.18480359170734
C           -3.22103070134569        0.88536339900234        1.06077491968946
N           -5.82824819648834       -0.93578148177187       -0.75931556214187
C           -7.02091115679985       -2.84062484761894       -2.41014794129978
C           -7.62695477818680       -3.76610918797521       -3.23712997511984
H           -9.47678068836041       -4.49306362303752       -4.03362210318255
H          -10.85269321745294       -2.84492744212916       -2.82266328357212
H           -9.76478989145226       -1.18438659853951       -1.33853576164138
H           -6.45336243899357        2.73833068221601        2.21871331641269
H           -7.83652579783365        4.35392838285549        3.49133697529422
H          -10.29412582921492        4.25881995497295        3.32735225416152
H          -11.37247080006310        2.56159213225034        1.90162787459670
H           -9.97838772001671        0.95109628792916        0.63429817727555
H           -3.53234802731966       -1.53681191917684       -1.27306901199681
H           -1.06266440490361       -1.48592989276013       -1.07878575309673
H           -0.24352529204019        2.82478905451949        0.16726307502825
H            1.54651618841592        4.50310296387840        0.15507200239012
H            5.27722998940123        3.29933892817514        2.07170658471819
H            7.05611582155430        5.00656325277492        2.04606922899510
H            7.62436883831515        9.73454591613901       -1.59246015255108
H            6.13433688589266       10.43980368748262       -3.43628059893316
H            4.11749898116275        9.14056512593599       -3.97216134679617
H            3.55165457755753        7.11836125585825       -2.68117151401079
H            3.33411008463770        5.21026064569058       -1.22295718890436
H            4.51838363846828        1.47725941422306        0.72124035704830
H            4.53485980857760       -1.22415329275438        0.99476961019204
H            5.34514561236552       -2.72441426106318        2.64655448829504
H            7.13862083584219       -4.38892731533485        2.94645872452456
H            7.68459975048523       -9.77615742599650        0.37818650964417
H            6.16728537201815      -10.86348708396456       -1.24434476936436
H            4.12856889283039       -9.71790131715182       -2.00190045515837
H            3.56785190427703       -7.47119444289422       -1.15661734254807
H            3.35981692120222       -5.29828216556725       -0.13120295009509
H            1.59356189018597       -4.32871221176407        1.13455804100289
H           -0.21826663482573       -2.70136312438351        0.83017917940898
H           -1.37388948531570        1.57455441563297        1.88871567418244
H           -3.84003973720856        1.54155082181728        1.65173289564153
H           -5.95018340002485       -2.82448567569249       -2.28116026274558
H           -7.02614678591082       -4.48957167379328       -3.76871108208988

          :  Hamiltonian                  GFN2-xTB          :
         :: gradient norm              0.000025138203 Eh/a0 ::
         :: HOMO-LUMO gap              1.955923314493 eV    ::
         :: SCC energy              -160.561191955135 Eh    ::
         :: -> dispersion             -0.137947551016 Eh    ::
         :: repulsion energy           2.879381399658 Eh    ::

    * Orbital Energies and Occupations

         #    Occupation            Energy/Eh            Energy/eV
      -------------------------------------------------------------
         1        2.0000           -0.7230255             -19.6745
       ...           ...                  ...                  ...
       135        2.0000           -0.4122291             -11.2173
       136        2.0000           -0.4092219             -11.1355
       137        2.0000           -0.4079348             -11.1005
       138        2.0000           -0.4073646             -11.0850
       139        2.0000           -0.4023569             -10.9487
       140        2.0000           -0.3887502             -10.5784
       141        2.0000           -0.3886396             -10.5754
       142        2.0000           -0.3835358             -10.4365
       143        2.0000           -0.3749741             -10.2036
       144        2.0000           -0.3714311             -10.1072
       145        2.0000           -0.3710105             -10.0957
       146        2.0000           -0.3682698             -10.0211
       147        2.0000           -0.3603518              -9.8057 (HOMO)
       148                         -0.2884730              -7.8497 (LUMO)
       149                         -0.2864136              -7.7937
       150                         -0.2563890              -6.9767
       151                         -0.2560983              -6.9688
       152                         -0.2514516              -6.8423
       153                         -0.2481519              -6.7526
       154                         -0.2469742              -6.7205
       155                         -0.2382517              -6.4832
       156                         -0.2375247              -6.4634
       157                         -0.2296415              -6.2489
       158                         -0.2294455              -6.2435
       ...                                ...                  ...
       296                          0.7462580              20.3067
      -------------------------------------------------------------
                  HL-Gap            0.0718789 Eh            1.9559 eV

     #   Z          covCN         q      C6AA      α(0)
     1   6 C        2.920    -0.023    28.588     8.768
     2   6 C        2.918    -0.027    28.683     8.783
     3   6 C        2.924    -0.023    28.586     8.768
     4   6 C        2.984    -0.000    28.025     8.684
     5   6 C        2.982     0.202    23.708     7.987
     6   7 N        1.844    -0.295    28.491     7.911
     7   6 C        2.982     0.202    23.708     7.987
     8   6 C        2.984    -0.000    28.026     8.684
     9   6 C        2.924    -0.023    28.591     8.769
    10   6 C        2.918    -0.027    28.686     8.783
    11   6 C        2.920    -0.023    28.587     8.768
    12   6 C        2.918    -0.027    28.684     8.783
    13   6 C        2.924    -0.023    28.587     8.768
    14   7 N        1.844    -0.296    28.529     7.916
    15   6 C        2.983     0.202    23.719     7.989
    16   6 C        2.984    -0.004    28.114     8.698
    17   6 C        2.923    -0.024    28.593     8.769
    18   6 C        2.921    -0.043    29.057     8.840
    19   6 C        2.913     0.069    26.457     8.435
    20   7 N        2.802    -0.038    21.975     6.962
    21   6 C        3.075     0.045    26.908     8.505
    22   6 C        2.908    -0.051    29.257     8.869
    23   6 C        2.929    -0.037    28.931     8.821
    24   6 C        2.977     0.001    28.012     8.682
    25   6 C        2.976     0.006    27.876     8.661
    26   6 C        2.928    -0.036    28.896     8.816
    27   6 C        2.933    -0.040    28.986     8.830
    28   6 C        3.004     0.037    27.155     8.548
    29  16 S        2.210    -0.097   145.098    20.274
    30   6 C        3.004     0.040    27.092     8.538
    31   6 C        2.936    -0.039    28.959     8.826
    32   6 C        2.923    -0.030    28.760     8.795
    33   6 C        2.918    -0.035    28.866     8.810
    34   6 C        2.917    -0.032    28.797     8.800
    35   6 C        3.105    -0.003    27.965     8.665
    36   6 C        3.102    -0.004    27.995     8.670
    37   6 C        2.923    -0.038    28.956     8.824
    38   6 C        2.918    -0.037    28.929     8.820
    39   6 C        3.066    -0.016    28.344     8.730
    40   6 C        3.065    -0.016    28.344     8.730
    41   6 C        2.918    -0.037    28.929     8.820
    42   6 C        2.977     0.001    28.012     8.682
    43   6 C        2.976     0.006    27.875     8.660
    44   6 C        2.928    -0.036    28.895     8.815
    45   6 C        2.933    -0.040    28.985     8.829
    46   6 C        3.004     0.037    27.155     8.548
    47  16 S        2.210    -0.097   145.097    20.274
    48   6 C        3.004     0.040    27.092     8.538
    49   6 C        2.936    -0.039    28.958     8.825
    50   6 C        2.923    -0.030    28.760     8.795
    51   6 C        2.918    -0.035    28.867     8.811
    52   6 C        2.917    -0.032    28.798     8.800
    53   6 C        3.105    -0.003    27.964     8.665
    54   6 C        3.102    -0.004    27.995     8.670
    55   6 C        2.923    -0.038    28.957     8.825
    56   6 C        2.929    -0.037    28.932     8.821
    57   6 C        2.908    -0.051    29.256     8.869
    58   6 C        3.075     0.045    26.907     8.505
    59   6 C        2.920    -0.043    29.056     8.840
    60   6 C        2.923    -0.023    28.590     8.769
    61   7 N        1.844    -0.296    28.532     7.916
    62   6 C        2.924    -0.024    28.592     8.769
    63   6 C        2.918    -0.027    28.687     8.783
    64   1 H        0.926     0.037     2.492     2.468
    65   1 H        0.926     0.037     2.489     2.467
    66   1 H        0.926     0.055     2.255     2.349
    67   1 H        0.926     0.054     2.267     2.354
    68   1 H        0.926     0.037     2.492     2.468
    69   1 H        0.926     0.037     2.491     2.468
    70   1 H        0.926     0.037     2.489     2.467
    71   1 H        0.926     0.055     2.255     2.349
    72   1 H        0.926     0.061     2.190     2.314
    73   1 H        0.926     0.046     2.370     2.407
    74   1 H        0.926     0.031     2.570     2.507
    75   1 H        0.926     0.034     2.537     2.491
    76   1 H        0.926     0.037     2.482     2.464
    77   1 H        0.926     0.039     2.456     2.450
    78   1 H        0.926     0.040     2.454     2.450
    79   1 H        0.926     0.036     2.505     2.475
    80   1 H        0.926     0.034     2.535     2.490
    81   1 H        0.926     0.035     2.512     2.479
    82   1 H        0.926     0.037     2.494     2.470
    83   1 H        0.926     0.035     2.516     2.481
    84   1 H        0.926     0.035     2.515     2.480
    85   1 H        0.926     0.037     2.483     2.464
    86   1 H        0.926     0.039     2.456     2.451
    87   1 H        0.926     0.040     2.454     2.450
    88   1 H        0.926     0.036     2.505     2.475
    89   1 H        0.926     0.034     2.536     2.490
    90   1 H        0.926     0.035     2.513     2.479
    91   1 H        0.926     0.037     2.495     2.470
    92   1 H        0.926     0.033     2.538     2.491
    93   1 H        0.926     0.031     2.570     2.507
    94   1 H        0.926     0.046     2.366     2.406
    95   1 H        0.926     0.061     2.189     2.314
    96   1 H        0.926     0.054     2.268     2.355
    97   1 H        0.926     0.037     2.494     2.469

molecular dipole:
                 x           y           z       tot (Debye)
 q only:       -1.096      -0.034      -0.328
   full:       -1.522      -0.060      -0.545       4.111

 projected vibrational frequencies (cm⁻¹)
eigval :       -0.00    -0.00    -0.00     0.00     0.00     0.00
eigval :        4.15     8.57     9.68    11.32    16.52    18.03
eigval :       20.57    22.30    28.22    33.66    36.96    51.04
eigval :       55.27    61.59    70.48    78.40    85.29    92.32
eigval :       95.18    98.68   106.20   112.08   121.68   135.98
eigval :      142.47   151.12   156.68   180.38   182.07   182.49
eigval :      203.54   204.43   208.17   219.82   238.80   244.44
eigval :      250.00   260.44   264.80   277.68   280.58   314.90
eigval :      345.01   357.31   360.58   363.99   364.80   368.73
eigval :      378.59   385.92   390.47   390.88   397.68   401.85
eigval :      402.43   402.69   409.40   415.91   416.87   422.71
eigval :      425.71   433.71   447.08   450.42   454.68   473.60
eigval :      480.84   481.76   487.70   494.02   499.88   510.18
eigval :      553.37   555.19   559.03   561.71   575.59   587.55
eigval :      588.00   593.38   593.81   600.94   606.41   614.82
eigval :      622.71   626.41   628.72   631.86   634.40   651.02
eigval :      661.22   663.24   664.65   673.68   673.94   688.39
eigval :      691.49   691.53   698.96   700.65   702.89   706.96
eigval :      709.91   722.51   730.50   752.09   769.85   773.52
eigval :      773.67   775.49   794.76   811.13   812.92   822.87
eigval :      830.38   834.46   838.37   847.30   847.52   870.56
eigval :      870.68   872.37   872.84   873.06   875.48   877.25
eigval :      879.73   881.26   899.44   905.70   905.78   909.21
eigval :      910.54   911.77   912.33   913.26   914.25   916.33
eigval :      922.49   922.55   929.11   929.20   930.86   933.48
eigval :      933.85   935.77   939.70   975.61   975.93   987.74
eigval :      990.74  1015.27  1031.64  1047.58  1047.68  1047.86
eigval :     1073.96  1074.16  1075.02  1075.71  1079.01  1079.41
eigval :     1089.48  1098.83  1098.88  1107.66  1111.84  1123.80
eigval :     1131.95  1156.70  1156.80  1159.46  1163.24  1166.87
eigval :     1172.44  1172.52  1180.34  1180.41  1180.79  1181.17
eigval :     1183.29  1192.40  1204.06  1204.19  1207.04  1213.70
eigval :     1215.03  1226.90  1228.05  1239.49  1239.69  1249.40
eigval :     1254.56  1262.74  1268.74  1270.16  1275.05  1294.75
eigval :     1308.03  1311.48  1326.66  1328.16  1329.86  1334.19
eigval :     1335.09  1339.23  1339.39  1347.76  1360.10  1361.90
eigval :     1371.14  1372.38  1385.57  1403.49  1403.96  1407.36
eigval :     1411.74  1415.42  1421.07  1427.45  1433.10  1434.22
eigval :     1437.93  1449.14  1465.23  1465.64  1468.26  1475.68
eigval :     1489.05  1493.78  1495.40  1512.55  1514.50  1550.08
eigval :     1550.78  1561.34  1565.66  1565.67  1569.55  1577.17
eigval :     1584.22  1585.47  1585.52  1586.18  1586.87  1586.91
eigval :     1591.99  1595.29  1595.74  1598.57  1614.40  3074.43
eigval :     3074.49  3079.55  3079.62  3080.64  3080.77  3081.14
eigval :     3081.61  3084.71  3085.09  3085.59  3085.69  3088.28
eigval :     3088.52  3089.12  3089.81  3090.16  3090.25  3091.29
eigval :     3092.11  3093.79  3094.00  3094.31  3094.76  3098.56
eigval :     3098.84  3101.13  3101.16  3107.47  3107.80  3107.85
eigval :     3109.52  3111.26  3111.73

   temp. (K)  partition function   enthalpy   heat capacity  entropy
                                   cal/mol     cal/K/mol   cal/K/mol   J/K/mol
 298.15  VIB  0.110E+26            29359.181    181.758    185.738
         ROT  0.448E+09              888.752      2.981     42.567
         INT  0.491E+34            30247.934    184.739    228.306
         TR   0.235E+29             1481.254      4.968     46.038
         TOT                       31729.1877   189.7071   274.3431  1147.8515

       T/K    H(0)-H(T)+PV         H(T)/Eh          T*S/Eh         G(T)/Eh
   ------------------------------------------------------------------------
    298.15    0.505637E-01    0.772613E+00    0.130349E+00    0.642264E+00
   ------------------------------------------------------------------------

         :::::::::::::::::::::::::::::::::::::::::::::::::::::
         ::                  THERMODYNAMIC                  ::
         :::::::::::::::::::::::::::::::::::::::::::::::::::::
         :: total free energy        -157.039546619262 Eh   ::
         ::.................................................::
         :: total energy             -157.681810555478 Eh   ::
         :: zero point energy           0.722049507616 Eh   ::
         :: G(RRHO) w/o ZPVE           -0.079785571401 Eh   ::
         :: G(RRHO) contrib.            0.642263936216 Eh   ::
         :::::::::::::::::::::::::::::::::::::::::::::::::::::

           -------------------------------------------------
          | TOTAL ENERGY             -157.681810555478 Eh   |
          | TOTAL ENTHALPY           -156.909197368679 Eh   |
          | TOTAL FREE ENERGY        -157.039546619262 Eh   |
          | GRADIENT NORM               0.000025141175 Eh/α |
          | HOMO-LUMO GAP               1.955923429838 eV   |
           -------------------------------------------------

 * finished run on 2025/09/03 at 16:46:13.615
