   * xtb version 6.7.1 (edcfbbe) compiled by 'albert@albert-system' on 2024-07-22

   ID    Z sym.   atoms
    1    6 C      1-5, 7-13, 15-19, 21-28, 30-46, 48-60, 62, 63
    2    7 N      6, 14, 20, 61
    3   16 S      29, 47
    4    1 H      64-97

          program call               : xtb data2507/gas/BDBTCz-Trz/BDBTCz-Trz_gas_T1_crest.xyz --gfn 2 --spinpol --tblite --uhf 2 --ohess vtight --parallel 40 --molden --ceasefiles --namespace data2507/gas/BDBTCz-Trz/BDBTCz-Trz_gas_T1_finalOpt
 * total energy  :  -157.6062480 Eh     change       -0.2205667E-07 Eh
 * total energy  :  -157.6063217 Eh     change       -0.7369615E-04 Eh
 * total energy  :  -157.6063520 Eh     change       -0.3027900E-04 Eh
 * total energy  :  -157.6063549 Eh     change       -0.2893298E-05 Eh
 * total energy  :  -157.6063575 Eh     change       -0.2648828E-05 Eh
 * total energy  :  -157.6063595 Eh     change       -0.1999203E-05 Eh
 * total energy  :  -157.6063625 Eh     change       -0.2962376E-05 Eh
 * total energy  :  -157.6063653 Eh     change       -0.2817990E-05 Eh
 * total energy  :  -157.6063681 Eh     change       -0.2796017E-05 Eh
 * total energy  :  -157.6063699 Eh     change       -0.1747461E-05 Eh
 * total energy  :  -157.6063980 Eh     change        0.1068501E-06 Eh
 * total energy  :  -157.6063987 Eh     change       -0.7047982E-06 Eh
 * total energy  :  -157.6063996 Eh     change       -0.8640947E-06 Eh
 * total energy  :  -157.6064002 Eh     change       -0.6386273E-06 Eh
 * total energy  :  -157.6064009 Eh     change       -0.7533854E-06 Eh
 * total energy  :  -157.6064018 Eh     change       -0.8468029E-06 Eh
 * total energy  :  -157.6064024 Eh     change       -0.5996346E-06 Eh
 * total energy  :  -157.6064029 Eh     change       -0.5161737E-06 Eh
 * total energy  :  -157.6064029 Eh     change       -0.1553209E-07 Eh
   *** GEOMETRY OPTIMIZATION CONVERGED AFTER 34 ITERATIONS ***

 final structure:
================
97
 xtb: 6.7.1 (edcfbbe)
C           -9.73917597460623       -3.00485344145327       -3.58681109775115
C          -10.44233572741169       -2.14523706544698       -2.75668495187508
C           -9.76754924012120       -1.32308360909861       -1.87691827316645
C           -8.37318692205941       -1.35297395846783       -1.81823496386817
C           -7.66087803979292       -0.48976653554555       -0.88858119716187
N           -8.38463226378705        0.33710866722955       -0.10125571549389
C           -7.70624982632332        1.12466247786710        0.76196562155583
C           -8.46645255373831        2.02616987584634        1.61464826789926
C           -7.81183751976535        2.85598135267740        2.52678191044564
C           -8.53805929069019        3.70937924056342        3.33143241126810
C           -9.92198111156446        3.74799628938180        3.23874377432455
C          -10.57818330858237        2.92665016764376        2.33474646274555
C           -9.85873855948738        2.06988273236880        1.52619796181998
N           -6.40568214890784        1.09558187646138        0.85342822395315
C           -5.70242984923214        0.26270095847512        0.04447949910459
C           -4.28635419329003        0.21952103171187        0.12581780045478
C           -3.53905203229724       -0.63497217663290       -0.71135125456771
C           -2.17174247417111       -0.67933544846834       -0.62783474142197
C           -1.49342610990771        0.12223744506741        0.29735836051275
N           -0.09494314657313        0.06473716506444        0.38824007612633
C            0.76078765801073        1.14153943724897        0.37060842059704
C            0.48338884704643        2.49535218551604        0.22494334790101
C            1.54372099730218        3.37655353439257        0.21897474418915
C            2.87246488114000        2.94670174710173        0.35403180736864
C            3.96782725247951        3.92375121013231        0.35197317498690
C            5.05472175229679        3.76521278993074        1.22266548850740
C            6.09646127363405        4.66769568780359        1.24432118898632
C            6.05894632056664        5.74701478210019        0.37585276387889
S            7.27178689110983        6.99758044798109        0.23614478617135
C            6.34634349166586        7.78743407969764       -1.02359281133816
C            6.70654510972068        8.95003633279291       -1.68402615157979
C            5.85875428451801        9.44279221196234       -2.65753146236179
C            4.67181814909635        8.78525728946971       -2.96575191571809
C            4.31476961823903        7.62684372273309       -2.30625719684485
C            5.15189461864676        7.11050316471730       -1.32180351292816
C            4.98417813453440        5.93086872417315       -0.51124603680150
C            3.94247828609016        5.01287989430537       -0.51075206006721
C            3.14576619545782        1.58694696207522        0.47939293082909
C            2.09746711589221        0.68477000890981        0.47855605966221
C            2.02797470265315       -0.74934911031127        0.56376723134592
C            2.98298833168511       -1.74175733363274        0.69191188070563
C            2.57567865019119       -3.07144165239996        0.76367388482762
C            3.56780057036727       -4.14643445421031        0.88167380848240
C            4.69851928808845       -3.98155778297447        1.69322341655684
C            5.64340821771888       -4.97714081711951        1.82061665984301
C            5.46248048715196       -6.15925904849088        1.12020333970699
S            6.53535978123641       -7.53875946087057        1.13527811980226
C            5.48492194564334       -8.39794605196628        0.02810030193657
C            5.69813464370320       -9.67492729027071       -0.46324886072465
C            4.76638379532950      -10.20896633957610       -1.33270270448649
C            3.64131294298274       -9.47966850498103       -1.70483001599358
C            3.43075437884183       -8.20728849516265       -1.21386085131167
C            4.35467321262812       -7.64742431621132       -0.33669260088338
C            4.34024192475664       -6.35290048529906        0.29623523076876
C            3.39811886416312       -5.33890234812107        0.18825802511855
C            1.20702405977878       -3.37972463926019        0.72990759120931
C            0.23864372891226       -2.40603403275407        0.61092129037481
C            0.65284525146512       -1.08368232478918        0.50592247813233
C           -2.22171222694005        0.97611804646048        1.13322238492757
C           -3.58884771826137        1.02711391551786        1.04829625377847
N           -6.35831918279746       -0.53153741584179       -0.83883196908090
C           -7.67123635165330       -2.22103374919133       -2.65677207579272
C           -8.35304102864725       -3.03934545238656       -3.53345836185223
H          -10.26969535607117       -3.64726647589136       -4.27422086230592
H          -11.52159959057883       -2.11883760742365       -2.79823732153366
H          -10.30133729608199       -0.64939343514426       -1.22440092854128
H           -6.73525765469998        2.81448754968668        2.58715689783124
H           -8.02780819859862        4.34995395141208        4.03609390780226
H          -10.48736275957008        4.41745466112814        3.87028103488941
H          -11.65573806846831        2.95708368710809        2.26281790302775
H          -10.35559137150772        1.42495599030737        0.81782515810879
H           -4.06894720567808       -1.24464275921516       -1.42627607749427
H           -1.60241575440056       -1.31481488709092       -1.29087904527772
H           -0.53031643412544        2.84751491073842        0.11233130658889
H            1.34561515030888        4.43419469480279        0.12963881748398
H            5.06304564564845        2.93098859143800        1.90786912309013
H            6.92550513228905        4.54363312607320        1.92373414781260
H            7.62871448972733        9.45360795973422       -1.43881660449426
H            6.12136923375983       10.34785299205147       -3.18412248164364
H            4.02415451999563        9.18769393881234       -3.73016984946758
H            3.39350219455759        7.11881984434912       -2.54829221324243
H            3.12350254206147        5.13585844337106       -1.20312930988874
H            4.16511427751222        1.23774871393406        0.54507345525092
H            4.03217554608024       -1.48866342067429        0.71125451220710
H            4.81844853353762       -3.06432137241226        2.24970729438484
H            6.50686575438738       -4.84617447664886        2.45432496720959
H            6.57318555600312      -10.23359660965929       -0.16954469486686
H            4.91416738662967      -11.20299033449442       -1.72699690687040
H            2.92606300552606       -9.91623554796541       -2.38570798487158
H            2.55706400646556       -7.64395518804048       -1.50490982831102
H            2.54365528434567       -5.47183590945616       -0.45787039849078
H            0.90396491149273       -4.41116284992464        0.83068760219949
H           -0.80950918486295       -2.66255417533606        0.61486155721586
H           -1.69537958277095        1.57388635251899        1.86340522131201
H           -4.15839961297021        1.67561517951847        1.69531580892072
H           -6.59359700981598       -2.23670852741939       -2.60349271589066
H           -7.80623629135251       -3.70970222280715       -4.18069404047119

 projected vibrational frequencies (cm⁻¹)
eigval :       -0.00    -0.00    -0.00     0.00     0.00     0.00
eigval :        6.92     8.37     9.49    11.50    18.38    20.69
eigval :       26.05    27.32    29.51    32.58    35.60    50.11
eigval :       53.05    61.32    72.73    78.90    85.54    95.01
eigval :       98.36   103.77   107.03   112.95   121.35   133.41
eigval :      143.11   148.70   155.83   178.23   180.18   186.83
eigval :      203.53   207.30   216.30   222.65   237.64   238.93
eigval :      247.49   249.44   255.24   270.02   278.74   313.50
eigval :      333.85   352.72   355.00   360.56   366.39   367.15
eigval :      367.80   377.31   383.56   389.55   390.09   395.24
eigval :      398.50   401.67   402.07   408.48   409.00   415.34
eigval :      422.15   424.48   427.35   440.42   450.79   465.64
eigval :      477.45   480.47   487.55   488.05   499.35   509.85
eigval :      540.92   547.16   547.60   555.42   560.66   567.71
eigval :      575.54   576.67   586.42   588.16   592.25   593.67
eigval :      594.30   599.29   604.94   621.09   630.93   633.29
eigval :      645.31   651.19   656.53   661.05   663.32   666.64
eigval :      672.70   674.00   690.04   691.62   691.66   696.47
eigval :      700.89   704.69   709.08   721.59   724.32   760.06
eigval :      761.91   769.09   773.73   773.85   799.80   801.96
eigval :      803.22   813.02   813.61   824.37   833.76   835.09
eigval :      847.32   868.83   870.09   870.28   870.99   871.93
eigval :      872.07   875.14   875.93   896.86   898.30   899.64
eigval :      903.55   906.44   906.49   909.13   911.79   913.79
eigval :      915.19   919.57   922.92   923.09   923.18   925.33
eigval :      926.23   928.46   928.75   929.11   948.71   974.60
eigval :      982.97   984.06   988.71   999.53  1029.44  1047.23
eigval :     1047.38  1061.60  1071.18  1072.12  1073.70  1075.51
eigval :     1077.71  1078.11  1097.33  1097.75  1108.08  1108.97
eigval :     1124.19  1128.63  1139.03  1151.02  1154.48  1156.24
eigval :     1156.27  1168.90  1173.28  1173.93  1180.08  1180.20
eigval :     1180.59  1180.59  1183.55  1189.75  1193.68  1209.61
eigval :     1215.33  1226.33  1227.36  1236.13  1238.78  1248.09
eigval :     1253.82  1256.45  1260.92  1268.10  1272.17  1273.59
eigval :     1284.03  1287.11  1301.98  1307.45  1328.24  1331.27
eigval :     1332.31  1334.42  1334.90  1338.36  1338.59  1348.90
eigval :     1349.59  1359.37  1387.03  1400.89  1401.45  1408.87
eigval :     1410.42  1413.70  1417.47  1419.53  1425.68  1428.27
eigval :     1432.96  1438.86  1439.35  1450.58  1462.48  1463.21
eigval :     1464.74  1468.94  1481.20  1486.81  1489.36  1497.84
eigval :     1544.59  1545.73  1555.11  1559.14  1562.11  1564.61
eigval :     1568.42  1569.27  1570.93  1571.75  1578.83  1584.99
eigval :     1585.83  1585.92  1588.68  1593.45  1603.60  3073.05
eigval :     3073.28  3076.15  3077.61  3077.63  3077.90  3081.41
eigval :     3081.43  3084.86  3085.16  3086.46  3086.92  3087.26
eigval :     3087.31  3088.53  3088.94  3089.47  3090.78  3091.00
eigval :     3091.96  3095.35  3095.38  3098.11  3098.14  3098.82
eigval :     3099.46  3099.60  3099.71  3099.74  3100.90  3101.15
eigval :     3101.96  3102.07  3102.53

   temp. (K)  partition function   enthalpy   heat capacity  entropy
                                   cal/mol     cal/K/mol   cal/K/mol   J/K/mol
 298.15  VIB  0.494E+25            29736.371    184.757    186.657
         ROT  0.450E+09              888.752      2.981     42.577
         INT  0.222E+34            30625.123    187.738    229.234
         TR   0.235E+29             1481.254      4.968     46.038
         TOT                       32106.3770   192.7064   275.2711  1151.7341

       T/K    H(0)-H(T)+PV         H(T)/Eh          T*S/Eh         G(T)/Eh
   ------------------------------------------------------------------------
    298.15    0.511648E-01    0.767620E+00    0.130790E+00    0.636830E+00
   ------------------------------------------------------------------------

         :::::::::::::::::::::::::::::::::::::::::::::::::::::
         ::                  THERMODYNAMIC                  ::
         :::::::::::::::::::::::::::::::::::::::::::::::::::::
         :: total free energy        -156.969573419603 Eh   ::
         ::.................................................::
         :: total energy             -157.606402926700 Eh   ::
         :: zero point energy           0.716454900044 Eh   ::
         :: G(RRHO) w/o ZPVE           -0.079625392947 Eh   ::
         :: G(RRHO) contrib.            0.636829507097 Eh   ::
         :::::::::::::::::::::::::::::::::::::::::::::::::::::

           -------------------------------------------------
          | TOTAL ENERGY             -157.606402926700 Eh   |
          | TOTAL ENTHALPY           -156.838783258203 Eh   |
          | TOTAL FREE ENERGY        -156.969573419603 Eh   |
          | GRADIENT NORM               0.000177761328 Eh/α |
           -------------------------------------------------

 * finished run on 2025/09/03 at 17:05:53.593
