   * xtb version 6.7.1 (edcfbbe) compiled by 'albert@albert-system' on 2024-07-22

   ID    Z sym.   atoms
    1    6 C      1-5, 7-13, 15-19, 21-28, 30-46, 48-60, 62, 63
    2    7 N      6, 14, 20, 61
    3   16 S      29, 47
    4    1 H      64-97

          program call               : xtb data2507/gas/BDBTCz-Trz/BDBTCz-Trz_gas_S0_finalOpt.xtbopt.xyz --gfn 2 --spinpol --tblite --uhf 2 --ohess vtight --parallel 40 --molden --ceasefiles --namespace data2507/gas/BDBTCz-Trz/BDBTCz-Trz_gas_T1_preOpt
 * total energy  :  -157.6017544 Eh     change       -0.9843728E-07 Eh
 * total energy  :  -157.6044498 Eh     change       -0.2695392E-02 Eh
 * total energy  :  -157.6060393 Eh     change       -0.1589572E-02 Eh
 * total energy  :  -157.6061918 Eh     change       -0.1524918E-03 Eh
 * total energy  :  -157.6063154 Eh     change       -0.1236043E-03 Eh
 * total energy  :  -157.6063301 Eh     change       -0.1467168E-04 Eh
 * total energy  :  -157.6063421 Eh     change       -0.1199929E-04 Eh
 * total energy  :  -157.6063466 Eh     change       -0.4552394E-05 Eh
 * total energy  :  -157.6063488 Eh     change       -0.2146850E-05 Eh
 * total energy  :  -157.6063530 Eh     change       -0.4170218E-05 Eh
 * total energy  :  -157.6063927 Eh     change       -0.3619414E-06 Eh
 * total energy  :  -157.6063933 Eh     change       -0.5602968E-06 Eh
 * total energy  :  -157.6063941 Eh     change       -0.7812194E-06 Eh
 * total energy  :  -157.6063951 Eh     change       -0.9986616E-06 Eh
 * total energy  :  -157.6063961 Eh     change       -0.1056672E-05 Eh
 * total energy  :  -157.6063969 Eh     change       -0.7561621E-06 Eh
 * total energy  :  -157.6063976 Eh     change       -0.7159253E-06 Eh
 * total energy  :  -157.6063984 Eh     change       -0.7959127E-06 Eh
 * total energy  :  -157.6063984 Eh     change       -0.4924010E-07 Eh
   *** GEOMETRY OPTIMIZATION CONVERGED AFTER 44 ITERATIONS ***

 final structure:
================
97
 xtb: 6.7.1 (edcfbbe)
C           -9.64539878617355       -3.38812111090233       -3.52387633267503
C          -10.37226822204138       -2.52942810049937       -2.71345435324930
C           -9.72091100721455       -1.67499838329869       -1.84688373039050
C           -8.32653747570586       -1.67112182480292       -1.78182728720730
C           -7.63892965426931       -0.77497854843398       -0.86467266975030
N           -8.38602390267098        0.04476883826617       -0.09198051385052
C           -7.73021213275502        0.86109006014774        0.76198136272384
C           -8.51559215158169        1.75664953877578        1.59798036614855
C           -7.88531455539820        2.61751821401075        2.49838591753237
C           -8.63560004975081        3.46629049663019        3.28569501396571
C          -10.01964373549453        3.46945487921553        3.18709631795031
C          -10.65177398178946        2.61696173046999        2.29485525083395
C           -9.90818215329877        1.76454317036877        1.50376108857336
N           -6.42963869460876        0.86544354016075        0.85815306316243
C           -5.70284603557326        0.04087024943858        0.06156037388282
C           -4.28621091269280        0.03914893893585        0.14351473375346
C           -3.51350780649147       -0.79719027476511       -0.68899072190957
C           -2.14513797520730       -0.79526279358543       -0.61024026830143
C           -1.49085624507049        0.03523710166542        0.30672515408640
N           -0.09080356860576        0.03260896384764        0.38875777017961
C            0.71896593489312        1.14438449380375        0.36520763364866
C            0.38413492352975        2.48497189330653        0.21780170838950
C            1.40616027343641        3.41013632259310        0.20655492088019
C            2.75249027023525        3.03720180400716        0.33708272108459
C            3.80460813131526        4.06053443978399        0.33104505238407
C            4.90286305279258        3.94700684399854        1.19454797487216
C            5.90358607586419        4.89480315698117        1.21395508512316
C            5.81260351450793        5.97527581949011        0.35088432655265
S            6.96684875706305        7.28001972292404        0.21063480901718
C            5.99902524944461        8.03354932801477       -1.03949139999416
C            6.30206170674240        9.21479982801974       -1.69551657233278
C            5.42694649612680        9.67362756641194       -2.66140263114691
C            4.26928443294600        8.96445064810801       -2.96643708011882
C            3.96916449797698        7.78756477863498       -2.31129063225389
C            4.83477738300810        7.30462661382355       -1.33455283348055
C            4.72544160676758        6.11461676140850       -0.52918987995111
C            3.72599403966464        5.15086590194718       -0.52705103278898
C            3.08344422493157        1.69026066033254        0.46254504379109
C            2.07414131707991        0.74463245058123        0.46758171540827
C            2.06536902214710       -0.69105109362370        0.55460184569893
C            3.06217940523659       -1.64193133618317        0.67882351594524
C            2.71207934659100       -2.98770076312763        0.75249349372683
C            3.74988600334186       -4.01929170503299        0.86514359347160
C            4.87564082336687       -3.80706386727354        1.67258477712044
C            5.86329259844485       -4.76099993601903        1.79425712385518
C            5.73121161375298       -5.94832861846611        1.09173821949914
S            6.86347207342913       -7.27960137835153        1.09884208449475
C            5.84759783544112       -8.18076195653182       -0.00721971936462
C            6.11508359522340       -9.44539948998018       -0.50393326745229
C            5.20467978697656      -10.01691478025657       -1.37217825840096
C            4.04717404993254       -9.33667732027786       -1.73769652505770
C            3.78244758809257       -8.07660385799210       -1.24124799088890
C            4.68401432793933       -7.47957927510466       -0.36532817442822
C            4.61523274156552       -6.18877541833952        0.27160485433681
C            3.62928080443573       -5.21664266410039        0.16991183808769
C            1.35762952396485       -3.35376973266232        0.72506099338059
C            0.34818611802200       -2.42200857625156        0.61098609155145
C            0.70521984316148       -1.08325464218484        0.50370045464824
C           -2.24494788882181        0.86774444195945        1.14152598836512
C           -3.61312446094162        0.87344814872209        1.06037793643216
N           -6.33581563259207       -0.78228925522140       -0.81206896173075
C           -7.60061353007178       -2.53798087881214       -2.60091558940637
C           -8.25908767105713       -3.38877132083453       -3.46443257038058
H          -10.15759329195409       -4.05615705821491       -4.20067682222276
H          -11.45165590084256       -2.52912956074335       -2.75994074008026
H          -10.27326537560116       -1.00161927041130       -1.20967937105636
H           -6.80829047916150        2.60375005833636        2.56338993721451
H           -8.14414164110273        4.13108914799532        3.98122162799981
H          -10.60384892497898        4.13562015339160        3.80484270843883
H          -11.72943961205227        2.61969538945333        2.21831482535489
H          -10.38613493715277        1.09575169812032        0.80457851433034
H           -4.02507086593057       -1.42871481924434       -1.39828267306256
H           -1.55734254049429       -1.41516028984489       -1.27188959494397
H           -0.64383834705787        2.79392389492497        0.10790407751245
H            1.16284804602650        4.45822477992902        0.11662574361515
H            4.95245894009389        3.11141079337953        1.87630715319291
H            6.74144986514330        4.80488584566285        1.88790220065384
H            7.20179722788118        9.75852942220047       -1.45274396007607
H            5.64497222845442       10.59249608893687       -3.18441768558516
H            3.59942292738544        9.34107265763917       -3.72485850450264
H            3.07043497667250        7.23953771656281       -2.55078484803954
H            2.89853110172199        5.24016043969486       -1.21446307917164
H            4.11685039011408        1.38429357801060        0.52390522268399
H            4.09976514867533       -1.34453634660805        0.69339410492929
H            4.95799535671562       -2.88645458121626        2.23034169810008
H            6.72279231644590       -4.59390733119935        2.42484986890604
H            7.01497066028546       -9.96599120133597       -0.21534851778858
H            5.39476708112286      -11.00202037388803       -1.77071400166325
H            3.34947547348702       -9.80191348542943       -2.41780209144397
H            2.88376300967864       -7.55127711368566       -1.52723226242412
H            2.77868056241607       -5.38532267671836       -0.47297207720540
H            1.09915779410058       -4.39718892784023        0.82685620307000
H           -0.68803064273929       -2.72300677535514        0.62020293236945
H           -1.73664875534421        1.48584507790635        1.86753489606236
H           -4.20188710697153        1.50626918361439        1.70573150639473
H           -6.52316011384111       -2.52732696784487       -2.54285705134664
H           -7.69379312514929       -4.05838691491050       -4.09636913101676

 projected vibrational frequencies (cm⁻¹)
eigval :       -0.00    -0.00     0.00     0.00     0.00     0.00
eigval :        6.35     7.11     9.35    11.41    18.32    20.62
eigval :       25.98    26.87    29.51    32.81    35.45    50.16
eigval :       53.02    61.41    72.92    79.00    85.72    94.84
eigval :       98.37   103.67   106.74   113.03   121.60   133.45
eigval :      143.20   148.50   155.87   178.36   180.10   186.88
eigval :      203.55   207.23   216.38   222.64   237.86   239.07
eigval :      248.38   249.44   255.35   269.59   278.80   313.30
eigval :      333.63   353.80   355.05   360.24   366.41   367.10
eigval :      369.21   377.13   383.82   389.70   390.06   395.05
eigval :      398.12   401.62   402.04   408.53   409.12   415.35
eigval :      422.13   424.18   427.31   440.49   450.81   465.69
eigval :      477.54   480.51   487.52   488.07   499.45   509.83
eigval :      540.10   546.79   547.40   555.37   560.34   567.73
eigval :      575.47   576.56   586.21   588.17   592.35   593.60
eigval :      594.35   599.28   604.48   621.06   632.22   632.47
eigval :      644.94   651.26   656.53   661.08   663.36   666.63
eigval :      672.69   674.00   690.07   691.62   691.67   696.35
eigval :      700.79   704.65   709.01   721.58   724.21   760.09
eigval :      761.95   769.04   773.72   773.82   800.37   802.07
eigval :      803.26   813.04   813.61   824.22   833.84   835.18
eigval :      847.37   868.85   870.11   870.26   871.05   871.92
eigval :      872.05   875.21   875.84   896.76   898.33   899.68
eigval :      903.64   906.41   906.49   909.12   911.72   913.64
eigval :      915.18   919.87   922.84   923.04   923.50   925.34
eigval :      926.27   928.48   928.77   929.08   949.39   974.54
eigval :      982.94   983.58   988.21   999.46  1029.34  1047.08
eigval :     1047.24  1061.68  1071.09  1072.04  1073.60  1076.05
eigval :     1077.52  1077.92  1097.31  1097.74  1108.09  1108.93
eigval :     1124.29  1128.49  1139.06  1151.09  1154.60  1156.08
eigval :     1156.12  1169.16  1173.18  1173.67  1180.02  1180.16
eigval :     1180.52  1180.60  1183.58  1188.69  1193.92  1209.91
eigval :     1215.49  1226.27  1227.30  1236.13  1238.78  1248.31
eigval :     1253.89  1256.47  1261.20  1268.29  1272.33  1273.56
eigval :     1283.73  1287.17  1302.18  1307.64  1328.19  1331.20
eigval :     1332.31  1334.42  1334.90  1338.35  1338.58  1348.87
eigval :     1349.56  1359.32  1387.53  1401.17  1401.65  1408.91
eigval :     1410.51  1413.92  1417.53  1419.66  1425.87  1428.41
eigval :     1433.12  1438.95  1439.42  1450.61  1462.71  1463.32
eigval :     1464.95  1468.93  1481.29  1486.68  1489.43  1497.57
eigval :     1544.59  1545.72  1555.11  1559.14  1562.06  1564.63
eigval :     1568.38  1569.25  1571.00  1571.81  1578.80  1584.98
eigval :     1585.84  1585.94  1588.68  1593.53  1603.51  3073.05
eigval :     3073.24  3076.29  3077.60  3077.71  3077.89  3081.49
eigval :     3081.49  3084.86  3085.37  3086.60  3086.98  3087.33
eigval :     3087.39  3088.58  3088.94  3089.55  3090.76  3091.17
eigval :     3091.96  3095.42  3095.48  3098.14  3098.23  3099.11
eigval :     3099.51  3099.66  3099.71  3099.74  3100.92  3101.16
eigval :     3101.94  3102.07  3102.48

   temp. (K)  partition function   enthalpy   heat capacity  entropy
                                   cal/mol     cal/K/mol   cal/K/mol   J/K/mol
 298.15  VIB  0.656E+25            29738.589    184.754    186.926
         ROT  0.450E+09              888.752      2.981     42.577
         INT  0.295E+34            30627.342    187.735    229.503
         TR   0.235E+29             1481.254      4.968     46.038
         TOT                       32108.5956   192.7034   275.5405  1152.8616

       T/K    H(0)-H(T)+PV         H(T)/Eh          T*S/Eh         G(T)/Eh
   ------------------------------------------------------------------------
    298.15    0.511683E-01    0.767628E+00    0.130918E+00    0.636710E+00
   ------------------------------------------------------------------------

         :::::::::::::::::::::::::::::::::::::::::::::::::::::
         ::                  THERMODYNAMIC                  ::
         :::::::::::::::::::::::::::::::::::::::::::::::::::::
         :: total free energy        -156.969688904942 Eh   ::
         ::.................................................::
         :: total energy             -157.606398449218 Eh   ::
         :: zero point energy           0.716459434617 Eh   ::
         :: G(RRHO) w/o ZPVE           -0.079749890341 Eh   ::
         :: G(RRHO) contrib.            0.636709544276 Eh   ::
         :::::::::::::::::::::::::::::::::::::::::::::::::::::

           -------------------------------------------------
          | TOTAL ENERGY             -157.606398449218 Eh   |
          | TOTAL ENTHALPY           -156.838770710535 Eh   |
          | TOTAL FREE ENERGY        -156.969688904942 Eh   |
          | GRADIENT NORM               0.000077514264 Eh/α |
           -------------------------------------------------

 * finished run on 2025/09/03 at 16:54:29.124
