   * xtb version 6.7.1 (edcfbbe) compiled by 'albert@albert-system' on 2024-07-22

   ID    Z sym.   atoms
    1    6 C      1-5, 7-13, 15-19, 21-28, 30-46, 48-60, 62, 63
    2    7 N      6, 14, 20, 61
    3   16 S      29, 47
    4    1 H      64-97

          program call               : xtb data2507/gas/BDBTCz-Trz/BDBTCz-Trz_gas_S0_crest.xyz --gfn 2 --ohess vtight --parallel 40 --molden --ceasefiles --namespace data2507/gas/BDBTCz-Trz/BDBTCz-Trz_gas_S0_finalOpt
          :  Hamiltonian                  GFN2-xTB          :
 * total energy  :  -157.6817885 Eh     change       -0.4699530E-09 Eh
 * total energy  :  -157.6817897 Eh     change       -0.1174170E-05 Eh
 * total energy  :  -157.6817908 Eh     change       -0.1091041E-05 Eh
 * total energy  :  -157.6817930 Eh     change       -0.2236299E-05 Eh
 * total energy  :  -157.6817950 Eh     change       -0.2016569E-05 Eh
 * total energy  :  -157.6817974 Eh     change       -0.2388493E-05 Eh
 * total energy  :  -157.6818008 Eh     change       -0.3407091E-05 Eh
 * total energy  :  -157.6818035 Eh     change       -0.2688406E-05 Eh
 * total energy  :  -157.6818047 Eh     change       -0.1164833E-05 Eh
 * total energy  :  -157.6818057 Eh     change       -0.9765746E-06 Eh
 * total energy  :  -157.6818163 Eh     change       -0.1754621E-06 Eh
 * total energy  :  -157.6818164 Eh     change       -0.1514389E-06 Eh
 * total energy  :  -157.6818166 Eh     change       -0.1834607E-06 Eh
 * total energy  :  -157.6818168 Eh     change       -0.2191439E-06 Eh
 * total energy  :  -157.6818170 Eh     change       -0.2202506E-06 Eh
 * total energy  :  -157.6818172 Eh     change       -0.1893564E-06 Eh
 * total energy  :  -157.6818174 Eh     change       -0.1400123E-06 Eh
 * total energy  :  -157.6818175 Eh     change       -0.1062020E-06 Eh
 * total energy  :  -157.6818176 Eh     change       -0.9914297E-07 Eh
   *** GEOMETRY OPTIMIZATION CONVERGED AFTER 40 ITERATIONS ***

 final structure:
================
97
 xtb: 6.7.1 (edcfbbe)
C           -9.64342782597785       -3.46510300654885       -3.43227913002619
C          -10.37901901020336       -2.56458729812119       -2.67746963421407
C           -9.73687614584026       -1.68856818496514       -1.82415791642465
C           -8.34743104285815       -1.70795079790780       -1.72054558859144
C           -7.66418141961398       -0.78166166407108       -0.81735011110411
N           -8.40945002171737        0.04431716280359       -0.08868892706118
C           -7.74898269343869        0.86944360871730        0.71854677777006
C           -8.52725369969708        1.79553228927891        1.54142002322261
C           -7.88043323331935        2.70110280683962        2.38016792431142
C           -8.61822939835548        3.57332607063374        3.15644585330036
C          -10.00331312713605        3.54993833257645        3.10359717762532
C          -10.65160974301254        2.65103198983357        2.27082437194272
C           -9.91969580466544        1.77641697223134        1.49160530461563
N           -6.42348249842184        0.90355222667858        0.82328693851628
C           -5.75680912125028        0.04270151866874        0.05945799740348
C           -4.29808102073893        0.04109309662116        0.14204274077987
C           -3.54779543421757       -0.80397283318017       -0.67441894887385
C           -2.17184462746016       -0.80515147532506       -0.59930362004467
C           -1.51938251783085        0.03643024816661        0.30162259348269
N           -0.12442284374125        0.03293009617893        0.38253699850159
C            0.69042635768658        1.14918503169286        0.37750155707612
C            0.36200387239701        2.48996699248243        0.23786786346341
C            1.38900314802477        3.41151203024419        0.23196468880915
C            2.73221033156144        3.03213171566941        0.35722926832124
C            3.78979032281188        4.05382122099004        0.35819732923271
C            4.86861394730176        3.94681418112736        1.24478941369839
C            5.87392507933167        4.89044857112104        1.27127353787055
C            5.80405739965841        5.95940032295566        0.39311166292250
S            6.96707153446571        7.25941103264819        0.25906611902019
C            6.02716477245858        7.99921410982631       -1.01907406463095
C            6.34747831427647        9.17046506910006       -1.68510561932398
C            5.49378792738811        9.61955595103084       -2.67410212626061
C            4.33940733825372        8.91065172785743       -2.99269836769068
C            4.02187134772426        7.74409368388193       -2.32795893086982
C            4.86583911998345        7.27082746839459       -1.32756879674790
C            4.73577941750766        6.09203318159519       -0.50968250545281
C            3.73227900072532        5.13113012702650       -0.51524386399220
C            3.05663478679786        1.68621429587848        0.47096450371349
C            2.04094382318315        0.74384432418772        0.47295879060811
C            2.03214591623932       -0.69150227359675        0.54621864021866
C            3.03433288122496       -1.63988174659255        0.67336588132571
C            2.69059757603882       -2.98397528492732        0.74108147057664
C            3.73255787706120       -4.01417111737013        0.86412540255091
C            4.83075198912077       -3.81011778012380        1.70876108299274
C            5.82084335006941       -4.76070926902306        1.84295198798174
C            5.71589752542238       -5.93571836888935        1.11695420427601
S            6.85501999886201       -7.26339525898886        1.13633202722705
C            5.87703440584817       -8.14941762976925       -0.01389074474516
C            6.16474167744283       -9.40463593757194       -0.52352329605331
C            5.28357443394518       -9.96552476096441       -1.42768931808929
C            4.13415700922506       -9.28414112492846       -1.81654524303608
C            3.84912226154849       -8.03383017962796       -1.30762999321533
C            4.72117798685890       -7.44731058157674       -0.39520001761228
C            4.62704449176568       -6.16780734891418        0.26002132450861
C            3.63934316702098       -5.19759959613040        0.14457435953744
C            1.33968079782493       -3.35525797391320        0.70312276265213
C            0.32607538822292       -2.42681516671118        0.58379504028739
C            0.67729134721561       -1.08824689921488        0.48310590851355
C           -2.26778422289779        0.88063740318146        1.12190063759735
C           -3.64324843632131        0.88403842584505        1.03894358019601
N           -6.33527619407627       -0.81729696811158       -0.77413646756394
C           -7.61261447545073       -2.61492332003173       -2.48172314474897
C           -8.26089711034408       -3.48849462579624       -3.33277103075125
H          -10.14801502585585       -4.14931625947821       -4.09881473680457
H          -11.45616883670169       -2.54801602084997       -2.75682919837764
H          -10.29251764670739       -0.98074402858836       -1.22954178380172
H           -6.80220902463382        2.70524960358552        2.40780082479804
H           -8.11528450269218        4.27479259693438        3.80599722429734
H          -10.57805236637999        4.23290464431234        3.71207814245041
H          -11.73096456705873        2.63460998723342        2.23143389949865
H          -10.40666112519731        1.06969023792547        0.83835636912093
H           -4.06393106904603       -1.44592999949332       -1.37045454094975
H           -1.58907611664510       -1.44050020834212       -1.24929524603827
H           -0.66322089470021        2.80875255499503        0.12691574088460
H            1.15009268479112        4.46129716047701        0.14744587643907
H            4.90125450847717        3.11792893619208        1.93594588414215
H            6.69874040842387        4.80511345014626        1.96180008813647
H            7.24460994941334        9.71387827331428       -1.43193241132848
H            5.72585996463259       10.53050723011688       -3.20506848661032
H            3.68631693292835        9.27968015997844       -3.76943068810542
H            3.12595110506553        7.19592949762346       -2.57786964179774
H            2.91736443796846        5.21503748018039       -1.21843976745333
H            4.08838702643412        1.37398936920579        0.52828525707138
H            4.06985090140339       -1.33628407623614        0.70026533662679
H            4.89107438200154       -2.89767142323235        2.28279446095572
H            6.66077189626273       -4.59961305021831        2.50098614919747
H            7.05821851873090       -9.92602835646478       -0.21679746062061
H            5.49004875522756      -10.94317193804611       -1.83658449769378
H            3.45930378089495       -9.74116491415388       -2.52487829068061
H            2.95699299227487       -7.50726852262398       -1.61166928784369
H            2.80798519183724       -5.35944052225848       -0.52499991918028
H            1.08463891544809       -4.40040430558158        0.79794418458992
H           -0.70764290236960       -2.73752238977686        0.58630562081056
H           -1.76130020356771        1.51389205387379        1.83480611313584
H           -4.23347873150998        1.52763231664183        1.67167832948846
H           -6.53789865878945       -2.61918519875704       -2.39052332580597
H           -7.68990850707398       -4.19124095559853       -3.92189492427820

          :  Hamiltonian                  GFN2-xTB          :
         :: gradient norm              0.000071401485 Eh/a0 ::
         :: HOMO-LUMO gap              1.955021964494 eV    ::
         :: SCC energy              -160.561138102368 Eh    ::
         :: -> dispersion             -0.137956775433 Eh    ::
         :: repulsion energy           2.879320519605 Eh    ::

    * Orbital Energies and Occupations

         #    Occupation            Energy/Eh            Energy/eV
      -------------------------------------------------------------
         1        2.0000           -0.7230342             -19.6748
       ...           ...                  ...                  ...
       135        2.0000           -0.4122294             -11.2173
       136        2.0000           -0.4092143             -11.1353
       137        2.0000           -0.4079226             -11.1001
       138        2.0000           -0.4073580             -11.0848
       139        2.0000           -0.4023456             -10.9484
       140        2.0000           -0.3887571             -10.5786
       141        2.0000           -0.3886434             -10.5755
       142        2.0000           -0.3835427             -10.4367
       143        2.0000           -0.3749942             -10.2041
       144        2.0000           -0.3714200             -10.1069
       145        2.0000           -0.3710024             -10.0955
       146        2.0000           -0.3682597             -10.0209
       147        2.0000           -0.3603288              -9.8050 (HOMO)
       148                         -0.2884830              -7.8500 (LUMO)
       149                         -0.2864094              -7.7936
       150                         -0.2563924              -6.9768
       151                         -0.2560975              -6.9688
       152                         -0.2514539              -6.8424
       153                         -0.2482632              -6.7556
       154                         -0.2470009              -6.7212
       155                         -0.2382963              -6.4844
       156                         -0.2375284              -6.4635
       157                         -0.2296463              -6.2490
       158                         -0.2294333              -6.2432
       ...                                ...                  ...
       296                          0.7461895              20.3048
      -------------------------------------------------------------
                  HL-Gap            0.0718458 Eh            1.9550 eV

     #   Z          covCN         q      C6AA      α(0)
     1   6 C        2.920    -0.023    28.588     8.768
     2   6 C        2.918    -0.027    28.683     8.783
     3   6 C        2.924    -0.023    28.586     8.768
     4   6 C        2.984    -0.000    28.025     8.684
     5   6 C        2.982     0.202    23.708     7.987
     6   7 N        1.844    -0.295    28.491     7.911
     7   6 C        2.982     0.202    23.708     7.987
     8   6 C        2.984    -0.000    28.026     8.684
     9   6 C        2.924    -0.023    28.591     8.769
    10   6 C        2.918    -0.027    28.686     8.783
    11   6 C        2.920    -0.023    28.587     8.768
    12   6 C        2.918    -0.027    28.684     8.783
    13   6 C        2.924    -0.023    28.586     8.768
    14   7 N        1.844    -0.296    28.529     7.916
    15   6 C        2.983     0.202    23.720     7.989
    16   6 C        2.984    -0.004    28.114     8.698
    17   6 C        2.923    -0.024    28.592     8.769
    18   6 C        2.921    -0.043    29.057     8.840
    19   6 C        2.913     0.069    26.457     8.435
    20   7 N        2.802    -0.038    21.974     6.962
    21   6 C        3.075     0.045    26.908     8.505
    22   6 C        2.908    -0.051    29.257     8.869
    23   6 C        2.929    -0.037    28.931     8.821
    24   6 C        2.977     0.000    28.012     8.682
    25   6 C        2.976     0.006    27.876     8.661
    26   6 C        2.928    -0.036    28.896     8.816
    27   6 C        2.933    -0.040    28.986     8.830
    28   6 C        3.004     0.037    27.155     8.548
    29  16 S        2.210    -0.097   145.097    20.274
    30   6 C        3.004     0.040    27.092     8.538
    31   6 C        2.936    -0.039    28.959     8.826
    32   6 C        2.923    -0.030    28.760     8.795
    33   6 C        2.918    -0.035    28.866     8.810
    34   6 C        2.917    -0.032    28.797     8.800
    35   6 C        3.105    -0.003    27.965     8.665
    36   6 C        3.102    -0.004    27.995     8.670
    37   6 C        2.923    -0.038    28.956     8.824
    38   6 C        2.918    -0.037    28.930     8.820
    39   6 C        3.065    -0.016    28.344     8.730
    40   6 C        3.065    -0.016    28.345     8.730
    41   6 C        2.918    -0.037    28.929     8.820
    42   6 C        2.977     0.001    28.012     8.682
    43   6 C        2.976     0.006    27.876     8.660
    44   6 C        2.928    -0.036    28.895     8.816
    45   6 C        2.933    -0.040    28.985     8.829
    46   6 C        3.004     0.037    27.155     8.548
    47  16 S        2.210    -0.097   145.097    20.274
    48   6 C        3.004     0.040    27.092     8.538
    49   6 C        2.936    -0.039    28.958     8.825
    50   6 C        2.923    -0.030    28.760     8.795
    51   6 C        2.918    -0.035    28.867     8.811
    52   6 C        2.917    -0.032    28.798     8.800
    53   6 C        3.105    -0.003    27.964     8.665
    54   6 C        3.102    -0.004    27.995     8.670
    55   6 C        2.923    -0.038    28.957     8.825
    56   6 C        2.929    -0.037    28.932     8.821
    57   6 C        2.908    -0.051    29.256     8.869
    58   6 C        3.075     0.045    26.907     8.505
    59   6 C        2.920    -0.043    29.056     8.840
    60   6 C        2.923    -0.023    28.591     8.769
    61   7 N        1.844    -0.296    28.531     7.916
    62   6 C        2.924    -0.024    28.591     8.769
    63   6 C        2.918    -0.027    28.687     8.783
    64   1 H        0.926     0.037     2.492     2.469
    65   1 H        0.926     0.037     2.489     2.467
    66   1 H        0.926     0.055     2.255     2.348
    67   1 H        0.926     0.054     2.267     2.354
    68   1 H        0.926     0.037     2.492     2.468
    69   1 H        0.926     0.037     2.491     2.468
    70   1 H        0.926     0.037     2.489     2.467
    71   1 H        0.926     0.055     2.256     2.349
    72   1 H        0.926     0.061     2.190     2.314
    73   1 H        0.926     0.046     2.370     2.407
    74   1 H        0.926     0.031     2.570     2.507
    75   1 H        0.926     0.034     2.537     2.491
    76   1 H        0.926     0.037     2.482     2.464
    77   1 H        0.926     0.039     2.456     2.451
    78   1 H        0.926     0.040     2.454     2.450
    79   1 H        0.926     0.036     2.505     2.475
    80   1 H        0.926     0.034     2.535     2.490
    81   1 H        0.926     0.035     2.512     2.479
    82   1 H        0.926     0.037     2.494     2.469
    83   1 H        0.926     0.035     2.516     2.481
    84   1 H        0.926     0.035     2.514     2.480
    85   1 H        0.926     0.037     2.483     2.464
    86   1 H        0.926     0.039     2.456     2.451
    87   1 H        0.926     0.040     2.454     2.450
    88   1 H        0.926     0.036     2.505     2.475
    89   1 H        0.926     0.034     2.536     2.490
    90   1 H        0.926     0.035     2.513     2.479
    91   1 H        0.926     0.037     2.495     2.470
    92   1 H        0.926     0.033     2.537     2.491
    93   1 H        0.926     0.031     2.570     2.507
    94   1 H        0.926     0.046     2.366     2.406
    95   1 H        0.926     0.061     2.188     2.313
    96   1 H        0.926     0.054     2.268     2.355
    97   1 H        0.926     0.037     2.494     2.469

molecular dipole:
                 x           y           z       tot (Debye)
 q only:       -1.103      -0.006      -0.304
   full:       -1.533      -0.016      -0.511       4.107

 projected vibrational frequencies (cm⁻¹)
eigval :       -0.00    -0.00    -0.00    -0.00     0.00     0.00
eigval :        4.01     8.58     9.72    11.41    16.22    18.09
eigval :       20.47    22.18    28.31    33.65    37.04    51.06
eigval :       55.28    61.65    70.45    78.61    85.23    92.26
eigval :       94.98    98.78   106.03   112.13   121.93   135.65
eigval :      142.85   151.43   156.39   180.29   181.84   182.44
eigval :      203.49   204.64   208.11   219.97   238.89   244.39
eigval :      250.08   260.48   264.80   277.96   280.62   314.86
eigval :      344.88   357.42   360.57   363.96   364.78   368.79
eigval :      378.55   385.97   390.49   390.83   397.75   401.82
eigval :      402.45   402.66   409.34   415.99   416.94   422.84
eigval :      425.69   433.74   447.09   450.58   454.59   473.71
eigval :      480.85   481.74   487.70   494.07   499.95   510.16
eigval :      553.31   555.44   558.85   561.88   575.43   587.55
eigval :      588.01   593.43   593.82   600.92   606.41   614.81
eigval :      622.78   626.40   628.72   631.92   634.27   651.03
eigval :      661.27   663.17   664.60   673.67   673.91   688.44
eigval :      691.49   691.53   698.94   700.63   702.87   706.96
eigval :      709.94   722.51   730.53   752.08   769.79   773.53
eigval :      773.66   775.48   794.75   811.10   812.88   822.82
eigval :      830.37   834.48   838.39   847.32   847.50   870.57
eigval :      870.68   872.35   872.83   873.03   875.44   877.22
eigval :      879.74   881.26   899.37   905.71   905.78   909.17
eigval :      910.51   911.77   912.31   913.20   914.23   916.39
eigval :      922.50   922.55   929.13   929.17   930.88   933.47
eigval :      933.84   935.80   939.71   975.60   975.93   987.70
eigval :      990.74  1015.26  1031.65  1047.58  1047.68  1047.86
eigval :     1073.91  1074.12  1075.01  1075.71  1078.99  1079.38
eigval :     1089.48  1098.91  1098.92  1107.64  1111.83  1123.78
eigval :     1132.02  1156.73  1156.84  1159.59  1163.17  1166.85
eigval :     1172.59  1172.69  1180.34  1180.43  1180.80  1181.17
eigval :     1183.34  1192.43  1204.02  1204.19  1207.06  1213.79
eigval :     1215.12  1226.90  1228.05  1239.53  1239.84  1249.62
eigval :     1254.56  1262.76  1268.74  1270.16  1275.01  1294.84
eigval :     1308.01  1311.47  1326.68  1328.17  1329.88  1334.19
eigval :     1335.08  1339.22  1339.38  1347.72  1360.03  1361.89
eigval :     1371.14  1372.38  1385.57  1403.43  1403.90  1407.37
eigval :     1411.76  1415.45  1421.11  1427.43  1433.10  1434.21
eigval :     1437.89  1449.14  1465.22  1465.63  1468.25  1475.67
eigval :     1489.03  1493.69  1495.40  1512.57  1514.49  1550.03
eigval :     1550.73  1561.31  1565.64  1565.66  1569.54  1577.14
eigval :     1584.23  1585.44  1585.45  1586.15  1586.87  1586.92
eigval :     1592.01  1595.29  1595.74  1598.52  1614.31  3074.42
eigval :     3074.50  3079.54  3079.61  3080.63  3080.77  3081.24
eigval :     3081.71  3084.80  3085.13  3085.63  3085.72  3088.30
eigval :     3088.59  3089.17  3089.81  3090.16  3090.29  3091.34
eigval :     3092.13  3093.83  3094.00  3094.32  3094.83  3098.62
eigval :     3098.87  3101.14  3101.15  3107.51  3107.83  3107.91
eigval :     3109.58  3111.35  3111.84

   temp. (K)  partition function   enthalpy   heat capacity  entropy
                                   cal/mol     cal/K/mol   cal/K/mol   J/K/mol
 298.15  VIB  0.114E+26            29358.838    181.758    185.772
         ROT  0.449E+09              888.752      2.981     42.571
         INT  0.511E+34            30247.590    184.739    228.343
         TR   0.235E+29             1481.254      4.968     46.038
         TOT                       31728.8441   189.7075   274.3809  1148.0095

       T/K    H(0)-H(T)+PV         H(T)/Eh          T*S/Eh         G(T)/Eh
   ------------------------------------------------------------------------
    298.15    0.505631E-01    0.772617E+00    0.130367E+00    0.642250E+00
   ------------------------------------------------------------------------

         :::::::::::::::::::::::::::::::::::::::::::::::::::::
         ::                  THERMODYNAMIC                  ::
         :::::::::::::::::::::::::::::::::::::::::::::::::::::
         :: total free energy        -157.039567950330 Eh   ::
         ::.................................................::
         :: total energy             -157.681817582760 Eh   ::
         :: zero point energy           0.722053701131 Eh   ::
         :: G(RRHO) w/o ZPVE           -0.079804068700 Eh   ::
         :: G(RRHO) contrib.            0.642249632431 Eh   ::
         :::::::::::::::::::::::::::::::::::::::::::::::::::::

           -------------------------------------------------
          | TOTAL ENERGY             -157.681817582760 Eh   |
          | TOTAL ENTHALPY           -156.909200750077 Eh   |
          | TOTAL FREE ENERGY        -157.039567950330 Eh   |
          | GRADIENT NORM               0.000071418332 Eh/α |
          | HOMO-LUMO GAP               1.955022484377 eV   |
           -------------------------------------------------

 * finished run on 2025/09/03 at 16:54:05.572
