   * xtb version 6.7.1 (edcfbbe) compiled by 'albert@albert-system' on 2024-07-22

   ID    Z sym.   atoms
    1    6 C      1-8, 10-13, 16-21, 23-36
    2    7 N      9
    3    5 B      14
    4    8 O      15, 22
    5    1 H      37-78

          program call               : xtb data2507/gas/CN-TPA/CN-TPA_gas_T1_crest.xyz --gfn 2 --spinpol --tblite --uhf 2 --ohess vtight --parallel 40 --molden --ceasefiles --namespace data2507/gas/CN-TPA/CN-TPA_gas_T1_finalOpt
 * total energy  :  -102.2719373 Eh     change        0.1116760E-08 Eh
 * total energy  :  -102.2720358 Eh     change       -0.9849251E-04 Eh
 * total energy  :  -102.2720927 Eh     change       -0.5690878E-04 Eh
 * total energy  :  -102.2720962 Eh     change       -0.3467860E-05 Eh
 * total energy  :  -102.2720973 Eh     change       -0.1147325E-05 Eh
 * total energy  :  -102.2720972 Eh     change        0.1000287E-06 Eh
 * total energy  :  -102.2720984 Eh     change       -0.1200561E-05 Eh
 * total energy  :  -102.2720999 Eh     change       -0.1431798E-05 Eh
 * total energy  :  -102.2721013 Eh     change       -0.1417890E-05 Eh
 * total energy  :  -102.2721027 Eh     change       -0.1456620E-05 Eh
 * total energy  :  -102.2721074 Eh     change       -0.1322229E-05 Eh
 * total energy  :  -102.2721085 Eh     change       -0.1136853E-05 Eh
 * total energy  :  -102.2721093 Eh     change       -0.7149817E-06 Eh
 * total energy  :  -102.2721099 Eh     change       -0.6086735E-06 Eh
 * total energy  :  -102.2721103 Eh     change       -0.4307655E-06 Eh
 * total energy  :  -102.2721106 Eh     change       -0.3222570E-06 Eh
 * total energy  :  -102.2721108 Eh     change       -0.1734034E-06 Eh
 * total energy  :  -102.2721110 Eh     change       -0.1640780E-06 Eh
 * total energy  :  -102.2721110 Eh     change       -0.3153653E-07 Eh
   *** GEOMETRY OPTIMIZATION CONVERGED AFTER 22 ITERATIONS ***

 final structure:
================
78
 xtb: 6.7.1 (edcfbbe)
C           -5.54944881928370        4.73973292591433        0.60125880899456
C           -4.14059366049424        4.97520847275345        0.03640986066055
C           -3.46929858918797        6.07042877451962        0.86938232078906
C           -4.24082088655347        5.47156852969918       -1.41395101873032
C           -3.37096692479602        3.66773140309073        0.06001833980021
C           -3.86086708812231        2.56424572598574       -0.65321734275712
C           -3.20364300801774        1.35914172363640       -0.66709439816639
C           -2.00599114123049        1.19666291506417        0.04536215947238
N           -1.30493449896614       -0.00389926350291        0.00448152568707
C            0.06613377644303        0.00177483245640        0.00865238374431
C            0.81141697351842       -1.04785645307169        0.65207141335246
C            2.16358899598671       -1.02760041725686        0.65761729540625
C            2.91833703047979        0.01168911503501        0.01300366225113
B            4.44733398151941        0.01535605088601        0.01109123859042
O            5.22925759368394       -0.96169109684452        0.59901510921424
C            6.58561984354519       -0.53842786208466        0.55752129705952
C            7.48892813413630       -1.73404003753177        0.26054168898172
C            6.92831982369529        0.01363563664527        1.94872998799590
C            6.58007471748925        0.57696769815971       -0.54842890693167
C            6.91476776475774        0.02587824452255       -1.94200089759041
C            7.48164916406235        1.77543974780603       -0.25787278483336
O            5.22212690224499        0.99576403308718       -0.58080545950663
C            2.15833077778168        1.04686239515210       -0.63207475012540
C            0.80607773380819        1.05760271622222       -0.63086327947251
C           -1.99659666261297       -1.20957682800212       -0.04135670443400
C           -3.19952093564292       -1.37999335673554        0.66040371635415
C           -3.84806974996123       -2.58971091866661        0.64170225006673
C           -3.34390126538725       -3.69039517389778       -0.06594083924735
C           -4.10405821076824       -5.00350154748643       -0.04734945581912
C           -4.21122019385045       -5.49952799114649        1.40264590666199
C           -3.41847006237941       -6.09423092493696       -0.87455766316250
C           -5.51047778360842       -4.77916138306403       -0.62272004692908
C           -2.14621311796362       -3.50933857097656       -0.75963108648186
C           -1.48070407222810       -2.30449169250650       -0.75156501959473
C           -1.50424496909616        2.29446876505873        0.76109387601884
C           -2.17835262218361        3.49452976522048        0.76435401632851
H           -6.09818819865010        4.01271232052355        0.00913805712179
H           -5.48755919972148        4.37087306020257        1.62301866345363
H           -6.11193993302307        5.67093565067789        0.60381376049690
H           -3.39717961846406        5.77879663934232        1.91461131759913
H           -2.47461964212969        6.29513999644753        0.49170818138221
H           -4.06238111954747        6.98115147236470        0.81547754820459
H           -4.76937167076974        4.75954351689743       -2.04155950496808
H           -3.24633914357495        5.62013054978282       -1.82941123134555
H           -4.77491140839968        6.41872453907301       -1.44904711090832
H           -4.77524518523036        2.65426310895677       -1.21958006470862
H           -3.59071389246550        0.53246258201129       -1.24495961675124
H            0.26032423009332       -1.81078368161356        1.18361721360089
H            2.72162122085302       -1.79613208063933        1.17008095271194
H            8.51677768446304       -1.40558415781707        0.13005879385271
H            7.44407353281243       -2.42648651147725        1.09771847583718
H            7.16054515968883       -2.26117649416947       -0.62942901423576
H            6.28910434501095        0.86180490815608        2.18156850274318
H            6.73641109660878       -0.76388911244827        2.68494540138912
H            7.97144425711944        0.30976721454224        2.00975788291094
H            6.27631772718504       -0.82408821944616       -2.17036316555898
H            6.71544041658961        0.80285396211746       -2.67682586080847
H            7.95826760042274       -0.26727780370332       -2.01039435050153
H            7.15836899815892        2.30125513575552        0.63473804546243
H            8.51153410968881        1.45030368468367       -0.13535025788287
H            7.42813934561809        2.46797122961866       -1.09447335707013
H            2.71261173089395        1.81983535943811       -1.14190055059078
H            0.25142235086980        1.81727367058022       -1.16333724604849
H           -3.59776540536643       -0.55559515128052        1.23393513630154
H           -4.76697834085528       -2.68561335970474        1.19972893235951
H           -3.21872323048407       -5.64108748429852        1.82524723349800
H           -4.73918201772988       -6.45022174697161        1.43471898849983
H           -4.74892998719782       -4.79054373908577        2.02590770813843
H           -4.00536860865000       -7.00918479272403       -0.82475065381204
H           -3.34040739565429       -5.80251661142034       -1.91933897736097
H           -2.42513776204833       -6.31163202544739       -0.48914400598018
H           -5.44391971998242       -4.41029668554215       -1.64418424353032
H           -6.06566531205280       -5.71472735436518       -0.62897292215682
H           -6.06929288211271       -4.05622849264302       -0.03504163770805
H           -1.71879004293015       -4.31777050734943       -1.32951544852109
H           -0.56887301498152       -2.17988519055559       -1.31625868885147
H           -0.59653302803790        2.17573803802139        1.33363062289582
H           -1.76186342263029        4.30541408720485        1.33880843519197

 projected vibrational frequencies (cm⁻¹)
eigval :       -0.00    -0.00    -0.00    -0.00    -0.00     0.00
eigval :       13.42    18.16    19.95    25.20    25.31    29.47
eigval :       44.28    54.46    63.21    65.24    78.70    94.18
eigval :      104.97   110.32   115.83   141.26   166.62   171.09
eigval :      180.07   182.66   204.46   213.64   220.62   221.39
eigval :      224.54   227.63   232.14   256.33   257.60   276.15
eigval :      276.50   281.05   286.44   305.63   313.95   314.75
eigval :      316.85   316.89   329.85   340.65   348.99   354.80
eigval :      360.86   373.55   379.10   381.68   387.55   390.75
eigval :      393.31   408.48   417.45   425.24   435.13   453.89
eigval :      459.45   488.51   491.64   516.22   522.09   524.80
eigval :      535.18   546.66   569.72   579.08   585.52   603.36
eigval :      606.62   614.27   630.47   672.11   675.79   691.39
eigval :      704.25   744.52   775.68   786.64   793.51   802.42
eigval :      807.53   846.92   850.35   866.38   872.69   882.97
eigval :      883.77   897.69   899.11   902.54   903.73   907.11
eigval :      909.36   917.96   921.14   939.64   945.02   948.28
eigval :      958.87   958.89   961.77   962.02   962.84   962.86
eigval :      965.89   978.78   993.56   995.96   998.68  1005.21
eigval :     1033.64  1033.66  1033.85  1034.20  1036.74  1078.18
eigval :     1111.50  1126.55  1133.22  1134.74  1150.36  1151.75
eigval :     1159.87  1165.40  1173.73  1178.31  1183.13  1183.80
eigval :     1214.03  1220.46  1223.42  1223.45  1227.64  1228.40
eigval :     1229.69  1247.12  1260.55  1269.80  1274.29  1284.95
eigval :     1286.15  1294.17  1305.44  1311.90  1329.24  1333.18
eigval :     1344.06  1382.94  1383.29  1388.66  1391.34  1397.34
eigval :     1404.48  1404.52  1404.59  1405.38  1406.42  1420.77
eigval :     1427.74  1428.01  1433.03  1435.96  1442.56  1464.55
eigval :     1464.78  1474.70  1479.76  1485.19  1491.07  1491.08
eigval :     1493.68  1493.73  1496.69  1497.45  1498.95  1501.52
eigval :     1503.52  1503.59  1505.21  1507.48  1509.62  1513.90
eigval :     1513.91  1514.48  1519.23  1519.28  1519.92  1618.93
eigval :     3023.26  3023.27  3024.63  3024.67  3027.52  3028.25
eigval :     3028.26  3029.05  3031.18  3031.49  3032.21  3032.32
eigval :     3032.68  3033.75  3036.91  3036.95  3036.96  3037.21
eigval :     3039.55  3039.72  3039.78  3040.84  3043.74  3046.29
eigval :     3047.10  3047.11  3050.43  3050.50  3061.70  3062.70
eigval :     3063.59  3064.63  3076.04  3078.07  3086.78  3087.12
eigval :     3090.96  3091.90  3092.23  3093.24  3116.35  3116.64

   temp. (K)  partition function   enthalpy   heat capacity  entropy
                                   cal/mol     cal/K/mol   cal/K/mol   J/K/mol
 298.15  VIB  0.409E+17            22084.559    136.009    135.760
         ROT  0.303E+08              888.752      2.981     37.212
         INT  0.124E+25            22973.312    138.990    172.972
         TR   0.103E+29             1481.254      4.968     44.395
         TOT                       24454.5657   143.9578   217.3668   909.4628

       T/K    H(0)-H(T)+PV         H(T)/Eh          T*S/Eh         G(T)/Eh
   ------------------------------------------------------------------------
    298.15    0.389708E-01    0.694826E+00    0.103278E+00    0.591548E+00
   ------------------------------------------------------------------------

         :::::::::::::::::::::::::::::::::::::::::::::::::::::
         ::                  THERMODYNAMIC                  ::
         :::::::::::::::::::::::::::::::::::::::::::::::::::::
         :: total free energy        -101.680562954169 Eh   ::
         ::.................................................::
         :: total energy             -102.272110927003 Eh   ::
         :: zero point energy           0.655855139707 Eh   ::
         :: G(RRHO) w/o ZPVE           -0.064307166873 Eh   ::
         :: G(RRHO) contrib.            0.591547972834 Eh   ::
         :::::::::::::::::::::::::::::::::::::::::::::::::::::

           -------------------------------------------------
          | TOTAL ENERGY             -102.272110927003 Eh   |
          | TOTAL ENTHALPY           -101.577284956315 Eh   |
          | TOTAL FREE ENERGY        -101.680562954169 Eh   |
          | GRADIENT NORM               0.000062371272 Eh/α |
           -------------------------------------------------

 * finished run on 2025/07/18 at 23:14:06.245
