   * xtb version 6.7.1 (edcfbbe) compiled by 'albert@albert-system' on 2024-07-22

   ID    Z sym.   atoms
    1    6 C      1-8, 10-13, 16-21, 23-36
    2    7 N      9
    3    5 B      14
    4    8 O      15, 22
    5    1 H      37-78

          program call               : xtb data2507/gas/CN-TPA/CN-TPA.xyz --gfn 2 --ohess vtight --parallel 40 --molden --ceasefiles --namespace data2507/gas/CN-TPA/CN-TPA_gas_S0_preOpt
          :  Hamiltonian                  GFN2-xTB          :
 * total energy  :  -102.2946191 Eh     change       -0.1593079E-08 Eh
 * total energy  :  -102.3375145 Eh     change       -0.4289539E-01 Eh
 * total energy  :  -102.3513139 Eh     change       -0.1379935E-01 Eh
 * total energy  :  -102.3557329 Eh     change       -0.4419066E-02 Eh
 * total energy  :  -102.3591481 Eh     change       -0.3415142E-02 Eh
 * total energy  :  -102.3619191 Eh     change       -0.2770974E-02 Eh
 * total energy  :  -102.3643727 Eh     change       -0.2453671E-02 Eh
 * total energy  :  -102.3664010 Eh     change       -0.2028264E-02 Eh
 * total energy  :  -102.3678359 Eh     change       -0.1434910E-02 Eh
 * total energy  :  -102.3687692 Eh     change       -0.9333264E-03 Eh
 * total energy  :  -102.3769152 Eh     change       -0.7457812E-06 Eh
 * total energy  :  -102.3769161 Eh     change       -0.8145921E-06 Eh
 * total energy  :  -102.3769170 Eh     change       -0.8950172E-06 Eh
 * total energy  :  -102.3769179 Eh     change       -0.9798221E-06 Eh
 * total energy  :  -102.3769190 Eh     change       -0.1065020E-05 Eh
 * total energy  :  -102.3769201 Eh     change       -0.1141272E-05 Eh
 * total energy  :  -102.3769213 Eh     change       -0.1199867E-05 Eh
 * total energy  :  -102.3769226 Eh     change       -0.1231709E-05 Eh
 * total energy  :  -102.3769226 Eh     change       -0.4894517E-08 Eh
   *** GEOMETRY OPTIMIZATION CONVERGED AFTER 185 ITERATIONS ***

 final structure:
================
78
 xtb: 6.7.1 (edcfbbe)
C           -3.85178227671308        5.56539852300536       -1.80522375235592
C           -3.75613652567148        5.15730707802727       -0.32827821758472
C           -5.16584926912019        5.00499010701674        0.26059964950578
C           -3.04141833543478        6.27867280065614        0.43056403474923
C           -3.02986585758063        3.82557269263408       -0.22608729784672
C           -3.55584756994131        2.70383940425929       -0.86392053906067
C           -2.93630610093795        1.47365980734826       -0.80141500656283
C           -1.75429709876225        1.31421341890687       -0.08032785211373
N           -1.12537139337936        0.06684718110721        0.00108751722350
C            0.26843930498180       -0.01646277987941        0.00098826246240
C            0.92391195895441       -0.97222174870323        0.77937501337901
C            2.30032162419818       -1.04799147853331        0.77534464570446
C            3.07786248056201       -0.18412945821296        0.00110058995143
B            4.63408694121239       -0.27683265235586        0.00116823634034
O            5.44380442691003        0.48743218438095       -0.79291242271879
C            6.78613974938759        0.02325890471341       -0.65828583655120
C            7.73774723148144        1.21660970585786       -0.61847269343959
C            7.09217122119957       -0.82162593831995       -1.90176720194080
C            6.73539914264391       -0.83037165218473        0.66022882290763
C            7.13995144544664       -0.02786300539239        1.90362514696135
C            7.53848416105190       -2.12832206506538        0.62015921831936
O            5.34745016370685       -1.13181054568471        0.79515445934532
C            2.40863894626759        0.76599788489852       -0.77329268395692
C            1.03299634709875        0.85446230467033       -0.77744076536799
C           -1.89846446860685       -1.09672965891702        0.08185696719432
C           -3.09118207632650       -1.11443997878790        0.80272312889823
C           -3.85319046895977       -2.26188929231465        0.86423457636424
C           -3.46474497783820       -3.43794628811929        0.22565556672441
C           -4.34517191346872       -4.67333103277170        0.32620596200575
C           -4.49149667279983       -5.06754926821044        1.80276203314351
C           -3.76843222512293       -5.87194735718951       -0.43195441211896
C           -5.72552349118421       -4.35322618415932       -0.26494393279796
C           -2.26955781032766       -3.41074898672676       -0.48331789220158
C           -1.50031495016897       -2.26527694131042       -0.56104772058560
C           -1.21966726557773        2.42730727657806        0.56197815149314
C           -1.84663345035296        3.65636844979430        0.48326907156449
H           -2.85627957810672        5.65482670430174       -2.23514727300539
H           -4.40754827657295        4.83262213664728       -2.38354005120469
H           -4.35558802000631        6.52541382743065       -1.89758487488643
H           -5.74336271360030        4.26163237185288       -0.28183995594256
H           -5.10612568814573        4.69645355173417        1.30235322060117
H           -5.69806644994090        5.95275680383209        0.21106301840339
H           -2.04229490447345        6.44416582830412        0.03428240876106
H           -2.97122106506705        6.05026313306161        1.49153968569385
H           -3.60314764151847        7.20456663233046        0.32290116679185
H           -4.46946196103806        2.78430016181894       -1.43374181832747
H           -3.36539457882033        0.62519725571392       -1.31442476907698
H            0.34129274337374       -1.64666747102591        1.39044354282381
H            2.79956976329122       -1.78450677520999        1.38682431203356
H            8.75334481510670        0.88082134394482       -0.42692403995378
H            7.70970162810545        1.72133150743926       -1.58104799785658
H            7.44160174792013        1.93009361715225        0.14366382337836
H            6.40915695450887       -1.66553280405324       -1.96000175191713
H            6.93928116364656       -0.20483566318122       -2.78448755671828
H            8.11792502511731       -1.17775430180081       -1.89215919262286
H            8.20076978726696        0.20379162069810        1.89378167804449
H            6.56212096823692        0.89125715279712        1.96199036652393
H            6.91500693697016       -0.62210683106079        2.78639001442549
H            7.15916183064249       -2.80169177838858       -0.14161782655972
H            8.58665832048905       -1.91560663458697        0.42788924228095
H            7.45130389735588       -2.62597007800516        1.58287702292311
H            2.99199253346717        1.43790086057011       -1.38472838390405
H            0.53478525202138        1.59337631179208       -1.38859949156367
H           -3.41603114189946       -0.22114949398749        1.31623294654057
H           -4.77006052373006       -2.23307585603826        1.43377989891053
H           -3.51460963240538       -5.27573883510871        2.23427813894117
H           -5.10681658924400       -5.96034687300481        1.89372715827133
H           -4.95651265880270       -4.27374996573626        2.38061391780473
H           -2.79656382847491       -6.15529945665176       -0.03463580804541
H           -4.43663198646415       -6.72427580496291       -0.32492227179792
H           -3.67041129100094       -5.65363847062073       -1.49284721357346
H           -5.62754154216681       -4.05383502638043       -1.30647456531672
H           -6.36748241807637       -5.23045355904897       -0.21667147558932
H           -6.21073444109806       -3.54615245591058        0.27686043606833
H           -1.91783614222448       -4.28809371386559       -1.00115625416983
H           -0.58109778464137       -2.27220801724291       -1.12860945229861
H           -0.30627119448257        2.32486972883071        1.12973431938106
H           -1.39273326236124        4.48582890458399        1.00053887867665

          :  Hamiltonian                  GFN2-xTB          :
         :: gradient norm              0.000056513717 Eh/a0 ::
         :: HOMO-LUMO gap              2.882264045878 eV    ::
         :: SCC energy              -103.995046816765 Eh    ::
         :: -> dispersion             -0.086446922184 Eh    ::
         :: repulsion energy           1.618124240006 Eh    ::

    * Orbital Energies and Occupations

         #    Occupation            Energy/Eh            Energy/eV
      -------------------------------------------------------------
         1        2.0000           -0.6879706             -18.7206
       ...           ...                  ...                  ...
        83        2.0000           -0.4158591             -11.3161
        84        2.0000           -0.4126333             -11.2283
        85        2.0000           -0.4071376             -11.0788
        86        2.0000           -0.4067897             -11.0693
        87        2.0000           -0.4060034             -11.0479
        88        2.0000           -0.4003375             -10.8937
        89        2.0000           -0.3971851             -10.8080
        90        2.0000           -0.3965494             -10.7907
        91        2.0000           -0.3942611             -10.7284
        92        2.0000           -0.3929661             -10.6932
        93        2.0000           -0.3908224             -10.6348
        94        2.0000           -0.3883518             -10.5676
        95        2.0000           -0.3376774              -9.1887 (HOMO)
        96                         -0.2317562              -6.3064 (LUMO)
        97                         -0.2195007              -5.9729
        98                         -0.2157644              -5.8712
        99                         -0.2108660              -5.7380
       100                         -0.2086428              -5.6775
       101                         -0.1906709              -5.1884
       102                         -0.1289636              -3.5093
       103                         -0.0899831              -2.4486
       104                         -0.0753644              -2.0508
       105                         -0.0522296              -1.4212
       106                          0.0118344               0.3220
       ...                                ...                  ...
       186                          0.6819057              18.5556
      -------------------------------------------------------------
                  HL-Gap            0.1059212 Eh            2.8823 eV

     #   Z          covCN         q      C6AA      α(0)
     1   6 C        3.762    -0.105    22.558     6.771
     2   6 C        3.903     0.026    20.086     6.371
     3   6 C        3.762    -0.105    22.556     6.770
     4   6 C        3.761    -0.107    22.596     6.776
     5   6 C        2.972    -0.000    28.028     8.684
     6   6 C        2.927    -0.036    28.898     8.816
     7   6 C        2.921    -0.050    29.251     8.869
     8   6 C        2.924     0.061    26.632     8.463
     9   7 N        2.752    -0.074    22.677     7.073
    10   6 C        2.925     0.067    26.497     8.441
    11   6 C        2.919    -0.050    29.232     8.866
    12   6 C        2.923    -0.029    28.735     8.791
    13   6 C        2.886    -0.087    30.171     9.005
    14   5 B        2.662     0.433    15.546     6.636
    15   8 O        1.638    -0.371    20.311     6.083
    16   6 C        3.861     0.129    18.452     6.109
    17   6 C        3.755    -0.117    22.790     6.807
    18   6 C        3.755    -0.115    22.764     6.803
    19   6 C        3.861     0.129    18.452     6.109
    20   6 C        3.755    -0.115    22.764     6.803
    21   6 C        3.755    -0.117    22.790     6.807
    22   8 O        1.638    -0.371    20.311     6.083
    23   6 C        2.923    -0.029    28.735     8.791
    24   6 C        2.919    -0.050    29.232     8.866
    25   6 C        2.924     0.061    26.632     8.463
    26   6 C        2.921    -0.050    29.251     8.869
    27   6 C        2.927    -0.036    28.898     8.816
    28   6 C        2.972    -0.000    28.028     8.684
    29   6 C        3.903     0.026    20.086     6.371
    30   6 C        3.762    -0.105    22.558     6.771
    31   6 C        3.761    -0.107    22.596     6.776
    32   6 C        3.762    -0.105    22.556     6.770
    33   6 C        2.925    -0.040    28.996     8.831
    34   6 C        2.922    -0.051    29.267     8.872
    35   6 C        2.922    -0.051    29.267     8.872
    36   6 C        2.925    -0.040    28.996     8.831
    37   1 H        0.925     0.033     2.539     2.492
    38   1 H        0.925     0.036     2.503     2.474
    39   1 H        0.925     0.036     2.503     2.474
    40   1 H        0.925     0.036     2.502     2.474
    41   1 H        0.925     0.033     2.543     2.494
    42   1 H        0.925     0.036     2.503     2.474
    43   1 H        0.925     0.036     2.508     2.476
    44   1 H        0.925     0.035     2.512     2.478
    45   1 H        0.925     0.035     2.514     2.479
    46   1 H        0.926     0.029     2.597     2.520
    47   1 H        0.926     0.029     2.595     2.519
    48   1 H        0.926     0.032     2.559     2.502
    49   1 H        0.926     0.038     2.473     2.459
    50   1 H        0.925     0.039     2.460     2.453
    51   1 H        0.925     0.054     2.271     2.357
    52   1 H        0.925     0.052     2.301     2.372
    53   1 H        0.925     0.043     2.412     2.429
    54   1 H        0.925     0.052     2.298     2.371
    55   1 H        0.925     0.042     2.423     2.434
    56   1 H        0.925     0.042     2.423     2.434
    57   1 H        0.925     0.043     2.412     2.429
    58   1 H        0.925     0.052     2.298     2.371
    59   1 H        0.925     0.052     2.301     2.372
    60   1 H        0.925     0.039     2.460     2.453
    61   1 H        0.925     0.054     2.271     2.357
    62   1 H        0.926     0.038     2.473     2.459
    63   1 H        0.926     0.032     2.559     2.502
    64   1 H        0.926     0.029     2.595     2.519
    65   1 H        0.926     0.029     2.597     2.520
    66   1 H        0.925     0.033     2.539     2.492
    67   1 H        0.925     0.036     2.503     2.474
    68   1 H        0.925     0.036     2.503     2.474
    69   1 H        0.925     0.036     2.508     2.476
    70   1 H        0.925     0.035     2.514     2.479
    71   1 H        0.925     0.035     2.512     2.478
    72   1 H        0.925     0.033     2.543     2.494
    73   1 H        0.925     0.036     2.503     2.474
    74   1 H        0.925     0.036     2.502     2.474
    75   1 H        0.926     0.036     2.498     2.472
    76   1 H        0.926     0.030     2.588     2.515
    77   1 H        0.926     0.030     2.587     2.515
    78   1 H        0.926     0.036     2.498     2.472

molecular dipole:
                 x           y           z       tot (Debye)
 q only:        0.290      -0.017      -0.000
   full:        0.461      -0.027      -0.000       1.173

 projected vibrational frequencies (cm⁻¹)
eigval :       -0.00    -0.00     0.00     0.00     0.00     0.00
eigval :       12.86    15.93    19.07    24.92    25.23    28.06
eigval :       46.58    54.98    56.60    65.30    70.68    94.98
eigval :      103.04   105.87   128.38   142.38   171.55   171.75
eigval :      183.19   187.18   202.07   216.64   221.50   223.08
eigval :      228.79   230.93   254.80   257.45   257.48   273.27
eigval :      276.14   281.52   290.27   311.70   314.39   315.06
eigval :      316.64   318.90   344.32   354.15   357.18   362.01
eigval :      374.36   376.17   382.66   385.00   388.24   393.81
eigval :      394.52   422.21   431.31   440.15   448.33   460.74
eigval :      463.54   486.16   499.81   517.64   532.18   537.92
eigval :      555.18   579.88   583.08   592.28   605.23   607.77
eigval :      610.81   656.28   683.90   685.95   690.57   695.38
eigval :      717.91   758.25   811.74   812.04   816.39   818.61
eigval :      869.41   871.32   876.60   877.20   882.48   894.51
eigval :      902.82   914.70   915.69   923.02   927.23   928.66
eigval :      929.66   933.01   934.38   946.65   950.39   960.27
eigval :      960.28   962.79   962.83   962.99   963.01   966.42
eigval :      982.57   999.61  1002.73  1006.94  1022.26  1026.49
eigval :     1035.18  1035.70  1035.72  1035.96  1105.20  1108.27
eigval :     1135.49  1145.35  1145.88  1154.03  1155.28  1163.29
eigval :     1165.23  1189.96  1198.41  1198.93  1211.52  1214.03
eigval :     1224.82  1227.84  1227.85  1228.58  1234.40  1234.54
eigval :     1249.51  1268.54  1279.37  1282.82  1285.90  1291.22
eigval :     1305.52  1312.41  1322.57  1325.41  1331.23  1335.73
eigval :     1384.81  1391.12  1397.88  1399.41  1402.74  1405.53
eigval :     1405.58  1405.87  1408.98  1414.58  1417.35  1429.25
eigval :     1429.29  1463.14  1473.53  1478.85  1483.69  1484.35
eigval :     1490.17  1490.73  1492.17  1492.20  1495.07  1495.13
eigval :     1495.50  1501.87  1502.99  1503.23  1506.61  1507.02
eigval :     1507.20  1514.59  1514.60  1519.53  1520.15  1520.21
eigval :     1549.04  1564.80  1569.63  1591.33  1604.09  1607.47
eigval :     3021.19  3021.21  3022.50  3022.53  3027.22  3027.22
eigval :     3029.62  3029.97  3030.36  3031.18  3031.19  3032.01
eigval :     3036.01  3036.02  3036.43  3037.65  3038.17  3038.25
eigval :     3040.06  3040.35  3041.98  3043.49  3046.77  3046.85
eigval :     3047.39  3050.10  3050.19  3050.37  3063.57  3064.40
eigval :     3075.29  3075.72  3076.52  3077.08  3081.87  3082.10
eigval :     3088.31  3089.31  3091.99  3093.01  3112.68  3112.79

   temp. (K)  partition function   enthalpy   heat capacity  entropy
                                   cal/mol     cal/K/mol   cal/K/mol   J/K/mol
 298.15  VIB  0.398E+17            21754.790    133.559    134.161
         ROT  0.303E+08              888.752      2.981     37.218
         INT  0.121E+25            22643.542    136.540    171.379
         TR   0.103E+29             1481.254      4.968     44.395
         TOT                       24124.7958   141.5082   215.7740   902.7986

       T/K    H(0)-H(T)+PV         H(T)/Eh          T*S/Eh         G(T)/Eh
   ------------------------------------------------------------------------
    298.15    0.384453E-01    0.699601E+00    0.102521E+00    0.597079E+00
   ------------------------------------------------------------------------

         :::::::::::::::::::::::::::::::::::::::::::::::::::::
         ::                  THERMODYNAMIC                  ::
         :::::::::::::::::::::::::::::::::::::::::::::::::::::
         :: total free energy        -101.779843107527 Eh   ::
         ::.................................................::
         :: total energy             -102.376922576787 Eh   ::
         :: zero point energy           0.661155368581 Eh   ::
         :: G(RRHO) w/o ZPVE           -0.064075899322 Eh   ::
         :: G(RRHO) contrib.            0.597079469259 Eh   ::
         :::::::::::::::::::::::::::::::::::::::::::::::::::::

           -------------------------------------------------
          | TOTAL ENERGY             -102.376922576787 Eh   |
          | TOTAL ENTHALPY           -101.677321898873 Eh   |
          | TOTAL FREE ENERGY        -101.779843107527 Eh   |
          | GRADIENT NORM               0.000056515152 Eh/α |
          | HOMO-LUMO GAP               2.882263875496 eV   |
           -------------------------------------------------

 * finished run on 2025/07/18 at 23:03:06.481
