   * xtb version 6.7.1 (edcfbbe) compiled by 'albert@albert-system' on 2024-07-22

   ID    Z sym.   atoms
    1    6 C      1-8, 10-13, 16-21, 23-36
    2    7 N      9
    3    5 B      14
    4    8 O      15, 22
    5    1 H      37-78

          program call               : xtb data2507/gas/CN-TPA/CN-TPA_gas_S0_finalOpt.xtbopt.xyz --gfn 2 --spinpol --tblite --uhf 2 --ohess vtight --parallel 40 --molden --ceasefiles --namespace data2507/gas/CN-TPA/CN-TPA_gas_T1_preOpt
 * total energy  :  -102.2651485 Eh     change        0.4581612E-07 Eh
 * total energy  :  -102.2703692 Eh     change       -0.5220659E-02 Eh
 * total energy  :  -102.2715739 Eh     change       -0.1204730E-02 Eh
 * total energy  :  -102.2718302 Eh     change       -0.2562571E-03 Eh
 * total energy  :  -102.2719349 Eh     change       -0.1046805E-03 Eh
 * total energy  :  -102.2719648 Eh     change       -0.2998354E-04 Eh
 * total energy  :  -102.2719833 Eh     change       -0.1848861E-04 Eh
 * total energy  :  -102.2719969 Eh     change       -0.1353458E-04 Eh
 * total energy  :  -102.2720124 Eh     change       -0.1552447E-04 Eh
 * total energy  :  -102.2720236 Eh     change       -0.1125365E-04 Eh
 * total energy  :  -102.2720848 Eh     change       -0.2468125E-06 Eh
 * total energy  :  -102.2720850 Eh     change       -0.2603886E-06 Eh
 * total energy  :  -102.2720853 Eh     change       -0.2173938E-06 Eh
 * total energy  :  -102.2720854 Eh     change       -0.1904756E-06 Eh
 * total energy  :  -102.2720856 Eh     change       -0.1671061E-06 Eh
 * total energy  :  -102.2720858 Eh     change       -0.1468370E-06 Eh
 * total energy  :  -102.2720859 Eh     change       -0.1424504E-06 Eh
 * total energy  :  -102.2720860 Eh     change       -0.1229778E-06 Eh
 * total energy  :  -102.2720860 Eh     change       -0.9296514E-08 Eh
   *** GEOMETRY OPTIMIZATION CONVERGED AFTER 44 ITERATIONS ***

 final structure:
================
78
 xtb: 6.7.1 (edcfbbe)
C           -4.29116041738720        5.45508016473206       -1.41635086197300
C           -4.17182524343831        4.96700925350596        0.03536759877377
C           -5.57292334544165        4.72605308269701        0.61707847821068
C           -3.49785372466143        6.07053796716865        0.85505825070114
C           -3.39464749414584        3.66404212048940        0.05773826942148
C           -3.88544847072454        2.55470424339748       -0.64610805928272
C           -3.22333187842725        1.35246841304786       -0.65852908137652
C           -2.01993515324838        1.19825274406106        0.04611416329341
N           -1.31733151614174       -0.00134195041561        0.00879757349850
C            0.05368042527251        0.00433804403312        0.00584035780024
C            0.80267860977395       -1.04149594215174        0.65059472485241
C            2.15473229574163       -1.01866395864005        0.65271495840673
C            2.90606313182634        0.02003974073951        0.00220547453973
B            4.43506266995988        0.02742188702023       -0.00078256425297
O            5.20750301848086        1.00932569815387       -0.59312097763474
C            6.56705971220717        0.59609430617952       -0.55715595954124
C            7.46242032675403        1.79848602963096       -0.26333259351395
C            6.90834761115891        0.04760304089486       -1.95014928585121
C            6.57448225880478       -0.51989181132611        0.54840863783745
C            6.91481998974133        0.03201115363692        1.94028252058574
C            7.48089593193959       -1.71324328454624        0.25161807548426
O            5.21927020435340       -0.94673601678510        0.58883676459199
C            2.14242983333163        1.05042099936435       -0.64560916628581
C            0.79010134728171        1.05849274590229       -0.64110087698455
C           -2.00983623972955       -1.20720114658592       -0.02480705342246
C           -3.20515239805354       -1.37358515428712        0.68943305671603
C           -3.86140003974380       -2.58293060274112        0.68418268208564
C           -3.36810325449247       -3.68184744533912       -0.02409585683088
C           -4.06349298673453       -5.03016047467941       -0.05480499151707
C           -3.11520873352733       -6.09650684034148        0.51325683823593
C           -4.42159439542069       -5.37719681962095       -1.50784367725091
C           -5.35283149866065       -5.04906848579415        0.77079377791864
C           -2.17265003129983       -3.50370606768026       -0.73206409886698
C           -1.50193213648313       -2.30557575970137       -0.73628778781117
C           -1.51635927699492        2.30241347848494        0.75103171728194
C           -2.19537890590151        3.49979927659792        0.75267874761132
H           -3.30228039526763        5.60720031035764       -1.84371577420673
H           -4.82255889032293        4.73677393093852       -2.03430981625182
H           -4.83117750304782        6.39890520556352       -1.45040255559506
H           -6.12365359594329        3.99254951655966        0.03486845885020
H           -5.49747131852172        4.36289462634233        1.63997252553714
H           -6.14106414874139        5.65381430105780        0.62106554877745
H           -2.50806269501176        6.29779101268287        0.46623000656926
H           -3.41400249864349        5.78559459106724        1.90125198781213
H           -4.09597122084170        6.97798504064687        0.80154421121445
H           -4.80469667138221        2.63781133125968       -1.20557519271518
H           -3.61142104130979        0.52107554026218       -1.22890550938326
H            0.25450989810971       -1.80414580991339        1.18561515018688
H            2.71562959154724       -1.78430350315578        1.16632924675051
H            8.49363802185935        1.47820864168332       -0.13929490025401
H            7.40708928667427        2.49179289809349       -1.09917216102304
H            7.13491580634071        2.32165867162814        0.62929302327267
H            6.27358462274226       -0.80424164640983       -2.18170993074417
H            6.70904986425744        0.82470247245386       -2.68485198814283
H            7.95306357714031       -0.24198126980863       -2.01519239738710
H            7.95678129745932        0.33207726986924        2.00190325350045
H            6.27228579297376        0.87742917966101        2.17395224185369
H            6.72574767654298       -0.74705119139864        2.67560771922838
H            7.15566084940009       -2.23975963535316       -0.63987218392133
H            8.50841494635945       -1.38261989030490        0.12408256790073
H            7.43536267081883       -2.40700502673587        1.08767033477507
H            2.69381959013459        1.82214467317449       -1.16050915994902
H            0.23253375926304        1.81433913194749       -1.17594137348206
H           -3.59540173492125       -0.54650808870178        1.26449014962549
H           -4.77207579539779       -2.66606760638689        1.25418767786505
H           -2.20393189678015       -6.16992187979832       -0.07346880526366
H           -3.60170175314485       -7.06960987881503        0.51070631145151
H           -2.84236804564076       -5.84932246872740        1.53709210078473
H           -3.53385016674425       -5.44186158949939       -2.13054836533415
H           -4.93605282468541       -6.33494929060500       -1.54768821917601
H           -5.07679850512877       -4.61556993503140       -1.92564016750534
H           -6.07173872268020       -4.32657137752394        0.39131538762013
H           -5.80634458975378       -6.03638482497273        0.71125548526662
H           -5.15059149163641       -4.83594923597954        1.81788592750720
H           -1.75963550515070       -4.32160057083240       -1.30240081178018
H           -0.59410283013402       -2.18541794602129       -1.30845802623816
H           -0.60390535281652        2.19055335547329        1.31735435623289
H           -1.77753305984607        4.31568798611594        1.31905378435893

 projected vibrational frequencies (cm⁻¹)
eigval :       -0.00    -0.00    -0.00    -0.00     0.00     0.00
eigval :       13.42    18.25    20.20    24.45    25.48    29.24
eigval :       45.11    54.50    61.38    64.56    77.64    98.10
eigval :      103.55   110.11   114.51   142.77   167.09   170.30
eigval :      177.25   180.85   204.56   214.39   219.01   221.11
eigval :      226.15   227.56   236.43   256.44   262.92   273.63
eigval :      277.14   278.56   281.88   307.65   310.46   314.90
eigval :      315.79   322.19   328.33   341.45   349.57   354.36
eigval :      360.02   373.50   378.41   382.64   387.39   391.16
eigval :      393.33   407.76   417.77   425.10   435.17   454.57
eigval :      459.13   488.65   491.71   516.09   521.76   524.69
eigval :      535.05   546.75   569.66   578.94   585.53   603.51
eigval :      606.53   614.27   630.70   671.94   675.80   691.40
eigval :      705.26   744.43   775.73   786.38   793.54   802.53
eigval :      807.07   847.29   850.72   865.84   872.70   882.70
eigval :      883.94   897.91   899.53   902.46   904.46   906.75
eigval :      909.89   918.28   920.26   939.62   944.96   948.22
eigval :      958.90   959.02   961.51   961.99   962.89   962.91
eigval :      965.69   978.65   994.07   996.38   998.82  1005.31
eigval :     1033.66  1033.74  1033.87  1034.29  1036.66  1078.24
eigval :     1110.95  1126.57  1133.51  1135.13  1150.39  1151.60
eigval :     1159.76  1165.31  1173.13  1178.28  1183.07  1183.86
eigval :     1213.81  1220.43  1223.44  1223.60  1227.14  1229.00
eigval :     1229.88  1247.06  1260.50  1270.01  1274.42  1284.92
eigval :     1286.89  1293.34  1305.13  1312.04  1329.11  1332.25
eigval :     1344.38  1382.95  1383.09  1388.80  1391.95  1397.47
eigval :     1404.63  1404.66  1404.85  1405.35  1406.53  1417.40
eigval :     1427.81  1428.03  1432.80  1435.74  1443.00  1463.37
eigval :     1464.83  1474.81  1479.93  1485.44  1491.16  1491.27
eigval :     1493.81  1493.92  1496.44  1496.98  1499.09  1501.36
eigval :     1503.73  1503.80  1505.31  1507.83  1510.11  1514.02
eigval :     1514.28  1514.97  1519.46  1519.54  1520.35  1619.04
eigval :     3023.36  3023.43  3024.71  3024.84  3027.63  3027.99
eigval :     3028.45  3029.21  3031.18  3031.54  3032.28  3032.63
eigval :     3032.91  3034.02  3036.49  3037.15  3037.40  3037.41
eigval :     3039.60  3040.13  3040.18  3041.15  3044.01  3046.44
eigval :     3047.55  3048.86  3050.74  3052.07  3061.87  3062.88
eigval :     3063.24  3064.45  3076.54  3080.18  3082.74  3087.05
eigval :     3091.31  3092.05  3093.04  3094.54  3115.32  3116.15

   temp. (K)  partition function   enthalpy   heat capacity  entropy
                                   cal/mol     cal/K/mol   cal/K/mol   J/K/mol
 298.15  VIB  0.422E+17            22087.585    135.988    135.797
         ROT  0.605E+08              888.752      2.981     38.589
         INT  0.255E+25            22976.338    138.969    174.386
         TR   0.103E+29             1481.254      4.968     44.395
         TOT                       24457.5916   143.9373   218.7814   915.3813

       T/K    H(0)-H(T)+PV         H(T)/Eh          T*S/Eh         G(T)/Eh
   ------------------------------------------------------------------------
    298.15    0.389757E-01    0.694843E+00    0.103950E+00    0.590893E+00
   ------------------------------------------------------------------------

         :::::::::::::::::::::::::::::::::::::::::::::::::::::
         ::                  THERMODYNAMIC                  ::
         :::::::::::::::::::::::::::::::::::::::::::::::::::::
         :: total free energy        -101.681192641084 Eh   ::
         ::.................................................::
         :: total energy             -102.272086029078 Eh   ::
         :: zero point energy           0.655867825527 Eh   ::
         :: G(RRHO) w/o ZPVE           -0.064974437533 Eh   ::
         :: G(RRHO) contrib.            0.590893387994 Eh   ::
         :::::::::::::::::::::::::::::::::::::::::::::::::::::

           -------------------------------------------------
          | TOTAL ENERGY             -102.272086029078 Eh   |
          | TOTAL ENTHALPY           -101.577242550382 Eh   |
          | TOTAL FREE ENERGY        -101.681192641084 Eh   |
          | GRADIENT NORM               0.000043627627 Eh/α |
           -------------------------------------------------

 * finished run on 2025/07/18 at 23:08:11.133
