   * xtb version 6.7.1 (edcfbbe) compiled by 'albert@albert-system' on 2024-07-22

   ID    Z sym.   atoms
    1    6 C      1-8, 10-13, 16-21, 23-36
    2    7 N      9
    3    5 B      14
    4    8 O      15, 22
    5    1 H      37-78

          program call               : xtb data2507/gas/CN-TPA/CN-TPA_gas_S0_crest.xyz --gfn 2 --ohess vtight --parallel 40 --molden --ceasefiles --namespace data2507/gas/CN-TPA/CN-TPA_gas_S0_finalOpt
          :  Hamiltonian                  GFN2-xTB          :
 * total energy  :  -102.3769826 Eh     change       -0.6559162E-09 Eh
 * total energy  :  -102.3769830 Eh     change       -0.4724044E-06 Eh
 * total energy  :  -102.3769834 Eh     change       -0.4055488E-06 Eh
 * total energy  :  -102.3769845 Eh     change       -0.1044705E-05 Eh
 * total energy  :  -102.3769847 Eh     change       -0.2216835E-06 Eh
 * total energy  :  -102.3769849 Eh     change       -0.2200771E-06 Eh
 * total energy  :  -102.3769851 Eh     change       -0.2110494E-06 Eh
 * total energy  :  -102.3769853 Eh     change       -0.1681352E-06 Eh
 * total energy  :  -102.3769854 Eh     change       -0.1544250E-06 Eh
 * total energy  :  -102.3769856 Eh     change       -0.1563606E-06 Eh
 * total energy  :  -102.3769858 Eh     change       -0.1639688E-06 Eh
 * total energy  :  -102.3769860 Eh     change       -0.1918071E-06 Eh
 * total energy  :  -102.3769862 Eh     change       -0.2444256E-06 Eh
 * total energy  :  -102.3769864 Eh     change       -0.2415797E-06 Eh
 * total energy  :  -102.3769866 Eh     change       -0.1785661E-06 Eh
 * total energy  :  -102.3769867 Eh     change       -0.9421777E-07 Eh
   *** GEOMETRY OPTIMIZATION CONVERGED AFTER 16 ITERATIONS ***

 final structure:
================
78
 xtb: 6.7.1 (edcfbbe)
C           -4.33418248317575        5.43548008859121       -1.40745594634741
C           -4.22946991313538        4.92476450792425        0.03662895446735
C           -5.63324723519531        4.64235166127087        0.59053527142747
C           -3.59463286854528        6.02817567575510        0.88726985266856
C           -3.42193811630163        3.63668403108018        0.05062727457564
C           -3.87019703573846        2.53522011008691       -0.67572811506171
C           -3.17270250166871        1.34605849036715       -0.69894554164786
C           -1.98708536119696        1.20885842634789        0.02060649078378
N           -1.27715318212702        0.00257134389412        0.00935762189258
C            0.11841277883880        0.00889930383986        0.00707837726972
C            0.83576426094925       -0.97527081983574        0.69012098954867
C            2.21409522225663       -0.96484465718721        0.68108293191919
C            2.93369724960634        0.01998210604544        0.00095557164667
B            4.49242913368148        0.02597326344272       -0.00218526240392
O            5.25032870912674        0.97463297656522       -0.63087712388992
C            6.62083102231107        0.58423698878024       -0.56759284688367
C            7.48586439112010        1.80849857398912       -0.27605066407290
C            6.98959111297991        0.02801040120955       -1.94901573753104
C            6.62694745225698       -0.51545246772677        0.55634645237292
C            6.99508022385908        0.04382742943787        1.93670586978384
C            7.50106060261311       -1.73265626581427        0.26236892759898
O            5.25983111221606       -0.91685905526856        0.62372805461413
C            2.20336712604390        0.99921800066284       -0.67580974445222
C            0.82495089919771        0.99885857215690       -0.67879074306527
C           -1.97511605045372       -1.21069078074720        0.00264457779438
C           -3.15501919074121       -1.36076954077246        0.72517810007537
C           -3.84541600401342       -2.55805197601843        0.70898287872152
C           -3.38765791790512       -3.65166809459995       -0.01620895958689
C           -4.11315294683124       -4.98713411430957       -0.05595284139863
C           -3.18044458408858       -6.08033633053918        0.48440520676728
C           -4.49952605257989       -5.30515713797091       -1.50744286991202
C           -5.39020750430639       -4.99015636164897        0.78863254898304
C           -2.20377945540748       -3.48993345633350       -0.73350922446852
C           -1.50947199059475       -2.29888030955214       -0.73340874168752
C           -1.53159174421855        2.30061938643103        0.75388966855065
C           -2.23647801875018        3.48932773831397        0.76118401512884
H           -3.34163409350336        5.62014780335287       -1.81318757895521
H           -4.83447849750844        4.71413895292970       -2.04750564334507
H           -4.89799011537107        6.36565710433411       -1.43676267848118
H           -6.15783098385305        3.90879196833766       -0.01528327125696
H           -5.56578436828188        4.25952327710857        1.60684267795601
H           -6.22252893382822        5.55696475350310        0.60437456417757
H           -2.60351665352931        6.28398532260786        0.51995515709236
H           -3.52200793834840        5.72598469135352        1.92946415911154
H           -4.21188873942745        6.92321365213742        0.83939808800269
H           -4.78305945079978        2.60026745725587       -1.24870514592005
H           -3.54229523355506        0.51306968994989       -1.27924197015456
H            0.29945179025801       -1.74150309291032        1.23133849004529
H            2.76032230511369       -1.72708292583509        1.21609456612587
H            8.52287835543495        1.51280168227967       -0.14195465561185
H            7.42130765607115        2.49325927849991       -1.11808030968029
H            7.14022033022462        2.33195356487949        0.60947287885921
H            6.36441527462448       -0.82846085489839       -2.18892800070767
H            6.80149683921003        0.79912357143174       -2.69268053794193
H            8.03661447471876       -0.25655703059229       -1.99158592607028
H            8.03974341023280        0.33733268936824        1.97623515242552
H            6.36329464830285        0.89490824917479        2.17849543816807
H            6.81575582255436       -0.72889094737850        2.68086829971774
H            7.15754254255464       -2.25870664323832       -0.62244116075569
H            8.53533451366960       -1.42858070614303        0.12585070591095
H            7.44404410405177       -2.41809463928089        1.10439119606558
H            2.74125247078670        1.76578650709281       -1.21309095552659
H            0.28022145076560        1.76084076047251       -1.21758819635507
H           -3.53164192203522       -0.53115496770051        1.30590639965764
H           -4.75275603302544       -2.62281112184020        1.28710402470794
H           -2.28042321773211       -6.16636264272863       -0.11791833532563
H           -3.68754845391894       -7.04304925611446        0.47891508960833
H           -2.88576409953491       -5.85091612921518        1.50639937495420
H           -3.62228634456134       -5.37556287361676       -2.14442683590563
H           -5.03226522057679       -6.25271598400267       -1.55520782047894
H           -5.14632120344259       -4.52487511286802       -1.90340514799420
H           -6.09875096898302       -4.24735969703555        0.42949284776020
H           -5.86572405659555       -5.96688557773611        0.72336361349947
H           -5.16769201692397       -4.79450149477090        1.83502926847055
H           -1.80963322080411       -4.30770941719429       -1.31801160310912
H           -0.59938680796293       -2.20224121895201       -1.30733723573564
H           -0.61790798892770        2.21353298802964        1.32372705014994
H           -1.84171142602487        4.30388840528522        1.34619267696251

          :  Hamiltonian                  GFN2-xTB          :
         :: gradient norm              0.000049666699 Eh/a0 ::
         :: HOMO-LUMO gap              2.890899008264 eV    ::
         :: SCC energy              -103.995122430149 Eh    ::
         :: -> dispersion             -0.086446764992 Eh    ::
         :: repulsion energy           1.618135710430 Eh    ::

    * Orbital Energies and Occupations

         #    Occupation            Energy/Eh            Energy/eV
      -------------------------------------------------------------
         1        2.0000           -0.6877209             -18.7138
       ...           ...                  ...                  ...
        83        2.0000           -0.4155183             -11.3068
        84        2.0000           -0.4133602             -11.2481
        85        2.0000           -0.4074053             -11.0861
        86        2.0000           -0.4062922             -11.0558
        87        2.0000           -0.4060057             -11.0480
        88        2.0000           -0.4000288             -10.8853
        89        2.0000           -0.3971503             -10.8070
        90        2.0000           -0.3965400             -10.7904
        91        2.0000           -0.3946874             -10.7400
        92        2.0000           -0.3925790             -10.6826
        93        2.0000           -0.3904004             -10.6233
        94        2.0000           -0.3886498             -10.5757
        95        2.0000           -0.3377224              -9.1899 (HOMO)
        96                         -0.2314838              -6.2990 (LUMO)
        97                         -0.2196554              -5.9771
        98                         -0.2159012              -5.8750
        99                         -0.2110514              -5.7430
       100                         -0.2082680              -5.6673
       101                         -0.1909047              -5.1948
       102                         -0.1282376              -3.4895
       103                         -0.0901018              -2.4518
       104                         -0.0755838              -2.0567
       105                         -0.0513257              -1.3966
       106                          0.0119709               0.3257
       ...                                ...                  ...
       186                          0.6812652              18.5382
      -------------------------------------------------------------
                  HL-Gap            0.1062386 Eh            2.8909 eV

     #   Z          covCN         q      C6AA      α(0)
     1   6 C        3.762    -0.105    22.559     6.771
     2   6 C        3.903     0.026    20.086     6.370
     3   6 C        3.762    -0.105    22.556     6.770
     4   6 C        3.761    -0.107    22.597     6.776
     5   6 C        2.972     0.000    28.024     8.683
     6   6 C        2.927    -0.036    28.896     8.816
     7   6 C        2.921    -0.050    29.247     8.869
     8   6 C        2.924     0.061    26.633     8.463
     9   7 N        2.752    -0.074    22.674     7.072
    10   6 C        2.924     0.067    26.497     8.442
    11   6 C        2.919    -0.050    29.244     8.868
    12   6 C        2.923    -0.029    28.736     8.791
    13   6 C        2.886    -0.087    30.180     9.007
    14   5 B        2.660     0.432    15.555     6.640
    15   8 O        1.638    -0.371    20.308     6.083
    16   6 C        3.860     0.129    18.454     6.109
    17   6 C        3.755    -0.117    22.789     6.807
    18   6 C        3.755    -0.115    22.763     6.803
    19   6 C        3.860     0.129    18.454     6.109
    20   6 C        3.755    -0.115    22.763     6.803
    21   6 C        3.755    -0.117    22.789     6.807
    22   8 O        1.638    -0.371    20.308     6.083
    23   6 C        2.923    -0.029    28.736     8.791
    24   6 C        2.919    -0.050    29.243     8.868
    25   6 C        2.924     0.061    26.632     8.463
    26   6 C        2.922    -0.051    29.261     8.871
    27   6 C        2.925    -0.040    29.001     8.831
    28   6 C        2.972     0.000    28.025     8.684
    29   6 C        3.903     0.026    20.086     6.371
    30   6 C        3.762    -0.105    22.559     6.771
    31   6 C        3.762    -0.105    22.558     6.770
    32   6 C        3.761    -0.107    22.594     6.776
    33   6 C        2.927    -0.036    28.892     8.815
    34   6 C        2.921    -0.050    29.248     8.869
    35   6 C        2.922    -0.051    29.261     8.871
    36   6 C        2.925    -0.040    28.996     8.831
    37   1 H        0.925     0.033     2.538     2.491
    38   1 H        0.925     0.036     2.503     2.474
    39   1 H        0.925     0.036     2.502     2.474
    40   1 H        0.925     0.036     2.502     2.474
    41   1 H        0.925     0.033     2.543     2.494
    42   1 H        0.925     0.036     2.503     2.474
    43   1 H        0.925     0.036     2.507     2.476
    44   1 H        0.925     0.035     2.511     2.478
    45   1 H        0.925     0.035     2.513     2.479
    46   1 H        0.926     0.029     2.596     2.520
    47   1 H        0.926     0.029     2.597     2.520
    48   1 H        0.926     0.032     2.561     2.502
    49   1 H        0.926     0.038     2.475     2.460
    50   1 H        0.925     0.039     2.460     2.453
    51   1 H        0.925     0.054     2.272     2.357
    52   1 H        0.925     0.051     2.303     2.373
    53   1 H        0.925     0.043     2.412     2.429
    54   1 H        0.925     0.052     2.298     2.371
    55   1 H        0.925     0.042     2.424     2.435
    56   1 H        0.925     0.042     2.424     2.435
    57   1 H        0.925     0.043     2.412     2.429
    58   1 H        0.925     0.052     2.298     2.371
    59   1 H        0.925     0.051     2.303     2.373
    60   1 H        0.925     0.039     2.460     2.453
    61   1 H        0.925     0.054     2.271     2.357
    62   1 H        0.926     0.038     2.476     2.461
    63   1 H        0.926     0.032     2.562     2.503
    64   1 H        0.926     0.029     2.597     2.520
    65   1 H        0.926     0.036     2.502     2.473
    66   1 H        0.925     0.036     2.498     2.472
    67   1 H        0.925     0.036     2.503     2.474
    68   1 H        0.925     0.033     2.539     2.492
    69   1 H        0.925     0.036     2.501     2.473
    70   1 H        0.925     0.036     2.502     2.474
    71   1 H        0.925     0.033     2.544     2.494
    72   1 H        0.925     0.035     2.512     2.479
    73   1 H        0.925     0.035     2.513     2.479
    74   1 H        0.925     0.035     2.510     2.478
    75   1 H        0.926     0.030     2.591     2.517
    76   1 H        0.926     0.030     2.582     2.513
    77   1 H        0.926     0.030     2.582     2.513
    78   1 H        0.926     0.036     2.496     2.471

molecular dipole:
                 x           y           z       tot (Debye)
 q only:        0.265       0.001       0.002
   full:        0.449      -0.005      -0.009       1.141

 projected vibrational frequencies (cm⁻¹)
eigval :       -0.00    -0.00    -0.00     0.00     0.00     0.00
eigval :       12.85    16.12    19.43    24.27    25.22    28.48
eigval :       46.87    53.55    57.41    65.44    67.39    97.84
eigval :      101.12   107.13   126.88   143.84   170.03   171.89
eigval :      179.13   190.72   201.56   216.99   221.45   222.33
eigval :      229.97   233.37   251.81   257.54   267.92   272.20
eigval :      277.58   280.92   283.67   308.48   313.96   315.21
eigval :      315.41   324.96   345.12   353.17   357.86   361.26
eigval :      374.75   377.07   383.43   385.35   388.29   393.22
eigval :      394.77   421.93   430.38   440.62   449.38   460.35
eigval :      463.95   488.45   498.42   517.37   532.26   537.80
eigval :      555.12   579.64   582.99   592.43   604.99   607.93
eigval :      610.82   656.12   683.72   686.17   690.30   695.35
eigval :      717.87   758.19   811.74   812.22   816.59   818.79
eigval :      869.92   870.88   876.43   877.41   882.64   894.86
eigval :      902.81   914.47   915.85   922.93   928.01   928.32
eigval :      929.68   933.34   934.23   946.19   950.50   960.27
eigval :      960.28   962.73   962.90   962.96   962.99   966.05
eigval :      982.41   999.64  1002.76  1006.74  1022.19  1026.63
eigval :     1035.30  1035.67  1035.72  1035.77  1105.78  1109.33
eigval :     1136.17  1145.28  1145.71  1154.01  1154.88  1162.91
eigval :     1165.02  1190.31  1198.31  1199.39  1211.34  1213.45
eigval :     1224.75  1227.83  1227.84  1228.60  1234.46  1234.47
eigval :     1248.56  1268.79  1279.69  1282.38  1285.95  1291.14
eigval :     1305.53  1312.44  1323.55  1325.04  1330.84  1335.60
eigval :     1384.59  1391.21  1397.93  1399.31  1402.71  1405.59
eigval :     1405.66  1406.05  1409.10  1414.60  1417.27  1429.28
eigval :     1429.30  1462.94  1473.52  1479.10  1483.65  1484.70
eigval :     1490.20  1490.43  1492.12  1492.19  1495.07  1495.10
eigval :     1495.59  1501.75  1503.10  1503.22  1506.88  1506.90
eigval :     1507.10  1514.59  1514.62  1520.02  1520.14  1520.19
eigval :     1548.83  1565.08  1569.51  1591.48  1603.97  1607.43
eigval :     3021.29  3021.30  3022.50  3022.59  3027.18  3027.27
eigval :     3029.63  3029.98  3030.38  3031.11  3031.21  3032.02
eigval :     3035.97  3036.04  3036.58  3037.79  3038.26  3038.34
eigval :     3040.38  3040.42  3042.28  3043.68  3046.92  3047.15
eigval :     3047.57  3050.39  3050.43  3050.54  3063.25  3064.06
eigval :     3075.45  3076.20  3076.56  3077.90  3080.58  3082.12
eigval :     3088.77  3089.76  3092.02  3093.04  3112.16  3112.83

   temp. (K)  partition function   enthalpy   heat capacity  entropy
                                   cal/mol     cal/K/mol   cal/K/mol   J/K/mol
 298.15  VIB  0.400E+17            21752.501    133.517    134.141
         ROT  0.607E+08              888.752      2.981     38.596
         INT  0.243E+25            22641.253    136.498    172.737
         TR   0.103E+29             1481.254      4.968     44.395
         TOT                       24122.5071   141.4663   217.1325   908.4826

       T/K    H(0)-H(T)+PV         H(T)/Eh          T*S/Eh         G(T)/Eh
   ------------------------------------------------------------------------
    298.15    0.384417E-01    0.699616E+00    0.103167E+00    0.596449E+00
   ------------------------------------------------------------------------

         :::::::::::::::::::::::::::::::::::::::::::::::::::::
         ::                  THERMODYNAMIC                  ::
         :::::::::::::::::::::::::::::::::::::::::::::::::::::
         :: total free energy        -101.780537737257 Eh   ::
         ::.................................................::
         :: total energy             -102.376986719718 Eh   ::
         :: zero point energy           0.661174000577 Eh   ::
         :: G(RRHO) w/o ZPVE           -0.064725018115 Eh   ::
         :: G(RRHO) contrib.            0.596448982461 Eh   ::
         :::::::::::::::::::::::::::::::::::::::::::::::::::::

           -------------------------------------------------
          | TOTAL ENERGY             -102.376986719718 Eh   |
          | TOTAL ENTHALPY           -101.677371057191 Eh   |
          | TOTAL FREE ENERGY        -101.780537737257 Eh   |
          | GRADIENT NORM               0.000049674852 Eh/α |
          | HOMO-LUMO GAP               2.890900585432 eV   |
           -------------------------------------------------

 * finished run on 2025/07/18 at 23:08:03.847
