   * xtb version 6.7.1 (edcfbbe) compiled by 'albert@albert-system' on 2024-07-22

   ID    Z sym.   atoms
    1    6 C      1-3, 5-16, 18, 20-23, 25-39, 41-45
    2    7 N      4, 17, 19, 24, 40
    3    1 H      46-70

          program call               : xtb data2507/gas/2CzCbPy/2CzCbPy_gas_S0_crest.xyz --gfn 2 --ohess vtight --parallel 40 --molden --ceasefiles --namespace data2507/gas/2CzCbPy/2CzCbPy_gas_S0_finalOpt
          :  Hamiltonian                  GFN2-xTB          :
 * total energy  :  -113.1355961 Eh     change       -0.3411486E-08 Eh
 * total energy  :  -113.1355978 Eh     change       -0.1684052E-05 Eh
 * total energy  :  -113.1356004 Eh     change       -0.2644901E-05 Eh
 * total energy  :  -113.1356036 Eh     change       -0.3224495E-05 Eh
 * total energy  :  -113.1356059 Eh     change       -0.2215551E-05 Eh
 * total energy  :  -113.1356074 Eh     change       -0.1570130E-05 Eh
 * total energy  :  -113.1356092 Eh     change       -0.1768969E-05 Eh
 * total energy  :  -113.1356119 Eh     change       -0.2722162E-05 Eh
 * total energy  :  -113.1356159 Eh     change       -0.3995236E-05 Eh
 * total energy  :  -113.1356201 Eh     change       -0.4163484E-05 Eh
 * total energy  :  -113.1356322 Eh     change       -0.2612966E-05 Eh
 * total energy  :  -113.1356344 Eh     change       -0.2228852E-05 Eh
 * total energy  :  -113.1356360 Eh     change       -0.1651744E-05 Eh
 * total energy  :  -113.1356372 Eh     change       -0.1135223E-05 Eh
 * total energy  :  -113.1356380 Eh     change       -0.8393109E-06 Eh
 * total energy  :  -113.1356387 Eh     change       -0.7258176E-06 Eh
 * total energy  :  -113.1356395 Eh     change       -0.7363585E-06 Eh
 * total energy  :  -113.1356403 Eh     change       -0.8392938E-06 Eh
 * total energy  :  -113.1356403 Eh     change       -0.5352518E-08 Eh
   *** GEOMETRY OPTIMIZATION CONVERGED AFTER 22 ITERATIONS ***

 final structure:
================
70
 xtb: 6.7.1 (edcfbbe)
C            4.19264699277538       -3.21467767250017       -0.72604153597739
C            4.67192362130505       -1.93568008969132       -0.50769699148108
C            3.74153320262284       -0.93238670427198       -0.22182733897499
N            4.10187229433292        0.39684619337321       -0.07760746927810
C            3.47633842630682        1.30750733453700        0.77032099261076
C            2.39787373521430        1.13376108381287        1.62361222208433
C            1.98880384706101        2.21835488178414        2.37761527941099
C            2.63642480243834        3.44792778594662        2.29862474633989
C            3.71978919150838        3.62278777624760        1.46076155001450
C            4.14307233834486        2.54815006713563        0.69053103074471
C            5.19528359630273        2.39236806919498       -0.27631374188367
C            6.13600567940798        3.27174149054000       -0.79301684609803
C            6.98705044871340        2.82410277384818       -1.78398279837775
C            6.88158209094608        1.52715222999612       -2.27571165551247
C            5.95323443974178        0.63393650957666       -1.77150528623504
C            5.12750133057828        1.05950532451425       -0.74101078681322
N            2.45599423102062       -1.20307535815496       -0.04402828491236
C            2.00759648698751       -2.43999438597680       -0.19843696837903
N            0.65217389635886       -2.61858102567960        0.04869332092361
C           -0.32222308507677       -1.63591819127579       -0.10687459525267
C           -0.20442342514141       -0.32833133927554       -0.55513015390671
C           -1.34744873731547        0.44147399434997       -0.61711992601221
C           -2.59776119146745       -0.06288627403327       -0.23662747373139
N           -3.71871550738234        0.77858534167772       -0.28496674744487
C           -3.80109994389613        2.03667364350758        0.27670239794505
C           -2.86487610226265        2.73209934400062        1.02913025664216
C           -3.21664636589512        3.98241192190599        1.49982600810262
C           -4.47017148636622        4.53230658616724        1.23971936914100
C           -5.41299497542098        3.83643202599947        0.51011832215601
C           -5.08350465487396        2.57717476920922        0.02603609294562
C           -5.80141852788917        1.58948687599058       -0.72963107211061
C           -7.07710999180011        1.54556368867692       -1.27666768274817
C           -7.45602376933471        0.42094507058988       -1.98164997379719
C           -6.57707885110227       -0.64632699192460       -2.15459836566802
C           -5.30337893916161       -0.62665242133099       -1.62000711454232
C           -4.92361190283285        0.49306779498016       -0.89387949139125
C           -2.72606134385318       -1.37667729105620        0.18838979379821
C           -1.58381671972023       -2.16135043163860        0.24357786224794
C           -1.36123470117439       -3.51970292195215        0.65210001575955
N           -2.23211370423083       -4.41322441348092        1.09170220375402
C           -1.74372576921537       -5.58263581777268        1.45820368184385
C           -0.38658878114420       -5.89634799557803        1.44346662688088
C            0.53670528305554       -4.97031729695322        0.98393519844975
C            0.03556860420259       -3.75679851616669        0.53699236666214
C            2.83941250794953       -3.48414404119531       -0.60437631266795
H            4.87638548914687       -4.00766331705153       -0.99173796710308
H            5.72692066183874       -1.72425919724485       -0.53748498501791
H            1.88655673313732        0.18799648569839        1.68851806285987
H            1.14490216571320        2.10691209749777        3.04238445186621
H            2.28520040925815        4.27206123768407        2.90154541895106
H            4.22910938994178        4.57260007592643        1.40001959971757
H            6.18913268423471        4.28730846310781       -0.43144320882881
H            7.72885079481230        3.48971425740983       -2.19899956765897
H            7.53372406252452        1.20965147489571       -3.07583707289565
H            5.86713398976109       -0.35182233434701       -2.20064611965610
H            0.75075324683418        0.07953791518496       -0.83850177700711
H           -1.28445464227961        1.45891186560591       -0.97225811210994
H           -1.89628550212153        2.30864233622969        1.24911313993233
H           -2.50441065787138        4.54504680643638        2.08546640686178
H           -4.70581060550270        5.51378122901661        1.62384347992498
H           -6.38956012351582        4.25623904204974        0.32099684883640
H           -7.75340680751813        2.37820659104141       -1.15382826478758
H           -8.44428118521525        0.36580303413266       -2.41367925378395
H           -6.89807297252367       -1.50770299479748       -2.72176026973366
H           -4.62454351122633       -1.45236406922100       -1.77076911404469
H           -3.67859525838798       -1.78179517093378        0.48946031381471
H           -2.47198062914235       -6.30364622485582        1.80351773782373
H           -0.05378761128477       -6.85829357276939        1.80111353683082
H            1.59282947915770       -5.19192508030436        1.00821995626180
H            2.44448700151341       -4.45890707534654       -0.83315898051590

          :  Hamiltonian                  GFN2-xTB          :
         :: gradient norm              0.000057144165 Eh/a0 ::
         :: HOMO-LUMO gap              2.339971006611 eV    ::
         :: SCC energy              -115.211230457889 Eh    ::
         :: -> dispersion             -0.101328309948 Eh    ::
         :: repulsion energy           2.075590140564 Eh    ::

    * Orbital Energies and Occupations

         #    Occupation            Energy/Eh            Energy/eV
      -------------------------------------------------------------
         1        2.0000           -0.6911368             -18.8068
       ...           ...                  ...                  ...
        93        2.0000           -0.4150361             -11.2937
        94        2.0000           -0.4117171             -11.2034
        95        2.0000           -0.4107271             -11.1765
        96        2.0000           -0.4097608             -11.1502
        97        2.0000           -0.3980707             -10.8321
        98        2.0000           -0.3954865             -10.7617
        99        2.0000           -0.3891049             -10.5881
       100        2.0000           -0.3835493             -10.4369
       101        2.0000           -0.3827153             -10.4142
       102        2.0000           -0.3713286             -10.1044
       103        2.0000           -0.3708478             -10.0913
       104        2.0000           -0.3701171             -10.0714
       105        2.0000           -0.3541709              -9.6375 (HOMO)
       106                         -0.2681786              -7.2975 (LUMO)
       107                         -0.2614189              -7.1136
       108                         -0.2560720              -6.9681
       109                         -0.2459214              -6.6919
       110                         -0.2409851              -6.5575
       111                         -0.2357460              -6.4150
       112                         -0.2265145              -6.1638
       113                         -0.2145725              -5.8388
       114                         -0.2103700              -5.7245
       115                         -0.2017614              -5.4902
       116                         -0.1937186              -5.2714
       ...                                ...                  ...
       205                          0.7534150              20.5015
      -------------------------------------------------------------
                  HL-Gap            0.0859923 Eh            2.3400 eV

     #   Z          covCN         q      C6AA      α(0)
     1   6 C        2.930    -0.014    28.360     8.734
     2   6 C        2.915    -0.067    29.671     8.932
     3   6 C        2.889     0.153    24.688     8.146
     4   7 N        2.805    -0.040    22.012     6.968
     5   6 C        3.064     0.052    26.769     8.484
     6   6 C        2.910    -0.046    29.133     8.851
     7   6 C        2.925    -0.031    28.786     8.799
     8   6 C        2.920    -0.038    28.936     8.821
     9   6 C        2.913    -0.033    28.812     8.802
    10   6 C        3.065    -0.014    28.296     8.723
    11   6 C        3.066    -0.012    28.255     8.716
    12   6 C        2.913    -0.032    28.794     8.799
    13   6 C        2.920    -0.038    28.953     8.824
    14   6 C        2.924    -0.033    28.823     8.804
    15   6 C        2.911    -0.051    29.258     8.870
    16   6 C        3.059     0.046    26.906     8.506
    17   7 N        1.861    -0.269    27.844     7.821
    18   6 C        2.890     0.151    24.722     8.152
    19   7 N        2.802    -0.039    21.993     6.965
    20   6 C        3.072     0.050    26.811     8.490
    21   6 C        2.910    -0.043    29.080     8.842
    22   6 C        2.927    -0.043    29.066     8.841
    23   6 C        2.914     0.058    26.689     8.471
    24   7 N        2.804    -0.042    22.053     6.975
    25   6 C        3.077     0.046    26.886     8.501
    26   6 C        2.910    -0.051    29.272     8.872
    27   6 C        2.924    -0.034    28.842     8.807
    28   6 C        2.920    -0.042    29.034     8.836
    29   6 C        2.912    -0.033    28.827     8.804
    30   6 C        3.068    -0.017    28.369     8.734
    31   6 C        3.069    -0.017    28.371     8.734
    32   6 C        2.912    -0.033    28.826     8.804
    33   6 C        2.920    -0.041    29.029     8.835
    34   6 C        2.924    -0.033    28.830     8.805
    35   6 C        2.910    -0.051    29.261     8.870
    36   6 C        3.076     0.046    26.880     8.500
    37   6 C        2.915    -0.041    29.024     8.834
    38   6 C        3.061    -0.018    28.394     8.738
    39   6 C        3.073     0.074    26.277     8.405
    40   7 N        1.833    -0.225    26.753     7.665
    41   6 C        2.924     0.051    26.849     8.497
    42   6 C        2.920    -0.045    29.107     8.847
    43   6 C        2.916    -0.034    28.858     8.809
    44   6 C        3.060     0.037    27.118     8.540
    45   6 C        2.914    -0.068    29.702     8.937
    46   1 H        0.926     0.040     2.445     2.445
    47   1 H        0.926     0.046     2.376     2.410
    48   1 H        0.926     0.049     2.334     2.389
    49   1 H        0.926     0.033     2.546     2.495
    50   1 H        0.926     0.032     2.561     2.503
    51   1 H        0.926     0.034     2.537     2.491
    52   1 H        0.926     0.035     2.515     2.480
    53   1 H        0.926     0.032     2.560     2.502
    54   1 H        0.926     0.032     2.556     2.500
    55   1 H        0.926     0.030     2.586     2.515
    56   1 H        0.926     0.060     2.195     2.317
    57   1 H        0.926     0.047     2.353     2.399
    58   1 H        0.926     0.027     2.623     2.532
    59   1 H        0.926     0.028     2.621     2.532
    60   1 H        0.926     0.026     2.638     2.540
    61   1 H        0.926     0.030     2.589     2.516
    62   1 H        0.926     0.030     2.591     2.517
    63   1 H        0.926     0.027     2.635     2.538
    64   1 H        0.926     0.028     2.609     2.526
    65   1 H        0.926     0.029     2.606     2.525
    66   1 H        0.926     0.060     2.203     2.321
    67   1 H        0.925     0.039     2.457     2.451
    68   1 H        0.926     0.036     2.499     2.472
    69   1 H        0.926     0.033     2.542     2.493
    70   1 H        0.926     0.043     2.415     2.430

molecular dipole:
                 x           y           z       tot (Debye)
 q only:        1.140      -0.310      -0.148
   full:        1.940      -0.872      -0.287       5.456

 projected vibrational frequencies (cm⁻¹)
eigval :       -0.00    -0.00    -0.00    -0.00    -0.00     0.00
eigval :        7.88    14.18    18.31    29.90    32.76    38.95
eigval :       61.61    70.34    85.43   100.07   101.46   112.44
eigval :      133.07   136.18   139.99   147.95   158.97   174.88
eigval :      206.43   216.19   232.66   241.16   262.65   272.00
eigval :      274.91   278.50   299.95   305.59   336.29   349.52
eigval :      371.43   386.05   393.36   397.70   400.84   411.46
eigval :      423.08   424.34   428.10   435.16   437.68   439.43
eigval :      472.99   516.77   517.87   527.97   529.31   538.48
eigval :      540.26   541.36   548.01   561.57   571.45   588.11
eigval :      588.56   608.00   614.78   620.19   624.56   631.07
eigval :      642.31   673.37   673.84   678.09   688.01   700.54
eigval :      707.09   710.34   713.00   729.53   752.13   755.72
eigval :      764.56   769.57   770.83   780.58   780.77   790.20
eigval :      804.12   805.69   829.80   865.84   867.86   872.63
eigval :      874.43   883.78   887.86   896.33   897.98   900.16
eigval :      901.22   902.04   904.35   904.87   906.02   915.58
eigval :      917.17   920.99   922.71   923.04   924.23   926.55
eigval :      934.45   975.46  1009.07  1012.12  1013.71  1031.38
eigval :     1037.57  1070.17  1071.92  1073.67  1078.08  1093.90
eigval :     1108.86  1118.23  1125.79  1141.09  1147.45  1152.25
eigval :     1153.17  1164.29  1172.29  1177.52  1181.32  1181.87
eigval :     1182.55  1185.92  1199.03  1214.82  1226.72  1233.02
eigval :     1237.60  1243.20  1246.16  1268.22  1287.38  1290.69
eigval :     1298.53  1302.02  1306.20  1308.02  1327.51  1332.75
eigval :     1339.57  1355.62  1356.67  1359.51  1361.65  1364.38
eigval :     1374.44  1391.79  1410.13  1418.20  1425.80  1428.29
eigval :     1431.02  1438.34  1453.91  1472.50  1474.72  1476.39
eigval :     1485.87  1488.69  1489.00  1558.13  1561.25  1564.97
eigval :     1572.30  1575.99  1578.38  1582.65  1588.96  1589.26
eigval :     1598.73  1599.24  1606.52  1612.70  1615.43  3066.65
eigval :     3074.51  3075.41  3078.50  3079.84  3079.90  3080.21
eigval :     3081.35  3081.38  3085.31  3087.16  3087.25  3089.30
eigval :     3094.06  3094.93  3095.78  3096.39  3096.63  3098.11
eigval :     3101.29  3114.48  3121.35  3122.97  3123.74  3128.18

   temp. (K)  partition function   enthalpy   heat capacity  entropy
                                   cal/mol     cal/K/mol   cal/K/mol   J/K/mol
 298.15  VIB  0.157E+15            19097.426    126.205    116.362
         ROT  0.668E+08              888.752      2.981     38.786
         INT  0.105E+23            19986.178    129.186    155.148
         TR   0.134E+29             1481.254      4.968     44.915
         TOT                       21467.4321   134.1542   200.0630   837.0636

       T/K    H(0)-H(T)+PV         H(T)/Eh          T*S/Eh         G(T)/Eh
   ------------------------------------------------------------------------
    298.15    0.342105E-01    0.564152E+00    0.950564E-01    0.469096E+00
   ------------------------------------------------------------------------

         :::::::::::::::::::::::::::::::::::::::::::::::::::::
         ::                  THERMODYNAMIC                  ::
         :::::::::::::::::::::::::::::::::::::::::::::::::::::
         :: total free energy        -112.666544425960 Eh   ::
         ::.................................................::
         :: total energy             -113.135640317325 Eh   ::
         :: zero point energy           0.529941750578 Eh   ::
         :: G(RRHO) w/o ZPVE           -0.060845859213 Eh   ::
         :: G(RRHO) contrib.            0.469095891365 Eh   ::
         :::::::::::::::::::::::::::::::::::::::::::::::::::::

           -------------------------------------------------
          | TOTAL ENERGY             -113.135640317325 Eh   |
          | TOTAL ENTHALPY           -112.571488036073 Eh   |
          | TOTAL FREE ENERGY        -112.666544425960 Eh   |
          | GRADIENT NORM               0.000057139771 Eh/α |
          | HOMO-LUMO GAP               2.339970766501 eV   |
           -------------------------------------------------

 * finished run on 2025/09/13 at 01:28:38.978
