   * xtb version 6.7.1 (edcfbbe) compiled by 'albert@albert-system' on 2024-07-22

   ID    Z sym.   atoms
    1    6 C      1-3, 5-16, 18, 20-23, 25-39, 41-45
    2    7 N      4, 17, 19, 24, 40
    3    1 H      46-70

          program call               : xtb data2507/gas/2CzCbPy/2CzCbPy_gas_T1_crest.xyz --gfn 2 --spinpol --tblite --uhf 2 --ohess vtight --parallel 40 --molden --ceasefiles --namespace data2507/gas/2CzCbPy/2CzCbPy_gas_T1_finalOpt
 * total energy  :  -113.0412198 Eh     change        0.2097877E-07 Eh
 * total energy  :  -113.0413226 Eh     change       -0.1027900E-03 Eh
 * total energy  :  -113.0413743 Eh     change       -0.5168321E-04 Eh
 * total energy  :  -113.0413792 Eh     change       -0.4962711E-05 Eh
 * total energy  :  -113.0413815 Eh     change       -0.2274357E-05 Eh
 * total energy  :  -113.0413827 Eh     change       -0.1151649E-05 Eh
 * total energy  :  -113.0413848 Eh     change       -0.2123759E-05 Eh
 * total energy  :  -113.0413873 Eh     change       -0.2534205E-05 Eh
 * total energy  :  -113.0413894 Eh     change       -0.2063536E-05 Eh
 * total energy  :  -113.0413908 Eh     change       -0.1439333E-05 Eh
 * total energy  :  -113.0414166 Eh     change       -0.8037632E-07 Eh
 * total energy  :  -113.0414168 Eh     change       -0.1423104E-06 Eh
 * total energy  :  -113.0414172 Eh     change       -0.3954636E-06 Eh
 * total energy  :  -113.0414174 Eh     change       -0.1754499E-06 Eh
 * total energy  :  -113.0414175 Eh     change       -0.1854675E-06 Eh
 * total energy  :  -113.0414178 Eh     change       -0.2858910E-06 Eh
 * total energy  :  -113.0414180 Eh     change       -0.1711293E-06 Eh
 * total energy  :  -113.0414182 Eh     change       -0.2176312E-06 Eh
 * total energy  :  -113.0414183 Eh     change       -0.5472469E-07 Eh
   *** GEOMETRY OPTIMIZATION CONVERGED AFTER 56 ITERATIONS ***

 final structure:
================
70
 xtb: 6.7.1 (edcfbbe)
C            4.21050310005862       -3.24513401996983       -0.65811901788916
C            4.66462288693861       -1.94881022352875       -0.42828991847717
C            3.70484929680234       -0.95619241997999       -0.21509634221157
N            4.04518018636468        0.38139657006862       -0.06831190265060
C            3.36813345710388        1.29294560709608        0.73480366904380
C            2.24039404729161        1.11978485708534        1.52286064495789
C            1.77969269793036        2.20831282404538        2.24014755468244
C            2.42411264324876        3.44135006633784        2.18993978363453
C            3.55562109837121        3.61610504478440        1.41785254713462
C            4.03131608973592        2.53791602371161        0.68426282194309
C            5.13929510593999        2.38026209133732       -0.21750762263926
C            6.10696212180890        3.25838300855324       -0.68375803310511
C            7.01728640291368        2.80561268839652       -1.61846536438694
C            6.94499944339445        1.50458940256473       -2.10597893739577
C            5.99015386743887        0.61252610799300       -1.65209931739339
C            5.10309881810637        1.04308129198556       -0.67547491517761
N            2.41781332044904       -1.23657961115412       -0.10153451124636
C            1.98717426028414       -2.49407505850302       -0.24101969073960
N            0.63140064015874       -2.68281205812304       -0.06328316873773
C           -0.31996683953897       -1.68834081562824       -0.22812455625318
C           -0.18910915013217       -0.40623537216048       -0.71872878197873
C           -1.31097286804614        0.41142734773825       -0.75229496907332
C           -2.56154486890899       -0.06639389939700       -0.31113488470592
N           -3.65191649925901        0.80452605633283       -0.31347928051263
C           -3.64774011480852        2.09297244010093        0.18277750904527
C           -2.63048081362590        2.79106205094292        0.82035787222805
C           -2.90431973963718        4.07500029688830        1.25462279589710
C           -4.15878955224741        4.65143872035765        1.07489676453056
C           -5.18499020371249        3.94974354234459        0.46746501818242
C           -4.93342938752343        2.66152241305168        0.02186201110822
C           -5.74662589504152        1.65637827939946       -0.61058491391453
C           -7.06508442496938        1.62608489708982       -1.03704596437445
C           -7.53681274015923        0.47641698846225       -1.64550808450227
C           -6.70532819358909       -0.62226839875208       -1.84524767465971
C           -5.38617636308890       -0.61413364688358       -1.43064662515198
C           -4.91540624342911        0.52564188676027       -0.79268961852343
C           -2.72264573181755       -1.36911381431022        0.13867719953739
C           -1.59734479146353       -2.20089478737250        0.18517803834897
C           -1.39446951803974       -3.52659827546962        0.59549792567502
N           -2.25238236411411       -4.44457715593592        1.07629618763874
C           -1.78322619243672       -5.61804001672926        1.45958897455926
C           -0.44442107539080       -5.94097768554966        1.43464956523881
C            0.49079381626535       -5.01830611977792        0.89937225526869
C            0.00471756223932       -3.81862484228358        0.44972931053407
C            2.86196170282732       -3.53058182365722       -0.59132458829395
H            4.91803237607590       -4.02759129356836       -0.88899672026226
H            5.71679103551190       -1.72654395416725       -0.38933462242233
H            1.73178622690718        0.17129922711601        1.56274196224287
H            0.89793011643760        2.09706531537569        2.85420806981924
H            2.03283904616760        4.26842987385286        2.76383732187373
H            4.06177115041202        4.56891262743491        1.37976525125629
H            6.13652276437425        4.27675832745547       -0.32711430093127
H            7.78123900583422        3.47037237290255       -1.99290274633633
H            7.64514627031581        1.18350326439182       -2.86299823263291
H            5.93110919800703       -0.37714074120560       -2.07672372508274
H            0.76040171269719       -0.03775353015216       -1.06852215276671
H           -1.24056258910473        1.40686703634983       -1.15898096000886
H           -1.66116944755480        2.34554255884700        0.98168865797757
H           -2.12806927297301        4.64050694013562        1.74795730114881
H           -4.33365075031621        5.65734554011063        1.42614924454580
H           -6.16283836844349        4.39065527184555        0.34701650327040
H           -7.70576362616131        2.48399365680623       -0.90046856266355
H           -8.56186867195620        0.43130549619792       -1.98163194395938
H           -7.09740720905184       -1.49873287257629       -2.33894390063863
H           -4.74264598341004       -1.46171942712554       -1.60735324537869
H           -3.67098393336806       -1.71862907241081        0.51334892329514
H           -2.52180562046268       -6.32469258124302        1.81302794809878
H           -0.10934100217350       -6.90033539048248        1.79183457801986
H            1.53352273173733       -5.28645982208593        0.87106605001369
H            2.48788064460014       -4.50935191356782       -0.83779459757142

 projected vibrational frequencies (cm⁻¹)
eigval :       -0.00    -0.00    -0.00    -0.00     0.00     0.00
eigval :        4.34    15.17    18.85    30.60    33.72    39.99
eigval :       59.93    68.92    85.92    95.65   101.88   110.28
eigval :      132.65   135.27   139.52   151.85   160.59   175.40
eigval :      201.23   214.20   221.42   235.33   254.89   270.36
eigval :      274.30   278.05   285.01   305.59   335.51   336.83
eigval :      346.97   370.15   382.32   393.21   397.00   401.33
eigval :      413.13   416.94   420.89   424.40   435.72   438.65
eigval :      456.29   487.49   515.05   516.71   525.30   530.05
eigval :      536.52   537.30   539.73   548.31   565.39   575.73
eigval :      585.17   587.09   606.06   609.85   612.06   623.19
eigval :      628.82   640.97   659.90   669.46   675.49   676.44
eigval :      681.75   700.25   704.85   711.03   711.30   744.76
eigval :      753.94   759.71   768.23   768.74   775.58   776.17
eigval :      783.21   785.43   788.76   791.62   821.71   849.00
eigval :      863.92   866.72   872.65   873.83   876.95   878.74
eigval :      881.14   895.74   896.11   901.55   903.62   905.21
eigval :      905.30   906.73   909.23   922.17   923.28   923.63
eigval :      924.18   956.30   989.58  1005.27  1011.63  1014.86
eigval :     1027.35  1068.35  1069.36  1071.03  1072.03  1077.08
eigval :     1096.03  1106.85  1111.43  1125.99  1130.15  1144.17
eigval :     1149.30  1157.54  1159.77  1169.36  1176.68  1179.00
eigval :     1180.19  1181.47  1192.25  1196.00  1200.22  1229.42
eigval :     1230.67  1232.05  1240.46  1244.09  1260.67  1272.85
eigval :     1285.26  1290.09  1291.71  1297.81  1303.67  1318.79
eigval :     1333.98  1339.95  1343.39  1346.95  1356.13  1360.99
eigval :     1361.17  1363.21  1372.28  1381.43  1396.07  1414.38
eigval :     1416.51  1422.97  1426.07  1427.19  1435.33  1446.13
eigval :     1462.99  1472.49  1475.88  1482.05  1485.58  1494.35
eigval :     1513.35  1526.27  1556.40  1568.72  1575.49  1581.44
eigval :     1583.43  1586.68  1595.52  1597.38  1608.86  3057.13
eigval :     3075.81  3079.23  3081.40  3081.51  3082.07  3083.40
eigval :     3086.09  3087.40  3088.82  3093.04  3095.21  3095.54
eigval :     3096.63  3100.40  3101.04  3101.08  3102.29  3106.38
eigval :     3108.56  3110.95  3120.61  3121.23  3123.02  3123.40

   temp. (K)  partition function   enthalpy   heat capacity  entropy
                                   cal/mol     cal/K/mol   cal/K/mol   J/K/mol
 298.15  VIB  0.371E+15            19464.775    128.696    118.893
         ROT  0.655E+08              888.752      2.981     38.747
         INT  0.243E+23            20353.527    131.677    157.640
         TR   0.134E+29             1481.254      4.968     44.915
         TOT                       21834.7808   136.6455   202.5551   847.4906

       T/K    H(0)-H(T)+PV         H(T)/Eh          T*S/Eh         G(T)/Eh
   ------------------------------------------------------------------------
    298.15    0.347959E-01    0.559365E+00    0.962405E-01    0.463124E+00
   ------------------------------------------------------------------------

         :::::::::::::::::::::::::::::::::::::::::::::::::::::
         ::                  THERMODYNAMIC                  ::
         :::::::::::::::::::::::::::::::::::::::::::::::::::::
         :: total free energy        -112.578294183130 Eh   ::
         ::.................................................::
         :: total energy             -113.041418351634 Eh   ::
         :: zero point energy           0.524568704191 Eh   ::
         :: G(RRHO) w/o ZPVE           -0.061444535686 Eh   ::
         :: G(RRHO) contrib.            0.463124168504 Eh   ::
         :::::::::::::::::::::::::::::::::::::::::::::::::::::

           -------------------------------------------------
          | TOTAL ENERGY             -113.041418351634 Eh   |
          | TOTAL ENTHALPY           -112.482053709321 Eh   |
          | TOTAL FREE ENERGY        -112.578294183130 Eh   |
          | GRADIENT NORM               0.000081212734 Eh/α |
           -------------------------------------------------

 * finished run on 2025/09/13 at 01:34:44.386
