   * xtb version 6.7.1 (edcfbbe) compiled by 'albert@albert-system' on 2024-07-22

   ID    Z sym.   atoms
    1    6 C      1-3, 5-16, 18, 20-23, 25-39, 41-45
    2    7 N      4, 17, 19, 24, 40
    3    1 H      46-70

          program call               : xtb data2507/gas/2CzCbPy/2CzCbPy.xyz --gfn 2 --ohess vtight --parallel 40 --molden --ceasefiles --namespace data2507/gas/2CzCbPy/2CzCbPy_gas_S0_preOpt
          :  Hamiltonian                  GFN2-xTB          :
 * total energy  :  -113.1092434 Eh     change       -0.4155396E-08 Eh
 * total energy  :  -113.1276020 Eh     change       -0.1835861E-01 Eh
 * total energy  :  -113.1322891 Eh     change       -0.4687076E-02 Eh
 * total energy  :  -113.1333171 Eh     change       -0.1028022E-02 Eh
 * total energy  :  -113.1341966 Eh     change       -0.8795159E-03 Eh
 * total energy  :  -113.1345548 Eh     change       -0.3581548E-03 Eh
 * total energy  :  -113.1347564 Eh     change       -0.2015652E-03 Eh
 * total energy  :  -113.1348745 Eh     change       -0.1181040E-03 Eh
 * total energy  :  -113.1349528 Eh     change       -0.7832248E-04 Eh
 * total energy  :  -113.1350227 Eh     change       -0.6993381E-04 Eh
 * total energy  :  -113.1355245 Eh     change       -0.4540275E-06 Eh
 * total energy  :  -113.1355250 Eh     change       -0.4427645E-06 Eh
 * total energy  :  -113.1355254 Eh     change       -0.3808624E-06 Eh
 * total energy  :  -113.1355257 Eh     change       -0.2890418E-06 Eh
 * total energy  :  -113.1355259 Eh     change       -0.2216365E-06 Eh
 * total energy  :  -113.1355261 Eh     change       -0.2106373E-06 Eh
 * total energy  :  -113.1355263 Eh     change       -0.1937701E-06 Eh
 * total energy  :  -113.1355264 Eh     change       -0.1492112E-06 Eh
 * total energy  :  -113.1355265 Eh     change       -0.9898129E-07 Eh
   *** GEOMETRY OPTIMIZATION CONVERGED AFTER 64 ITERATIONS ***

 final structure:
================
70
 xtb: 6.7.1 (edcfbbe)
C            2.37668453754009        3.21574524689976        0.25335991284821
C            3.59981622604213        2.61003738596483        0.47735999665348
C            3.70402704544896        1.23874190871713        0.22931955937115
N            4.90408724881442        0.55859618422650        0.35615052008248
C            5.03798917056133       -0.74939432236420        0.81168254877754
C            4.06547434874723       -1.66165018382436        1.18914375097054
C            4.48289673639882       -2.90073027204794        1.63911684131611
C            5.83298774154381       -3.23051460995416        1.71959227569013
C            6.80600677071396       -2.32218886814390        1.35273456115585
C            6.40862363332182       -1.07318142624226        0.89520770034445
C            7.13527841074302        0.07760339972374        0.43248406084515
C            8.48803952416811        0.32854185795952        0.25190917481770
C            8.87071411618416        1.54313562490058       -0.28206211693629
C            7.91789911913326        2.48404344773765       -0.65940528373188
C            6.56490018377453        2.25522413040185       -0.48448412767541
C            6.17405622834512        1.05723778418649        0.09589661099307
N            2.65312457604748        0.50465988271263       -0.11196623505713
C            1.47114551340867        1.08128088231914       -0.27659398942887
N            0.43069283774187        0.22737920857214       -0.62064542807958
C           -0.91702230003887        0.37881402262700       -0.32143014871036
C           -1.55610686422789        1.28559561427004        0.51371538148928
C           -2.92516992125482        1.18782418375533        0.66134274320980
C           -3.67037239681659        0.20836620901088       -0.00679739564572
N           -5.06143941125392        0.16916386615919        0.16361397480277
C           -5.80460775456871       -0.94152202792166        0.51194992174797
C           -5.38425242664154       -2.23085665850816        0.80557714389188
C           -6.34656329300391       -3.15815929837730        1.15605254028493
C           -7.69607246321571       -2.81809601480049        1.22290238042302
C           -8.11774589860996       -1.53180204551756        0.95322306895513
C           -7.16910641457026       -0.58142396193993        0.59886307785361
C           -7.24414373146121        0.81632866341573        0.27879642251669
C           -8.29419735212546        1.71975648318997        0.18172918395908
C           -8.01521862384352        3.02265274049924       -0.17921612728702
C           -6.71059887363278        3.42519206480730       -0.45641985324979
C           -5.64943513624879        2.54505839087379       -0.36639574048352
C           -5.92030432302314        1.23978435435129        0.01897817403561
C           -3.03481919275217       -0.72875182101926       -0.80805868746843
C           -1.65792170960821       -0.65049240278031       -0.94580150775237
C           -0.70611931890058       -1.47937497675255       -1.63158733102565
N           -0.90836600382264       -2.57140936070205       -2.35311013746752
C            0.16610464704760       -3.14593601375135       -2.85910993975861
C            1.46475782840763       -2.67039576353917       -2.68151915437831
C            1.69116760472295       -1.52818261117221       -1.93131113310268
C            0.57196595065841       -0.91818395886236       -1.38748711502496
C            1.29107392938179        2.45975191978059       -0.15515659770082
H            2.26749398441743        4.28065163531445        0.39780884979973
H            4.43971039432363        3.17085468718885        0.85026251743919
H            3.01850338545692       -1.41595529337588        1.12383537672120
H            3.74227255520625       -3.62980352628113        1.93265978860827
H            6.11891096195524       -4.20968222470216        2.07397315305272
H            7.85409925547322       -2.57228400013454        1.41783938517915
H            9.22108661563791       -0.41849321019613        0.51562143460862
H            9.91783237580439        1.76139795796008       -0.42868243513207
H            8.23939779093688        3.41297619778514       -1.10664352044841
H            5.84557124548581        2.98521690029537       -0.82136074662006
H           -1.00905993362761        2.02913244836699        1.07123797951968
H           -3.43898281097988        1.86907121966424        1.32275482154367
H           -4.33992273180071       -2.50156276560963        0.77101868124564
H           -6.04510248276332       -4.16954800865401        1.38569145860956
H           -8.41760986014454       -3.57315589221112        1.49771814920349
H           -9.16156969043221       -1.26380005248566        1.01867919652620
H           -9.30707327710207        1.40366837748082        0.38108632383564
H           -8.81711407260977        3.74162772540636       -0.25840366824539
H           -6.52514233945446        4.44750094784327       -0.75208348189715
H           -4.64413725437104        2.86190396292823       -0.60072879495001
H           -3.58696513274589       -1.50134558714445       -1.31795491585695
H           -0.01755922686886       -4.03931494027396       -3.44069587601843
H            2.29386700152693       -3.19731028840860       -3.12751221961090
H            2.68402511002288       -1.14121000362788       -1.76752299165987
H            0.34753961736689        2.92119287401376       -0.39074094251565

          :  Hamiltonian                  GFN2-xTB          :
         :: gradient norm              0.000025821057 Eh/a0 ::
         :: HOMO-LUMO gap              2.416107711264 eV    ::
         :: SCC energy              -115.210932985142 Eh    ::
         :: -> dispersion             -0.100359711693 Eh    ::
         :: repulsion energy           2.075406456104 Eh    ::

    * Orbital Energies and Occupations

         #    Occupation            Energy/Eh            Energy/eV
      -------------------------------------------------------------
         1        2.0000           -0.6910137             -18.8034
       ...           ...                  ...                  ...
        93        2.0000           -0.4174670             -11.3599
        94        2.0000           -0.4142499             -11.2723
        95        2.0000           -0.4128510             -11.2342
        96        2.0000           -0.4101539             -11.1609
        97        2.0000           -0.4004709             -10.8974
        98        2.0000           -0.3957204             -10.7681
        99        2.0000           -0.3917199             -10.6592
       100        2.0000           -0.3838651             -10.4455
       101        2.0000           -0.3833400             -10.4312
       102        2.0000           -0.3737309             -10.1697
       103        2.0000           -0.3708703             -10.0919
       104        2.0000           -0.3668124              -9.9815
       105        2.0000           -0.3565742              -9.7029 (HOMO)
       106                         -0.2677838              -7.2868 (LUMO)
       107                         -0.2614546              -7.1145
       108                         -0.2551800              -6.9438
       109                         -0.2461764              -6.6988
       110                         -0.2426626              -6.6032
       111                         -0.2374976              -6.4626
       112                         -0.2268195              -6.1721
       113                         -0.2170116              -5.9052
       114                         -0.2115134              -5.7556
       115                         -0.2020723              -5.4987
       116                         -0.1941011              -5.2818
       ...                                ...                  ...
       205                          0.7510029              20.4358
      -------------------------------------------------------------
                  HL-Gap            0.0887904 Eh            2.4161 eV

     #   Z          covCN         q      C6AA      α(0)
     1   6 C        2.929    -0.014    28.354     8.733
     2   6 C        2.915    -0.067    29.660     8.931
     3   6 C        2.891     0.153    24.687     8.146
     4   7 N        2.805    -0.041    22.022     6.970
     5   6 C        3.065     0.052    26.765     8.483
     6   6 C        2.910    -0.046    29.131     8.850
     7   6 C        2.925    -0.032    28.790     8.799
     8   6 C        2.920    -0.038    28.946     8.823
     9   6 C        2.913    -0.033    28.813     8.802
    10   6 C        3.065    -0.014    28.302     8.724
    11   6 C        3.066    -0.013    28.260     8.717
    12   6 C        2.913    -0.032    28.795     8.799
    13   6 C        2.920    -0.038    28.956     8.824
    14   6 C        2.924    -0.033    28.822     8.804
    15   6 C        2.911    -0.050    29.254     8.869
    16   6 C        3.061     0.046    26.904     8.506
    17   7 N        1.859    -0.269    27.850     7.822
    18   6 C        2.892     0.151    24.718     8.151
    19   7 N        2.803    -0.039    22.002     6.967
    20   6 C        3.067     0.043    26.964     8.515
    21   6 C        2.910    -0.049    29.219     8.864
    22   6 C        2.926    -0.044    29.104     8.847
    23   6 C        2.913     0.058    26.699     8.473
    24   7 N        2.803    -0.042    22.059     6.976
    25   6 C        3.076     0.046    26.881     8.500
    26   6 C        2.910    -0.051    29.257     8.869
    27   6 C        2.924    -0.033    28.820     8.804
    28   6 C        2.920    -0.041    29.018     8.834
    29   6 C        2.912    -0.033    28.823     8.803
    30   6 C        3.069    -0.017    28.366     8.733
    31   6 C        3.068    -0.017    28.362     8.733
    32   6 C        2.913    -0.033    28.820     8.803
    33   6 C        2.920    -0.041    29.031     8.836
    34   6 C        2.924    -0.034    28.848     8.808
    35   6 C        2.910    -0.051    29.277     8.872
    36   6 C        3.076     0.046    26.889     8.502
    37   6 C        2.915    -0.041    29.014     8.833
    38   6 C        3.064    -0.016    28.357     8.732
    39   6 C        3.072     0.072    26.324     8.412
    40   7 N        1.833    -0.227    26.810     7.673
    41   6 C        2.925     0.052    26.834     8.495
    42   6 C        2.922    -0.043    29.063     8.841
    43   6 C        2.915    -0.029    28.715     8.787
    44   6 C        3.069     0.044    26.953     8.513
    45   6 C        2.915    -0.068    29.693     8.935
    46   1 H        0.926     0.041     2.437     2.441
    47   1 H        0.926     0.046     2.375     2.410
    48   1 H        0.926     0.048     2.348     2.396
    49   1 H        0.926     0.033     2.542     2.493
    50   1 H        0.926     0.031     2.566     2.505
    51   1 H        0.926     0.033     2.539     2.492
    52   1 H        0.926     0.035     2.518     2.482
    53   1 H        0.926     0.032     2.561     2.502
    54   1 H        0.926     0.032     2.556     2.500
    55   1 H        0.926     0.030     2.591     2.517
    56   1 H        0.926     0.038     2.469     2.457
    57   1 H        0.926     0.046     2.372     2.408
    58   1 H        0.926     0.030     2.588     2.516
    59   1 H        0.926     0.030     2.593     2.518
    60   1 H        0.926     0.027     2.624     2.533
    61   1 H        0.926     0.030     2.585     2.514
    62   1 H        0.926     0.030     2.581     2.512
    63   1 H        0.926     0.027     2.631     2.537
    64   1 H        0.926     0.027     2.627     2.534
    65   1 H        0.926     0.025     2.665     2.553
    66   1 H        0.926     0.061     2.185     2.312
    67   1 H        0.925     0.039     2.464     2.455
    68   1 H        0.926     0.038     2.481     2.463
    69   1 H        0.926     0.054     2.272     2.357
    70   1 H        0.926     0.044     2.395     2.420

molecular dipole:
                 x           y           z       tot (Debye)
 q only:        0.903       0.535       0.187
   full:        1.321       1.186       0.288       4.571

 projected vibrational frequencies (cm⁻¹)
eigval :       -0.00    -0.00    -0.00     0.00     0.00     0.00
eigval :       10.57    15.00    19.69    28.24    34.01    38.34
eigval :       60.40    70.90    90.43    94.65   100.27   105.24
eigval :      121.76   137.09   142.10   149.04   154.30   180.34
eigval :      207.19   220.76   231.20   249.29   253.84   271.70
eigval :      274.21   284.80   294.60   310.10   337.75   346.56
eigval :      360.43   391.09   393.59   399.47   402.62   411.35
eigval :      422.71   424.26   427.82   434.68   437.99   438.99
eigval :      473.15   516.82   517.93   527.44   529.36   538.58
eigval :      540.37   541.27   547.06   562.21   568.67   587.80
eigval :      588.53   608.05   614.76   618.60   626.84   630.25
eigval :      643.20   673.70   674.67   679.94   686.72   700.29
eigval :      706.72   710.06   712.08   730.20   752.24   755.88
eigval :      764.35   769.42   771.08   780.66   780.80   797.41
eigval :      798.89   805.60   830.04   866.53   868.44   872.98
eigval :      873.90   884.81   892.80   896.51   898.40   901.67
eigval :      902.24   903.55   904.84   905.75   906.51   916.91
eigval :      917.49   919.82   922.74   923.60   924.03   925.85
eigval :      936.28   975.39  1009.41  1012.38  1013.87  1025.84
eigval :     1041.93  1070.31  1071.06  1073.75  1077.47  1086.95
eigval :     1109.44  1116.18  1125.35  1136.35  1151.02  1151.81
eigval :     1154.32  1164.26  1170.59  1177.63  1181.21  1181.69
eigval :     1182.47  1187.24  1198.12  1216.26  1229.01  1233.35
eigval :     1237.27  1244.45  1246.28  1272.23  1289.03  1291.87
eigval :     1298.44  1302.25  1304.94  1305.93  1325.89  1329.55
eigval :     1341.26  1355.84  1357.28  1359.28  1362.54  1364.84
eigval :     1374.72  1386.80  1413.92  1419.07  1426.03  1427.92
eigval :     1430.48  1439.89  1451.19  1473.42  1474.99  1476.87
eigval :     1486.08  1488.69  1488.83  1558.30  1560.82  1565.73
eigval :     1568.78  1575.34  1578.19  1584.56  1589.37  1589.40
eigval :     1599.07  1599.35  1606.97  1612.79  1615.49  3063.51
eigval :     3074.31  3076.35  3078.92  3079.77  3080.08  3080.97
eigval :     3082.26  3085.56  3087.08  3087.12  3090.17  3091.92
eigval :     3093.67  3094.43  3094.56  3095.96  3096.61  3100.09
eigval :     3103.80  3107.79  3116.45  3117.66  3121.86  3123.08

   temp. (K)  partition function   enthalpy   heat capacity  entropy
                                   cal/mol     cal/K/mol   cal/K/mol   J/K/mol
 298.15  VIB  0.119E+15            19106.628    126.173    116.201
         ROT  0.707E+08              888.752      2.981     38.899
         INT  0.841E+22            19995.380    129.154    155.100
         TR   0.134E+29             1481.254      4.968     44.915
         TOT                       21476.6339   134.1219   200.0147   836.8616

       T/K    H(0)-H(T)+PV         H(T)/Eh          T*S/Eh         G(T)/Eh
   ------------------------------------------------------------------------
    298.15    0.342252E-01    0.564144E+00    0.950334E-01    0.469111E+00
   ------------------------------------------------------------------------

         :::::::::::::::::::::::::::::::::::::::::::::::::::::
         ::                  THERMODYNAMIC                  ::
         :::::::::::::::::::::::::::::::::::::::::::::::::::::
         :: total free energy        -112.666415794838 Eh   ::
         ::.................................................::
         :: total energy             -113.135526529040 Eh   ::
         :: zero point energy           0.529918986469 Eh   ::
         :: G(RRHO) w/o ZPVE           -0.060808252266 Eh   ::
         :: G(RRHO) contrib.            0.469110734203 Eh   ::
         :::::::::::::::::::::::::::::::::::::::::::::::::::::

           -------------------------------------------------
          | TOTAL ENERGY             -113.135526529040 Eh   |
          | TOTAL ENTHALPY           -112.571382347956 Eh   |
          | TOTAL FREE ENERGY        -112.666415794838 Eh   |
          | GRADIENT NORM               0.000025828710 Eh/α |
          | HOMO-LUMO GAP               2.416109378048 eV   |
           -------------------------------------------------

 * finished run on 2025/09/13 at 01:25:09.346
