   * xtb version 6.7.1 (edcfbbe) compiled by 'albert@albert-system' on 2024-07-22

   ID    Z sym.   atoms
    1    6 C      1-3, 5-16, 18, 20-23, 25-39, 41-45
    2    7 N      4, 17, 19, 24, 40
    3    1 H      46-70

          program call               : xtb data2507/gas/2CzCbPy/2CzCbPy_gas_S0_finalOpt.xtbopt.xyz --gfn 2 --spinpol --tblite --uhf 2 --ohess vtight --parallel 40 --molden --ceasefiles --namespace data2507/gas/2CzCbPy/2CzCbPy_gas_T1_preOpt
 * total energy  :  -113.0373215 Eh     change       -0.8293881E-09 Eh
 * total energy  :  -113.0401733 Eh     change       -0.2851723E-02 Eh
 * total energy  :  -113.0411731 Eh     change       -0.9998709E-03 Eh
 * total energy  :  -113.0412530 Eh     change       -0.7987771E-04 Eh
 * total energy  :  -113.0412929 Eh     change       -0.3989079E-04 Eh
 * total energy  :  -113.0413008 Eh     change       -0.7873086E-05 Eh
 * total energy  :  -113.0413091 Eh     change       -0.8310405E-05 Eh
 * total energy  :  -113.0413162 Eh     change       -0.7161796E-05 Eh
 * total energy  :  -113.0413246 Eh     change       -0.8353169E-05 Eh
 * total energy  :  -113.0413345 Eh     change       -0.9932781E-05 Eh
 * total energy  :  -113.0413973 Eh     change       -0.2341610E-05 Eh
 * total energy  :  -113.0413991 Eh     change       -0.1783599E-05 Eh
 * total energy  :  -113.0414005 Eh     change       -0.1473129E-05 Eh
 * total energy  :  -113.0414018 Eh     change       -0.1236012E-05 Eh
 * total energy  :  -113.0414020 Eh     change       -0.2542464E-06 Eh
 * total energy  :  -113.0414031 Eh     change       -0.1039764E-05 Eh
 * total energy  :  -113.0414034 Eh     change       -0.3709307E-06 Eh
 * total energy  :  -113.0414036 Eh     change       -0.1490450E-06 Eh
 * total energy  :  -113.0414036 Eh     change       -0.2437838E-07 Eh
   *** GEOMETRY OPTIMIZATION CONVERGED AFTER 48 ITERATIONS ***

 final structure:
================
70
 xtb: 6.7.1 (edcfbbe)
C            4.20936129760617       -3.20086502784337       -0.71516574527665
C            4.66939533497617       -1.90698685934606       -0.48297080458933
C            3.71612927965453       -0.91625768996194       -0.23582076967309
N            4.06514398690745        0.41811244450450       -0.07988669459554
C            3.41972847538128        1.31886549726089        0.76012231393103
C            2.31274093391395        1.13903362104539        1.57548914899559
C            1.88365919030558        2.21595525230907        2.32901684810902
C            2.53900569440122        3.44355564056855        2.28708918960714
C            3.64924301151959        3.62495438686886        1.48610840032587
C            4.09301381247683        2.55870740865315        0.71603305252971
C            5.17280078693896        2.41004179154162       -0.22086379101232
C            6.13415849221076        3.28899234831921       -0.69848213865472
C            7.01200205446378        2.84718708707358       -1.66888281760516
C            6.91376615234832        1.55670860170975       -2.17944793065187
C            5.96498319746857        0.66381663802225       -1.71467320481954
C            5.11117084675461        1.08269111330703       -0.70395043729830
N            2.43088891763346       -1.19503951038296       -0.09632072569888
C            1.99678669707477       -2.45112384851884       -0.23994278231322
N            0.64513634093220       -2.64453046991039       -0.03911575550468
C           -0.31785688305602       -1.66054251635074       -0.19587800486126
C           -0.20089126707061       -0.36983614128044       -0.66712902731205
C           -1.33546104431649        0.43008678585780       -0.70582258347718
C           -2.58428498379605       -0.07383691870478       -0.28886236821845
N           -3.69234054121967        0.77456828479666       -0.30741812886821
C           -3.72694953467970        2.06033044217113        0.19423384244633
C           -2.73866929804072        2.77807501631409        0.85507114564639
C           -3.04971228897902        4.05375300172397        1.28867956376402
C           -4.31283968429133        4.60298591072926        1.08595548987477
C           -5.31072150893109        3.88130054310376        0.45521475782022
C           -5.02149284318058        2.60104719134745        0.00956138570884
C           -5.79898872693890        1.58140051078966       -0.64413045282819
C           -7.10734164641512        1.52427146448003       -1.09817216471340
C           -7.54041670408098        0.36807605174912       -1.72277247943047
C           -6.68043593041217       -0.71048080743181       -1.91129208907675
C           -5.37082851356164       -0.67555873862996       -1.46876033995890
C           -4.93915592579708        0.47044503696939       -0.81447543205265
C           -2.72882042747908       -1.38241975283064        0.14909412582130
C           -1.59102685565611       -2.19654057605419        0.20121362720243
C           -1.37209487088978       -3.52293720628903        0.60066715921696
N           -2.21936804648848       -4.45814762124467        1.06750754155222
C           -1.73419435413098       -5.62662880549510        1.44608570692372
C           -0.39059910720387       -5.92967151335790        1.42609772865768
C            0.53412832057912       -4.98796453269668        0.90601782689410
C            0.03181399437632       -3.79293875923014        0.46192738538880
C            2.86248095579633       -3.48513405548066       -0.61926420926285
H            4.91039918229665       -3.98139214155638       -0.97091038562744
H            5.72226556938947       -1.68493587742198       -0.46766987965215
H            1.79616974174147        0.19451972006787        1.60872297832708
H            1.01830971464780        2.09998975567989        2.96507334600313
H            2.17282127324355        4.26137213924670        2.89006820457308
H            4.16334481750200        4.57371598828438        1.45393175063951
H            6.18356627689808        4.29982901086163       -0.32308595668604
H            7.77018232120070        3.51294380822869       -2.05314603148687
H            7.58812313979372        1.24499691896165       -2.96330756922334
H            5.88431104159335       -0.31706580509895       -2.15594224029760
H            0.74755607276062        0.01732191611347       -0.99943458416368
H           -1.27597838702478        1.43109639270886       -1.10043368253523
H           -1.76334707243696        2.35315248715628        1.03455568458105
H           -2.29643997983841        4.63433420644138        1.79983811439090
H           -4.51703398331872        5.60323791458734        1.43751371748280
H           -6.29557404121027        4.30082492797081        0.31681253507530
H           -7.76976948315006        2.36685690298146       -0.97026174492558
H           -8.55696429153370        0.30214690882235       -2.08060431471397
H           -7.04220216865410       -1.59227300188580       -2.41844083467707
H           -4.70488873351616       -1.50746553467935       -1.63674678148834
H           -3.67620989278636       -1.75124607678525        0.50733392897662
H           -2.46387628739638       -6.34657352869732        1.79117121286438
H           -0.04345252218259       -6.88670320501457        1.77798512775571
H            1.58207632914786       -5.23658211677524        0.88684570720259
H            2.48075868053225       -4.46094284773470       -0.86612678354725

 projected vibrational frequencies (cm⁻¹)
eigval :       -0.00    -0.00    -0.00     0.00     0.00     0.00
eigval :        4.87    14.82    18.31    31.11    33.35    39.85
eigval :       60.22    68.43    85.36    95.93   101.68   110.32
eigval :      132.31   134.86   139.33   151.07   159.73   174.22
eigval :      201.02   214.60   220.87   235.62   254.61   270.01
eigval :      274.15   277.81   284.17   304.61   331.50   337.54
eigval :      346.75   370.40   382.19   393.01   397.01   400.96
eigval :      411.32   416.22   420.69   424.32   435.84   438.57
eigval :      455.58   486.14   515.02   516.72   525.32   529.92
eigval :      536.17   537.17   539.67   547.89   565.00   575.22
eigval :      585.20   587.09   606.28   609.89   611.99   623.24
eigval :      629.27   640.98   659.89   669.38   675.48   676.50
eigval :      681.73   700.22   705.19   711.00   711.34   744.22
eigval :      753.88   759.70   768.33   768.63   775.49   776.01
eigval :      783.18   785.26   789.58   791.68   822.38   849.85
eigval :      864.13   866.90   872.74   873.92   877.05   878.74
eigval :      881.90   895.72   896.28   901.81   903.64   905.17
eigval :      905.20   906.51   909.13   922.09   923.13   923.57
eigval :      923.96   956.10   989.21  1005.19  1011.65  1014.92
eigval :     1027.63  1068.39  1069.22  1071.02  1072.00  1076.83
eigval :     1096.50  1107.01  1111.92  1125.92  1130.15  1144.08
eigval :     1149.30  1157.11  1157.73  1169.34  1176.70  1178.90
eigval :     1180.15  1181.28  1192.21  1196.39  1200.27  1229.62
eigval :     1230.53  1231.98  1240.14  1244.18  1259.62  1273.26
eigval :     1285.62  1290.01  1291.99  1297.55  1304.25  1318.82
eigval :     1334.51  1339.35  1343.41  1346.85  1356.08  1360.81
eigval :     1361.31  1363.08  1372.09  1381.01  1396.12  1414.32
eigval :     1416.58  1422.73  1425.96  1427.15  1435.29  1445.99
eigval :     1462.87  1472.32  1475.66  1482.31  1485.44  1493.73
eigval :     1513.17  1526.40  1556.14  1568.66  1575.42  1581.38
eigval :     1583.26  1586.72  1595.43  1597.10  1608.73  3056.70
eigval :     3076.07  3079.20  3081.30  3081.54  3081.98  3083.58
eigval :     3086.02  3087.32  3088.75  3093.05  3095.12  3095.32
eigval :     3096.50  3098.69  3100.61  3101.03  3102.26  3106.13
eigval :     3108.27  3110.02  3119.92  3120.29  3121.99  3123.06

   temp. (K)  partition function   enthalpy   heat capacity  entropy
                                   cal/mol     cal/K/mol   cal/K/mol   J/K/mol
 298.15  VIB  0.360E+15            19478.298    128.719    118.934
         ROT  0.662E+08              888.752      2.981     38.769
         INT  0.239E+23            20367.050    131.699    157.703
         TR   0.134E+29             1481.254      4.968     44.915
         TOT                       21848.3040   136.6676   202.6181   847.7543

       T/K    H(0)-H(T)+PV         H(T)/Eh          T*S/Eh         G(T)/Eh
   ------------------------------------------------------------------------
    298.15    0.348175E-01    0.559321E+00    0.962704E-01    0.463051E+00
   ------------------------------------------------------------------------

         :::::::::::::::::::::::::::::::::::::::::::::::::::::
         ::                  THERMODYNAMIC                  ::
         :::::::::::::::::::::::::::::::::::::::::::::::::::::
         :: total free energy        -112.578352729771 Eh   ::
         ::.................................................::
         :: total energy             -113.041403566046 Eh   ::
         :: zero point energy           0.524503759589 Eh   ::
         :: G(RRHO) w/o ZPVE           -0.061452923314 Eh   ::
         :: G(RRHO) contrib.            0.463050836275 Eh   ::
         :::::::::::::::::::::::::::::::::::::::::::::::::::::

           -------------------------------------------------
          | TOTAL ENERGY             -113.041403566046 Eh   |
          | TOTAL ENTHALPY           -112.482082317852 Eh   |
          | TOTAL FREE ENERGY        -112.578352729771 Eh   |
          | GRADIENT NORM               0.000214169103 Eh/α |
           -------------------------------------------------

 * finished run on 2025/09/13 at 01:28:48.712
