   * xtb version 6.7.1 (edcfbbe) compiled by 'albert@albert-system' on 2024-07-22

   ID    Z sym.   atoms
    1    7 N      1, 7, 15, 23, 27, 43
    2    6 C      2-6, 8-14, 16-22, 24-26, 28-42, 44-52
    3    1 H      53-78

          program call               : xtb data2507/gas/DICzTrz/DICzTrz_gas_S0_crest.xyz --gfn 2 --ohess vtight --parallel 40 --molden --ceasefiles --namespace data2507/gas/DICzTrz/DICzTrz_gas_S0_finalOpt
          :  Hamiltonian                  GFN2-xTB          :
 * total energy  :  -129.3605951 Eh     change       -0.1642718E-08 Eh
 * total energy  :  -129.3605959 Eh     change       -0.7288950E-06 Eh
 * total energy  :  -129.3605964 Eh     change       -0.5213415E-06 Eh
 * total energy  :  -129.3605972 Eh     change       -0.8061558E-06 Eh
 * total energy  :  -129.3605979 Eh     change       -0.6696506E-06 Eh
 * total energy  :  -129.3605983 Eh     change       -0.4477010E-06 Eh
 * total energy  :  -129.3605983 Eh     change        0.4188433E-07 Eh
 * total energy  :  -129.3605986 Eh     change       -0.3630282E-06 Eh
 * total energy  :  -129.3605990 Eh     change       -0.3647031E-06 Eh
 * total energy  :  -129.3605993 Eh     change       -0.3316673E-06 Eh
 * total energy  :  -129.3606002 Eh     change       -0.4276461E-06 Eh
 * total energy  :  -129.3606008 Eh     change       -0.5865307E-06 Eh
 * total energy  :  -129.3606016 Eh     change       -0.8173950E-06 Eh
 * total energy  :  -129.3606023 Eh     change       -0.7188075E-06 Eh
 * total energy  :  -129.3606027 Eh     change       -0.4257577E-06 Eh
 * total energy  :  -129.3606030 Eh     change       -0.2693761E-06 Eh
 * total energy  :  -129.3606032 Eh     change       -0.2043080E-06 Eh
 * total energy  :  -129.3606033 Eh     change       -0.1434135E-06 Eh
 * total energy  :  -129.3606034 Eh     change       -0.8519382E-07 Eh
   *** GEOMETRY OPTIMIZATION CONVERGED AFTER 20 ITERATIONS ***

 final structure:
================
78
 xtb: 6.7.1 (edcfbbe)
N           -1.93952164759701        0.85069952806684        2.38104215404493
C           -1.21738466884337        0.26760243078695        1.70817433210120
C           -0.28349210167158       -0.45344246316535        0.92826700693644
C            1.03844547952768       -0.02259593795617        0.89720152186945
C            1.99068266572221       -0.73790554238192        0.18208334367664
C            3.37799712981813       -0.27354185807659        0.14138565690206
N            3.64623380115192        0.91844802052731        0.66170359780522
C            4.91896590663204        1.30456342823001        0.60212780680045
C            5.26544170032846        2.61314893003533        1.15356129143048
C            4.26525186249282        3.46186347891879        1.62491622440509
C            4.59653063669766        4.69814017639931        2.14414550669931
C            5.92323835390284        5.09654151975911        2.19906287785682
C            6.92170659960210        4.25581776228228        1.73155785952075
C            6.59765499688241        3.01894851129305        1.20944672097046
N            5.89107618037032        0.56983116689765        0.06972485032774
C            5.53182178614227       -0.60930108111171       -0.42792233283414
C            6.56892385026138       -1.45029517748799       -1.02378506253252
C            6.25494013579580       -2.72476486080297       -1.49235735297008
C            7.23761397123000       -3.51643922393120       -2.05373998690413
C            8.53765004069030       -3.04531437099344       -2.15311726202026
C            8.85511835740792       -1.77825516986232       -1.68854605530861
C            7.87747171547495       -0.98163026321965       -1.12532586062045
N            4.28263614231146       -1.07046873488412       -0.41663835580836
C            1.61419631544575       -1.89670533299615       -0.49954155788908
C            0.30457908479849       -2.32653335464130       -0.47825771634497
C           -0.66444115488666       -1.61289150964622        0.22488393050109
N           -1.98504521592968       -2.05030162073790        0.25056224795616
C           -2.39683346021882       -3.29477765236706        0.70776808031972
C           -1.63909778308348       -4.39812552453801        1.06371734392935
C           -2.30929370043012       -5.51996120247861        1.51698356868184
C           -3.69645979847804       -5.53964426847766        1.62553203165185
C           -4.45108483549464       -4.42985317895813        1.29910467453746
C           -3.80090832423094       -3.29245784309471        0.83936766350660
C           -4.26633697034074       -1.98755389860979        0.44696979850306
C           -5.57188579842596       -1.48532627455383        0.42220325230677
C           -5.73034535191007       -0.17500591487783       -0.00122982075746
C           -6.74906273434380        0.83397529358875       -0.23196798315187
C           -8.12118056101292        0.84638366838181       -0.04564051669511
C           -8.83136236953050        1.98973585011705       -0.37022702799349
C           -8.18970974982366        3.11333812393683       -0.87514483726390
C           -6.81816148426042        3.13207424112281       -1.07301587770134
C           -6.10021849723940        1.99609988447680       -0.75311503549500
N           -4.74206292251452        1.73039975010849       -0.84726271783158
C           -3.50677710502222        2.19972332741454       -1.25104679143521
C           -3.15531197265574        3.41678838854489       -1.80439330538566
C           -1.83400843680451        3.61403012853220       -2.16540684124004
C           -0.89008742420267        2.60835645061916       -2.00149009265708
C           -1.23016743817874        1.38633746528554       -1.44913698322944
C           -2.53636097134424        1.16805859344874       -1.03427039574375
C           -3.23098459175417        0.03804731509539       -0.44229953891829
C           -3.09867922982218       -1.25419610656145        0.07496360572767
C           -4.55405057043789        0.46279426509197       -0.39455211402348
H            1.33266571894259        0.86696302996109        1.43195976061452
H            3.23788760685142        3.13731589284072        1.57261193827363
H            3.82015749739620        5.35501815474897        2.50783110529945
H            6.17954554781322        6.06357191790685        2.60653484327896
H            7.95460956637912        4.56858050129037        1.77599020360302
H            7.36075952543343        2.35070910640710        0.84261549665387
H            5.23879260637092       -3.07577135265509       -1.40463227395322
H            6.99307371040937       -4.50439001759608       -2.41560916790740
H            9.30427001202343       -3.66648120510462       -2.59277647047487
H            9.86873169287370       -1.41352384713047       -1.76729805552408
H            8.10514663375623        0.00729738263773       -0.75992722667589
H            2.36467483944292       -2.43672620618614       -1.05462101293166
H            0.00743907192489       -3.20607646188598       -1.02929643088712
H           -0.56127406698080       -4.38687822469299        1.00312557740278
H           -1.74282353058031       -6.39597774155116        1.79564563379066
H           -4.18523686681593       -6.43443052081319        1.98089172025176
H           -5.52523425352596       -4.44150348949372        1.40269684920763
H           -6.39830683296862       -2.10878953842485        0.72420042600854
H           -8.62481176280037       -0.02383238270609        0.34774215228720
H           -9.90168617139591        2.01104340432130       -0.22859502255259
H           -8.76968469895474        3.99112269625070       -1.11864220988716
H           -6.32838959371618        4.01012132066894       -1.46468803100333
H           -3.89263258714871        4.18955029278160       -1.95676627076782
H           -1.53630988676885        4.55855536517504       -2.59562270925455
H            0.12868818917741        2.78033858254377       -2.31588696235677
H           -0.48310605143556        0.61253509065627       -1.36605915210978

          :  Hamiltonian                  GFN2-xTB          :
         :: gradient norm              0.000055945227 Eh/a0 ::
         :: HOMO-LUMO gap              1.848596505946 eV    ::
         :: SCC energy              -131.774955908970 Eh    ::
         :: -> dispersion             -0.116374349857 Eh    ::
         :: repulsion energy           2.414352489679 Eh    ::

    * Orbital Energies and Occupations

         #    Occupation            Energy/Eh            Energy/eV
      -------------------------------------------------------------
         1        2.0000           -0.6896396             -18.7660
       ...           ...                  ...                  ...
       108        2.0000           -0.4167849             -11.3413
       109        2.0000           -0.4155011             -11.3064
       110        2.0000           -0.4139493             -11.2641
       111        2.0000           -0.4117554             -11.2044
       112        2.0000           -0.4102724             -11.1641
       113        2.0000           -0.4092795             -11.1371
       114        2.0000           -0.3998855             -10.8814
       115        2.0000           -0.3956737             -10.7668
       116        2.0000           -0.3794491             -10.3253
       117        2.0000           -0.3773281             -10.2676
       118        2.0000           -0.3760556             -10.2330
       119        2.0000           -0.3645127              -9.9189
       120        2.0000           -0.3642855              -9.9127 (HOMO)
       121                         -0.2963509              -8.0641 (LUMO)
       122                         -0.2908789              -7.9152
       123                         -0.2761470              -7.5143
       124                         -0.2608113              -7.0970
       125                         -0.2532757              -6.8920
       126                         -0.2410727              -6.5599
       127                         -0.2325620              -6.3283
       128                         -0.2309745              -6.2851
       129                         -0.2278752              -6.2008
       130                         -0.2270585              -6.1786
       131                         -0.2199322              -5.9847
       ...                                ...                  ...
       234                          1.1670581              31.7573
      -------------------------------------------------------------
                  HL-Gap            0.0679347 Eh            1.8486 eV

     #   Z          covCN         q      C6AA      α(0)
     1   7 N        0.911    -0.232    26.084     7.387
     2   6 C        1.912     0.119    28.169     8.571
     3   6 C        2.973     0.010    27.794     8.648
     4   6 C        2.933    -0.015    28.388     8.738
     5   6 C        2.982    -0.001    28.045     8.687
     6   6 C        2.986     0.202    23.711     7.988
     7   7 N        1.845    -0.296    28.510     7.913
     8   6 C        2.982     0.204    23.683     7.983
     9   6 C        2.984    -0.000    28.029     8.684
    10   6 C        2.924    -0.022    28.566     8.765
    11   6 C        2.918    -0.027    28.666     8.780
    12   6 C        2.920    -0.022    28.563     8.764
    13   6 C        2.918    -0.027    28.676     8.781
    14   6 C        2.924    -0.023    28.579     8.767
    15   7 N        1.844    -0.292    28.411     7.900
    16   6 C        2.982     0.203    23.693     7.984
    17   6 C        2.984    -0.000    28.025     8.684
    18   6 C        2.924    -0.023    28.583     8.767
    19   6 C        2.918    -0.027    28.679     8.782
    20   6 C        2.920    -0.023    28.570     8.765
    21   6 C        2.918    -0.027    28.672     8.781
    22   6 C        2.924    -0.023    28.576     8.766
    23   7 N        1.844    -0.296    28.528     7.916
    24   6 C        2.922    -0.020    28.497     8.754
    25   6 C        2.919    -0.041    29.009     8.832
    26   6 C        2.918     0.078    26.249     8.402
    27   7 N        2.799    -0.041    22.034     6.972
    28   6 C        3.063     0.046    26.916     8.508
    29   6 C        2.910    -0.050    29.243     8.867
    30   6 C        2.925    -0.034    28.836     8.806
    31   6 C        2.920    -0.038    28.950     8.823
    32   6 C        2.914    -0.033    28.811     8.802
    33   6 C        3.067    -0.011    28.226     8.712
    34   6 C        3.058    -0.024    28.542     8.761
    35   6 C        2.924    -0.032    28.809     8.802
    36   6 C        3.029    -0.021    28.494     8.756
    37   6 C        3.105    -0.009    28.107     8.687
    38   6 C        2.912    -0.032    28.788     8.798
    39   6 C        2.919    -0.038    28.939     8.822
    40   6 C        2.923    -0.032    28.806     8.802
    41   6 C        2.909    -0.045    29.116     8.848
    42   6 C        3.079     0.051    26.783     8.485
    43   7 N        2.837    -0.026    21.741     6.925
    44   6 C        3.086     0.052    26.748     8.478
    45   6 C        2.909    -0.045    29.106     8.846
    46   6 C        2.923    -0.032    28.795     8.800
    47   6 C        2.919    -0.038    28.944     8.822
    48   6 C        2.912    -0.035    28.866     8.810
    49   6 C        3.103    -0.011    28.148     8.694
    50   6 C        3.017    -0.037    28.887     8.816
    51   6 C        3.089     0.047    26.849     8.493
    52   6 C        3.448     0.038    22.394     7.164
    53   1 H        0.926     0.068     2.104     2.268
    54   1 H        0.926     0.055     2.253     2.347
    55   1 H        0.926     0.039     2.457     2.451
    56   1 H        0.926     0.038     2.470     2.458
    57   1 H        0.926     0.038     2.475     2.460
    58   1 H        0.926     0.055     2.255     2.348
    59   1 H        0.926     0.054     2.270     2.356
    60   1 H        0.926     0.038     2.479     2.462
    61   1 H        0.926     0.038     2.475     2.460
    62   1 H        0.926     0.038     2.472     2.459
    63   1 H        0.926     0.056     2.246     2.344
    64   1 H        0.926     0.066     2.130     2.282
    65   1 H        0.926     0.053     2.287     2.365
    66   1 H        0.926     0.027     2.624     2.533
    67   1 H        0.926     0.032     2.561     2.503
    68   1 H        0.926     0.032     2.562     2.503
    69   1 H        0.926     0.034     2.525     2.485
    70   1 H        0.926     0.039     2.467     2.456
    71   1 H        0.926     0.035     2.515     2.480
    72   1 H        0.926     0.032     2.563     2.504
    73   1 H        0.926     0.033     2.548     2.496
    74   1 H        0.926     0.032     2.558     2.501
    75   1 H        0.926     0.034     2.534     2.490
    76   1 H        0.926     0.033     2.541     2.493
    77   1 H        0.926     0.029     2.599     2.521
    78   1 H        0.926     0.021     2.719     2.578

molecular dipole:
                 x           y           z       tot (Debye)
 q only:        0.820      -0.289      -0.685
   full:        1.218      -0.400      -0.941       4.041

 projected vibrational frequencies (cm⁻¹)
eigval :       -0.00    -0.00     0.00     0.00     0.00     0.00
eigval :        5.48    11.27    15.97    20.58    24.91    35.89
eigval :       38.99    42.63    51.88    56.20    70.45    81.56
eigval :       88.84    91.11   105.95   113.75   123.72   126.92
eigval :      135.41   142.24   157.05   158.45   165.90   182.48
eigval :      185.78   208.65   219.38   242.29   250.20   265.18
eigval :      267.02   280.36   290.59   321.01   334.42   352.54
eigval :      358.64   364.16   364.83   371.23   384.47   395.94
eigval :      399.15   401.71   406.90   413.50   425.24   430.22
eigval :      431.51   443.53   465.06   494.47   497.37   529.91
eigval :      536.19   543.83   549.70   552.90   554.50   569.09
eigval :      574.13   586.83   587.47   590.07   602.78   611.23
eigval :      612.87   616.22   627.04   637.40   643.79   651.07
eigval :      658.55   672.51   674.08   674.27   679.73   688.94
eigval :      700.82   701.47   705.26   708.28   741.04   752.28
eigval :      767.43   771.54   774.13   774.71   775.68   795.47
eigval :      823.08   836.60   846.08   846.29   848.22   864.49
eigval :      869.54   870.68   875.47   877.25   880.28   888.69
eigval :      901.14   901.83   902.99   904.64   910.10   911.52
eigval :      920.85   921.10   922.32   924.40   929.57   930.67
eigval :      931.46   933.94   934.30   936.77   984.35   990.59
eigval :     1000.17  1048.22  1063.77  1072.83  1074.00  1075.10
eigval :     1075.63  1081.10  1083.82  1090.86  1107.80  1109.10
eigval :     1112.38  1126.22  1136.89  1153.57  1160.37  1167.18
eigval :     1172.37  1174.92  1180.26  1181.05  1181.52  1188.29
eigval :     1189.78  1199.56  1202.91  1208.99  1211.93  1221.24
eigval :     1231.00  1241.32  1252.49  1262.47  1267.60  1268.77
eigval :     1271.15  1293.38  1309.46  1319.15  1328.11  1328.40
eigval :     1329.74  1348.40  1356.99  1361.63  1371.38  1372.69
eigval :     1373.09  1388.59  1396.41  1411.34  1414.70  1425.85
eigval :     1429.25  1432.59  1433.92  1439.40  1467.93  1473.43
eigval :     1474.97  1478.04  1480.52  1482.22  1508.23  1513.38
eigval :     1517.98  1548.25  1567.66  1575.66  1579.76  1583.58
eigval :     1585.76  1586.67  1594.75  1595.53  1597.10  1601.66
eigval :     1606.94  1609.54  1620.46  2370.83  3075.69  3076.13
eigval :     3078.72  3079.12  3079.57  3081.85  3082.66  3084.07
eigval :     3084.85  3088.22  3091.01  3091.49  3091.58  3092.91
eigval :     3094.61  3097.88  3098.39  3100.27  3101.86  3105.75
eigval :     3107.22  3107.40  3107.59  3109.36  3110.81  3113.15

   temp. (K)  partition function   enthalpy   heat capacity  entropy
                                   cal/mol     cal/K/mol   cal/K/mol   J/K/mol
 298.15  VIB  0.277E+19            23105.553    145.488    144.548
         ROT  0.110E+09              888.752      2.981     39.771
         INT  0.304E+27            23994.305    148.469    184.319
         TR   0.165E+29             1481.254      4.968     45.335
         TOT                       25475.5593   153.4368   229.6539   960.8720

       T/K    H(0)-H(T)+PV         H(T)/Eh          T*S/Eh         G(T)/Eh
   ------------------------------------------------------------------------
    298.15    0.405979E-01    0.618545E+00    0.109116E+00    0.509429E+00
   ------------------------------------------------------------------------

         :::::::::::::::::::::::::::::::::::::::::::::::::::::
         ::                  THERMODYNAMIC                  ::
         :::::::::::::::::::::::::::::::::::::::::::::::::::::
         :: total free energy        -128.851174100841 Eh   ::
         ::.................................................::
         :: total energy             -129.360603419288 Eh   ::
         :: zero point energy           0.577947423636 Eh   ::
         :: G(RRHO) w/o ZPVE           -0.068518105189 Eh   ::
         :: G(RRHO) contrib.            0.509429318447 Eh   ::
         :::::::::::::::::::::::::::::::::::::::::::::::::::::

           -------------------------------------------------
          | TOTAL ENERGY             -129.360603419288 Eh   |
          | TOTAL ENTHALPY           -128.742058107816 Eh   |
          | TOTAL FREE ENERGY        -128.851174100841 Eh   |
          | GRADIENT NORM               0.000056107502 Eh/α |
          | HOMO-LUMO GAP               1.848596414187 eV   |
           -------------------------------------------------

 * finished run on 2025/08/29 at 19:27:32.057
