   * xtb version 6.7.1 (edcfbbe) compiled by 'albert@albert-system' on 2024-07-22

   ID    Z sym.   atoms
    1    7 N      1, 7, 15, 23, 27, 43
    2    6 C      2-6, 8-14, 16-22, 24-26, 28-42, 44-52
    3    1 H      53-78

          program call               : xtb data2507/gas/DICzTrz/DICzTrz_gas_T1_crest.xyz --gfn 2 --spinpol --tblite --uhf 2 --ohess vtight --parallel 40 --molden --ceasefiles --namespace data2507/gas/DICzTrz/DICzTrz_gas_T1_finalOpt
 * total energy  :  -129.2882201 Eh     change       -0.6771558E-08 Eh
 * total energy  :  -129.2882785 Eh     change       -0.5837296E-04 Eh
 * total energy  :  -129.2883026 Eh     change       -0.2417748E-04 Eh
 * total energy  :  -129.2883044 Eh     change       -0.1792379E-05 Eh
 * total energy  :  -129.2883055 Eh     change       -0.1117557E-05 Eh
 * total energy  :  -129.2883066 Eh     change       -0.1019177E-05 Eh
 * total energy  :  -129.2883075 Eh     change       -0.9461277E-06 Eh
 * total energy  :  -129.2883084 Eh     change       -0.8613684E-06 Eh
 * total energy  :  -129.2883095 Eh     change       -0.1122755E-05 Eh
 * total energy  :  -129.2883101 Eh     change       -0.6413469E-06 Eh
 * total energy  :  -129.2883114 Eh     change       -0.3493084E-06 Eh
 * total energy  :  -129.2883118 Eh     change       -0.3346146E-06 Eh
 * total energy  :  -129.2883121 Eh     change       -0.3212840E-06 Eh
 * total energy  :  -129.2883124 Eh     change       -0.2953437E-06 Eh
 * total energy  :  -129.2883126 Eh     change       -0.2353400E-06 Eh
 * total energy  :  -129.2883128 Eh     change       -0.1725907E-06 Eh
 * total energy  :  -129.2883129 Eh     change       -0.1158173E-06 Eh
 * total energy  :  -129.2883131 Eh     change       -0.2107157E-06 Eh
 * total energy  :  -129.2883132 Eh     change       -0.5940868E-07 Eh
   *** GEOMETRY OPTIMIZATION CONVERGED AFTER 22 ITERATIONS ***

 final structure:
================
78
 xtb: 6.7.1 (edcfbbe)
N           -1.93635885998563        0.93288401595474        2.42929895000261
C           -1.19510866168282        0.33534362285071        1.78876251443913
C           -0.27332315696817       -0.40510667540544        1.01758245389762
C            1.04662688098645       -0.00227365032747        0.95976291126127
C            1.98897705176325       -0.73383109938463        0.21439905018864
C            3.34035461010118       -0.31120648716329        0.14885258454907
N            3.73425778826059        0.80421684814600        0.81467935501252
C            4.98244391685446        1.17724914535312        0.74148036632804
C            5.41378971218620        2.37635815748017        1.44792015916148
C            4.49860488921545        3.12606989452492        2.18792172843198
C            4.91331355645346        4.25964613170382        2.85679236232745
C            6.24048705375621        4.65876249713976        2.79666158105167
C            7.15421859801426        3.91835707617596        2.06249095677606
C            6.74696648340196        2.78313171490586        1.39045006054738
N            5.90028834230610        0.48770626734802        0.03444339322505
C            5.47976029629557       -0.61749867038680       -0.61558183230004
C            6.45615506209551       -1.37586374936263       -1.38578831004341
C            6.06913229338403       -2.52089003049625       -2.08348910754232
C            6.99867930617135       -3.23552489141687       -2.81095269875975
C            8.32159558364334       -2.81988450400437       -2.85228536705789
C            8.71232303888091       -1.68331902571540       -2.16117994537613
C            7.78809741909896       -0.96288920612753       -1.43122777989591
N            4.23877654549572       -1.02033960143983       -0.57856384907691
C            1.55252150852454       -1.89706533493909       -0.46550243856475
C            0.24270570281618       -2.29832712573764       -0.40489459926326
C           -0.69593187719128       -1.56471695752053        0.32432937438732
N           -2.03261271990369       -1.97988182275038        0.40607523824051
C           -2.44922948123954       -3.17445488668584        0.96155265792033
C           -1.69007385307392       -4.24825057256366        1.40091755712264
C           -2.36280290101974       -5.33357587827419        1.93232773266808
C           -3.75102346828634       -5.34469515406531        2.03246314722244
C           -4.50822331442152       -4.26418782762347        1.61433378536433
C           -3.85689382637515       -3.16534591769469        1.07537584266082
C           -4.31188673978023       -1.89345259881415        0.57224854387749
C           -5.60660070870820       -1.38095933950669        0.50361041964953
C           -5.74920698661891       -0.09940568963167       -0.02116215166699
C           -6.75540645213396        0.89402130767653       -0.33494478547267
C           -8.13096380180839        0.92928371686980       -0.16511468479455
C           -8.82804425214922        2.04973830676701       -0.58096732846171
C           -8.17186238877093        3.12932482522236       -1.16081877129319
C           -6.79806534892540        3.12535536533156       -1.34475525277207
C           -6.09131502938705        2.01199734021225       -0.93400495466279
N           -4.73558131791270        1.73007651439692       -0.99304966086022
C           -3.48984976567911        2.15971672084758       -1.41477300352232
C           -3.11965510908366        3.33002798073102       -2.04865700847023
C           -1.78977813688945        3.48957669418138       -2.40079706459976
C           -0.85558083820614        2.49342416080395       -2.14446005884704
C           -1.21363331135473        1.31776497895071       -1.51011661662498
C           -2.53122497999530        1.13822423934705       -1.10988347375727
C           -3.24303190501986        0.06063298794251       -0.45125431058198
C           -3.12747196299588       -1.20222455099686        0.14972389707252
C           -4.56270713774791        0.49786883443190       -0.44706641773205
H            1.36881800441167        0.88070634339977        1.48958742582923
H            3.46961217263737        2.80348767315814        2.22587076735263
H            4.20200028733232        4.83713210116548        3.42887176969685
H            6.56181503508604        5.54616738764154        3.32186639482007
H            8.18755520233815        4.22988190607101        2.01614750782504
H            7.44639971599500        2.19623070046467        0.81521737829762
H            5.03656760914544       -2.83128397058135       -2.04180021739070
H            6.69551756332489       -4.12132235336048       -3.34992976320210
H            9.04663926601952       -3.38162004062800       -3.42266901043320
H            9.74262846706576       -1.36022198239803       -2.19371827241755
H            8.07724826018895       -0.07639199776385       -0.88811066633849
H            2.27597355174525       -2.45490635584973       -1.03802731413206
H           -0.08829001125846       -3.17629149268166       -0.94061532680718
H           -0.61271165639688       -4.23483256199265        1.33785905316722
H           -1.79963305219914       -6.18654343527086        2.27976534181274
H           -4.24229602491540       -6.20971219830807        2.45209104447097
H           -5.58324161455049       -4.27443097109568        1.70874314682142
H           -6.44325897599503       -1.96678299142257        0.84972028589053
H           -8.64472847769590        0.09384991903136        0.28595341076307
H           -9.89944141297806        2.08946228052910       -0.45354937271383
H           -8.74306978087491        3.99013320112599       -1.47475753868920
H           -6.29846944854959        3.96901526135862       -1.79479562448716
H           -3.84662661966067        4.09635282353125       -2.26819420012225
H           -1.47751807847304        4.39801435849221       -2.89361023285909
H            0.17011267062620        2.63744755972329       -2.44905489916366
H           -0.47444231435721        0.55056358209706       -1.34483122297588

 projected vibrational frequencies (cm⁻¹)
eigval :       -0.00    -0.00     0.00     0.00     0.00     0.00
eigval :        8.82    10.84    15.79    24.70    27.34    34.18
eigval :       37.91    40.62    48.98    54.04    69.36    80.21
eigval :       86.14    99.58   109.58   110.62   119.70   124.44
eigval :      131.06   139.95   151.88   156.35   165.25   183.45
eigval :      192.97   211.88   222.53   240.53   246.38   249.99
eigval :      262.00   276.00   282.62   320.96   328.44   347.28
eigval :      362.93   365.86   366.56   368.45   369.91   382.25
eigval :      390.47   397.68   398.60   408.04   409.17   411.70
eigval :      424.26   435.05   445.72   487.78   492.63   524.35
eigval :      531.14   538.42   542.97   547.70   547.99   551.48
eigval :      555.82   565.51   572.09   587.17   588.25   589.10
eigval :      600.15   603.39   604.71   611.26   626.59   641.41
eigval :      653.47   657.25   659.94   662.60   665.57   679.50
eigval :      680.30   690.50   700.72   704.76   708.52   730.79
eigval :      740.71   762.32   763.91   770.33   772.83   773.21
eigval :      800.42   806.23   819.94   821.27   838.95   844.38
eigval :      855.44   863.97   868.65   868.85   870.01   872.10
eigval :      877.57   891.88   900.41   901.20   901.58   902.75
eigval :      904.33   910.05   916.33   920.63   920.69   922.18
eigval :      922.49   926.18   927.22   929.81   930.41   961.84
eigval :      984.52   988.30   997.92  1057.65  1060.75  1069.14
eigval :     1070.74  1073.93  1075.72  1079.17  1082.51  1104.26
eigval :     1108.89  1110.03  1117.79  1126.10  1141.21  1149.73
eigval :     1156.82  1169.41  1173.37  1177.42  1180.00  1180.52
eigval :     1182.67  1188.67  1189.54  1192.69  1200.00  1211.66
eigval :     1215.55  1232.83  1247.58  1254.49  1262.34  1264.68
eigval :     1267.64  1269.04  1279.01  1281.08  1299.16  1312.60
eigval :     1330.52  1331.42  1332.89  1335.55  1348.75  1355.85
eigval :     1366.96  1383.11  1387.35  1399.69  1406.29  1413.12
eigval :     1418.41  1426.77  1429.29  1431.54  1438.63  1444.01
eigval :     1459.04  1463.81  1465.82  1476.63  1479.11  1485.05
eigval :     1494.67  1500.00  1542.26  1546.31  1564.93  1574.26
eigval :     1575.26  1576.49  1580.80  1584.65  1587.15  1593.87
eigval :     1597.42  1600.56  1610.50  2361.16  3074.70  3075.36
eigval :     3079.46  3080.52  3080.58  3081.88  3082.63  3083.60
eigval :     3087.58  3087.93  3089.97  3090.47  3091.69  3094.61
eigval :     3095.62  3099.17  3100.07  3100.47  3100.50  3101.25
eigval :     3101.78  3101.94  3102.31  3103.18  3109.43  3116.01

   temp. (K)  partition function   enthalpy   heat capacity  entropy
                                   cal/mol     cal/K/mol   cal/K/mol   J/K/mol
 298.15  VIB  0.250E+19            23470.636    147.928    145.942
         ROT  0.111E+09              888.752      2.981     39.792
         INT  0.277E+27            24359.389    150.909    185.734
         TR   0.165E+29             1481.254      4.968     45.335
         TOT                       25840.6426   155.8769   231.0688   966.7918

       T/K    H(0)-H(T)+PV         H(T)/Eh          T*S/Eh         G(T)/Eh
   ------------------------------------------------------------------------
    298.15    0.411797E-01    0.613760E+00    0.109788E+00    0.503972E+00
   ------------------------------------------------------------------------

         :::::::::::::::::::::::::::::::::::::::::::::::::::::
         ::                  THERMODYNAMIC                  ::
         :::::::::::::::::::::::::::::::::::::::::::::::::::::
         :: total free energy        -128.784341431517 Eh   ::
         ::.................................................::
         :: total energy             -129.288313208187 Eh   ::
         :: zero point energy           0.572580323390 Eh   ::
         :: G(RRHO) w/o ZPVE           -0.068608546719 Eh   ::
         :: G(RRHO) contrib.            0.503971776670 Eh   ::
         :::::::::::::::::::::::::::::::::::::::::::::::::::::

           -------------------------------------------------
          | TOTAL ENERGY             -129.288313208187 Eh   |
          | TOTAL ENTHALPY           -128.674553199549 Eh   |
          | TOTAL FREE ENERGY        -128.784341431517 Eh   |
          | GRADIENT NORM               0.000104851540 Eh/α |
           -------------------------------------------------

 * finished run on 2025/08/29 at 19:34:44.936
