   * xtb version 6.7.1 (edcfbbe) compiled by 'albert@albert-system' on 2024-07-22

   ID    Z sym.   atoms
    1    7 N      1, 7, 15, 23, 27, 43
    2    6 C      2-6, 8-14, 16-22, 24-26, 28-42, 44-52
    3    1 H      53-78

          program call               : xtb data2507/gas/DICzTrz/DICzTrz.xyz --gfn 2 --ohess vtight --parallel 40 --molden --ceasefiles --namespace data2507/gas/DICzTrz/DICzTrz_gas_S0_preOpt
          :  Hamiltonian                  GFN2-xTB          :
 * total energy  :  -129.3220010 Eh     change       -0.2291472E-08 Eh
 * total energy  :  -129.3481498 Eh     change       -0.2614881E-01 Eh
 * total energy  :  -129.3553781 Eh     change       -0.7228243E-02 Eh
 * total energy  :  -129.3571818 Eh     change       -0.1803780E-02 Eh
 * total energy  :  -129.3584044 Eh     change       -0.1222604E-02 Eh
 * total energy  :  -129.3592304 Eh     change       -0.8259715E-03 Eh
 * total energy  :  -129.3597029 Eh     change       -0.4724382E-03 Eh
 * total energy  :  -129.3598840 Eh     change       -0.1811957E-03 Eh
 * total energy  :  -129.3600413 Eh     change       -0.1572177E-03 Eh
 * total energy  :  -129.3601270 Eh     change       -0.8568998E-04 Eh
 * total energy  :  -129.3605116 Eh     change       -0.9705937E-06 Eh
 * total energy  :  -129.3605123 Eh     change       -0.6776879E-06 Eh
 * total energy  :  -129.3605129 Eh     change       -0.5949514E-06 Eh
 * total energy  :  -129.3605134 Eh     change       -0.4974074E-06 Eh
 * total energy  :  -129.3605139 Eh     change       -0.4969620E-06 Eh
 * total energy  :  -129.3605144 Eh     change       -0.4776762E-06 Eh
 * total energy  :  -129.3605148 Eh     change       -0.4791013E-06 Eh
 * total energy  :  -129.3605153 Eh     change       -0.4465464E-06 Eh
 * total energy  :  -129.3605153 Eh     change       -0.1126494E-08 Eh
   *** GEOMETRY OPTIMIZATION CONVERGED AFTER 68 ITERATIONS ***

 final structure:
================
78
 xtb: 6.7.1 (edcfbbe)
N           -2.08763521226456        1.08523340216965        2.33034253554559
C           -1.37176207557302        0.43363804367129        1.71629675083843
C           -0.44750552506271       -0.36779349965546        1.00645127646862
C            0.88303755256438        0.03255333634403        0.94960002135784
C            1.82309710881658       -0.75366917777494        0.29515467930984
C            3.22129098135498       -0.32493102454457        0.23183156465387
N            3.55566059327445        0.79143140040183        0.86872720956271
C            4.83890729545533        1.13881395897404        0.79713871186356
C            5.26311849959352        2.34931511886673        1.49812108434908
C            4.33719900440887        3.10585991269680        2.21452216650738
C            4.74319433371604        4.24654761236511        2.87908343875584
C            6.07139830158499        4.64132816466884        2.83539258610348
C            6.99623295290384        3.89253765415179        2.12383112165583
C            6.59720303915741        2.75096248139333        1.45679030087481
N            5.75602227363691        0.44777808931286        0.12648201059386
C            5.33062257016502       -0.64989709855329       -0.49082445624551
C            6.30378570386550       -1.43346447015786       -1.25048607292517
C            5.90251850517925       -2.58119146917641       -1.93174868585308
C            6.82465397925876       -3.31693571766162       -2.65000403354047
C            8.15095107015249       -2.91594199577571       -2.69507582602210
C            8.55529694151297       -1.77498964983973       -2.01922724549842
C            7.63828520472291       -1.03459444931813       -1.29919463692429
N            4.07037524840657       -1.07880156362669       -0.45798110815771
C            1.42477421171047       -1.95237673190200       -0.29957443722267
C            0.10828702060907       -2.35783419142575       -0.24372209620970
C           -0.84771929649877       -1.57433975508341        0.39988048054677
N           -2.17498308860154       -1.98848647909241        0.46445104988499
C           -2.60341415800542       -3.17678995281018        1.04006672698198
C           -1.86025843493743       -4.25267811160813        1.49643414188157
C           -2.54471322404898       -5.31518518835839        2.05827520607743
C           -3.93139976869088       -5.30247260081778        2.17425110382157
C           -4.67122276945484       -4.21797385681579        1.74505181016200
C           -4.00670462844177       -3.14019908685168        1.17529485142201
C           -4.45429790872487       -1.87241943091385        0.65970462363800
C           -5.75262225753761       -1.35643248074380        0.58507788653824
C           -5.89314194121300       -0.09239274308846        0.03379514643856
C           -6.89848187957508        0.90072690795985       -0.30115199376493
C           -8.27076303114660        0.94879376956266       -0.12194910101180
C           -8.96598784432289        2.06135907043664       -0.56448752511156
C           -8.30931471508388        3.11947547943880       -1.17954586149117
C           -6.93715447961739        3.10133317177837       -1.37323334981368
C           -6.23406903501722        1.99554499790647       -0.93608029678059
N           -4.87908746193719        1.70509515135222       -0.99804944336582
C           -3.63767969441984        2.11375010086415       -1.44669688656875
C           -3.26992432861459        3.26203899831269       -2.12286095224936
C           -1.94617523891892        3.40285521546014       -2.50090243190303
C           -1.01529802441586        2.40795793632681       -2.23073979759332
C           -1.37138441756225        1.25483089825263       -1.55432489489727
C           -2.68108595340033        1.09710229934082       -1.12355541961352
C           -3.39119498155104        0.04226275643511       -0.42195741294094
C           -3.27699985487748       -1.19576338384298        0.21733384076853
C           -4.70814428408090        0.48779773901980       -0.41824798481521
H            1.19291038307089        0.95567115179537        1.41378031466750
H            3.30796454225184        2.78434675232559        2.23916332729613
H            4.02428576632816        4.83118086582065        3.43394183120207
H            6.38632678991661        5.53350199468430        3.35664769978968
H            8.03049225587750        4.20231409180484        2.09144073727689
H            7.30246021203231        2.15570564442310        0.89855279571694
H            4.86644743605678       -2.87765028455721       -1.88692254435138
H            6.51201216328342       -4.20597820112170       -3.17788160758844
H            8.87009159732667       -3.49304909401211       -3.25777981493767
H            9.58917440771910       -1.46453572133036       -2.05605195526827
H            7.93428771859809       -0.14425997857966       -0.76728393075540
H            2.16563887220953       -2.54762420324794       -0.80906829623877
H           -0.20387662710793       -3.27466134679104       -0.72080344203741
H           -0.78276014957266       -4.26394192730489        1.42936495754740
H           -1.99006426641027       -6.16920096641440        2.41740081484273
H           -4.43155555936774       -6.15103351966762        2.61654310748700
H           -5.74486131969536       -4.20317548716971        1.85347359015042
H           -6.58764185854120       -1.93570969120514        0.94574222766374
H           -8.78605683750200        0.12957025877521        0.35660640677218
H          -10.03631152554609        2.10992661557211       -0.42973760557334
H           -8.87783587042520        3.97452464336743       -1.51397326661519
H           -6.43564043707151        3.92859294243827       -1.85112879038494
H           -3.99674326495452        4.02462649456816       -2.35569644988587
H           -1.63606028534498        4.29312216684975       -3.02728802782732
H            0.00575973557602        2.53341334642585       -2.55942791415485
H           -0.63422975715375        0.48495789452506       -1.38737654087260

          :  Hamiltonian                  GFN2-xTB          :
         :: gradient norm              0.000076344350 Eh/a0 ::
         :: HOMO-LUMO gap              1.838052186291 eV    ::
         :: SCC energy              -131.774914299578 Eh    ::
         :: -> dispersion             -0.116208982154 Eh    ::
         :: repulsion energy           2.414399004645 Eh    ::

    * Orbital Energies and Occupations

         #    Occupation            Energy/Eh            Energy/eV
      -------------------------------------------------------------
         1        2.0000           -0.6896551             -18.7665
       ...           ...                  ...                  ...
       108        2.0000           -0.4167785             -11.3411
       109        2.0000           -0.4155770             -11.3084
       110        2.0000           -0.4139816             -11.2650
       111        2.0000           -0.4118144             -11.2060
       112        2.0000           -0.4102981             -11.1648
       113        2.0000           -0.4093010             -11.1376
       114        2.0000           -0.3998416             -10.8802
       115        2.0000           -0.3956396             -10.7659
       116        2.0000           -0.3794100             -10.3243
       117        2.0000           -0.3773767             -10.2689
       118        2.0000           -0.3761120             -10.2345
       119        2.0000           -0.3644022              -9.9159
       120        2.0000           -0.3642446              -9.9116 (HOMO)
       121                         -0.2966974              -8.0735 (LUMO)
       122                         -0.2910244              -7.9192
       123                         -0.2762689              -7.5177
       124                         -0.2607730              -7.0960
       125                         -0.2533982              -6.8953
       126                         -0.2410527              -6.5594
       127                         -0.2326339              -6.3303
       128                         -0.2309888              -6.2855
       129                         -0.2278620              -6.2004
       130                         -0.2270305              -6.1778
       131                         -0.2198340              -5.9820
       ...                                ...                  ...
       234                          1.1672239              31.7618
      -------------------------------------------------------------
                  HL-Gap            0.0675472 Eh            1.8381 eV

     #   Z          covCN         q      C6AA      α(0)
     1   7 N        0.911    -0.232    26.074     7.385
     2   6 C        1.911     0.119    28.169     8.571
     3   6 C        2.973     0.010    27.793     8.648
     4   6 C        2.933    -0.015    28.389     8.738
     5   6 C        2.982    -0.001    28.045     8.687
     6   6 C        2.986     0.202    23.713     7.988
     7   7 N        1.844    -0.296    28.509     7.913
     8   6 C        2.982     0.204    23.684     7.983
     9   6 C        2.984    -0.000    28.030     8.685
    10   6 C        2.924    -0.022    28.564     8.765
    11   6 C        2.918    -0.027    28.666     8.780
    12   6 C        2.920    -0.022    28.561     8.764
    13   6 C        2.918    -0.027    28.676     8.781
    14   6 C        2.924    -0.023    28.579     8.767
    15   7 N        1.844    -0.292    28.410     7.899
    16   6 C        2.982     0.203    23.693     7.985
    17   6 C        2.984    -0.000    28.026     8.684
    18   6 C        2.924    -0.023    28.582     8.767
    19   6 C        2.918    -0.027    28.679     8.782
    20   6 C        2.920    -0.023    28.570     8.765
    21   6 C        2.918    -0.027    28.672     8.781
    22   6 C        2.924    -0.023    28.576     8.766
    23   7 N        1.844    -0.296    28.527     7.916
    24   6 C        2.922    -0.020    28.497     8.754
    25   6 C        2.919    -0.040    29.004     8.831
    26   6 C        2.918     0.079    26.244     8.401
    27   7 N        2.799    -0.042    22.044     6.973
    28   6 C        3.063     0.046    26.914     8.507
    29   6 C        2.910    -0.050    29.243     8.867
    30   6 C        2.925    -0.034    28.835     8.806
    31   6 C        2.920    -0.038    28.951     8.823
    32   6 C        2.914    -0.033    28.811     8.802
    33   6 C        3.067    -0.011    28.227     8.712
    34   6 C        3.058    -0.024    28.542     8.761
    35   6 C        2.924    -0.032    28.808     8.802
    36   6 C        3.029    -0.021    28.495     8.756
    37   6 C        3.106    -0.009    28.106     8.687
    38   6 C        2.912    -0.032    28.788     8.798
    39   6 C        2.919    -0.038    28.939     8.822
    40   6 C        2.923    -0.032    28.806     8.802
    41   6 C        2.909    -0.045    29.116     8.848
    42   6 C        3.079     0.051    26.783     8.485
    43   7 N        2.837    -0.026    21.743     6.925
    44   6 C        3.086     0.051    26.750     8.478
    45   6 C        2.909    -0.045    29.106     8.846
    46   6 C        2.923    -0.032    28.796     8.800
    47   6 C        2.919    -0.038    28.944     8.822
    48   6 C        2.912    -0.035    28.867     8.810
    49   6 C        3.103    -0.011    28.149     8.694
    50   6 C        3.017    -0.037    28.889     8.817
    51   6 C        3.090     0.047    26.845     8.493
    52   6 C        3.448     0.038    22.391     7.163
    53   1 H        0.926     0.069     2.100     2.266
    54   1 H        0.926     0.055     2.255     2.348
    55   1 H        0.926     0.039     2.455     2.450
    56   1 H        0.926     0.038     2.469     2.457
    57   1 H        0.926     0.038     2.475     2.460
    58   1 H        0.926     0.055     2.253     2.347
    59   1 H        0.926     0.054     2.271     2.357
    60   1 H        0.926     0.038     2.479     2.462
    61   1 H        0.926     0.038     2.474     2.460
    62   1 H        0.926     0.038     2.472     2.459
    63   1 H        0.926     0.056     2.246     2.344
    64   1 H        0.926     0.066     2.125     2.280
    65   1 H        0.926     0.053     2.286     2.365
    66   1 H        0.926     0.027     2.629     2.536
    67   1 H        0.926     0.032     2.562     2.503
    68   1 H        0.926     0.032     2.563     2.503
    69   1 H        0.926     0.034     2.525     2.485
    70   1 H        0.926     0.039     2.467     2.456
    71   1 H        0.926     0.035     2.515     2.480
    72   1 H        0.926     0.032     2.563     2.504
    73   1 H        0.926     0.033     2.548     2.496
    74   1 H        0.926     0.032     2.559     2.502
    75   1 H        0.926     0.034     2.534     2.489
    76   1 H        0.926     0.033     2.541     2.493
    77   1 H        0.926     0.029     2.604     2.523
    78   1 H        0.926     0.021     2.722     2.580

molecular dipole:
                 x           y           z       tot (Debye)
 q only:        0.831      -0.369      -0.635
   full:        1.229      -0.507      -0.883       4.056

 projected vibrational frequencies (cm⁻¹)
eigval :       -0.00     0.00     0.00     0.00     0.00     0.00
eigval :        4.07    11.59    15.69    16.73    22.95    35.76
eigval :       38.58    42.47    51.51    56.66    71.79    80.79
eigval :       87.51    90.34   106.26   113.90   122.82   127.01
eigval :      134.08   142.40   154.81   158.56   166.61   181.82
eigval :      185.42   208.20   218.27   242.48   250.62   265.40
eigval :      267.40   281.03   289.13   321.22   334.10   352.82
eigval :      357.74   363.74   364.54   371.09   383.67   396.70
eigval :      399.06   401.54   408.62   413.07   425.17   429.60
eigval :      430.19   443.53   465.23   494.28   496.94   530.03
eigval :      536.26   542.96   549.45   553.40   558.35   565.05
eigval :      574.01   586.77   587.53   589.77   602.88   611.54
eigval :      612.94   616.32   626.86   637.38   643.84   650.77
eigval :      658.57   672.07   673.66   674.32   679.71   688.62
eigval :      700.74   701.60   705.25   708.32   741.04   752.16
eigval :      767.35   771.41   774.03   774.67   775.49   795.31
eigval :      823.01   836.51   846.18   846.79   847.54   864.40
eigval :      869.42   870.51   874.62   876.80   880.30   888.23
eigval :      901.06   901.75   902.72   904.64   909.56   911.22
eigval :      920.84   921.07   922.06   924.38   929.07   930.37
eigval :      931.47   933.90   934.20   936.54   984.30   990.56
eigval :     1000.18  1048.21  1063.75  1072.81  1073.81  1074.98
eigval :     1075.55  1081.02  1083.72  1090.67  1107.52  1108.94
eigval :     1112.34  1125.97  1136.62  1152.76  1160.37  1166.84
eigval :     1172.27  1174.83  1180.23  1181.04  1181.44  1188.30
eigval :     1189.84  1199.48  1202.95  1209.08  1211.86  1221.14
eigval :     1230.77  1241.42  1252.52  1262.46  1267.55  1268.59
eigval :     1271.07  1293.74  1309.41  1319.23  1328.12  1328.44
eigval :     1329.88  1348.30  1357.00  1361.61  1371.32  1372.58
eigval :     1373.04  1388.20  1396.42  1411.33  1414.74  1425.83
eigval :     1429.37  1432.59  1433.91  1439.39  1467.81  1473.23
eigval :     1475.02  1477.87  1480.52  1482.22  1508.19  1513.45
eigval :     1517.92  1548.60  1567.79  1575.85  1579.80  1583.57
eigval :     1585.79  1586.61  1594.76  1595.55  1597.44  1601.77
eigval :     1606.92  1609.65  1620.61  2371.34  3075.70  3076.14
eigval :     3078.71  3078.92  3079.47  3081.90  3082.71  3083.79
eigval :     3084.84  3088.12  3091.03  3091.33  3091.57  3092.89
eigval :     3094.31  3097.84  3098.30  3100.20  3101.79  3104.92
eigval :     3107.69  3107.86  3108.56  3109.94  3112.23  3114.17

   temp. (K)  partition function   enthalpy   heat capacity  entropy
                                   cal/mol     cal/K/mol   cal/K/mol   J/K/mol
 298.15  VIB  0.509E+19            23126.987    145.471    145.166
         ROT  0.110E+09              888.752      2.981     39.785
         INT  0.562E+27            24015.739    148.452    184.951
         TR   0.165E+29             1481.254      4.968     45.335
         TOT                       25496.9929   153.4198   230.2861   963.5170

       T/K    H(0)-H(T)+PV         H(T)/Eh          T*S/Eh         G(T)/Eh
   ------------------------------------------------------------------------
    298.15    0.406320E-01    0.618522E+00    0.109416E+00    0.509106E+00
   ------------------------------------------------------------------------

         :::::::::::::::::::::::::::::::::::::::::::::::::::::
         ::                  THERMODYNAMIC                  ::
         :::::::::::::::::::::::::::::::::::::::::::::::::::::
         :: total free energy        -128.851409392114 Eh   ::
         ::.................................................::
         :: total energy             -129.360515294933 Eh   ::
         :: zero point energy           0.577890212467 Eh   ::
         :: G(RRHO) w/o ZPVE           -0.068784309649 Eh   ::
         :: G(RRHO) contrib.            0.509105902819 Eh   ::
         :::::::::::::::::::::::::::::::::::::::::::::::::::::

           -------------------------------------------------
          | TOTAL ENERGY             -129.360515294933 Eh   |
          | TOTAL ENTHALPY           -128.741993037867 Eh   |
          | TOTAL FREE ENERGY        -128.851409392114 Eh   |
          | GRADIENT NORM               0.000076374873 Eh/α |
          | HOMO-LUMO GAP               1.838052123095 eV   |
           -------------------------------------------------

 * finished run on 2025/08/29 at 19:23:38.475
