   * xtb version 6.7.1 (edcfbbe) compiled by 'albert@albert-system' on 2024-07-22

   ID    Z sym.   atoms
    1    7 N      1, 7, 15, 23, 27, 43
    2    6 C      2-6, 8-14, 16-22, 24-26, 28-42, 44-52
    3    1 H      53-78

          program call               : xtb data2507/gas/DICzTrz/DICzTrz_gas_S0_finalOpt.xtbopt.xyz --gfn 2 --spinpol --tblite --uhf 2 --ohess vtight --parallel 40 --molden --ceasefiles --namespace data2507/gas/DICzTrz/DICzTrz_gas_T1_preOpt
 * total energy  :  -129.2826452 Eh     change       -0.4643792E-07 Eh
 * total energy  :  -129.2858662 Eh     change       -0.3220992E-02 Eh
 * total energy  :  -129.2876165 Eh     change       -0.1750297E-02 Eh
 * total energy  :  -129.2877859 Eh     change       -0.1693968E-03 Eh
 * total energy  :  -129.2878536 Eh     change       -0.6771850E-04 Eh
 * total energy  :  -129.2878933 Eh     change       -0.3963272E-04 Eh
 * total energy  :  -129.2879148 Eh     change       -0.2152051E-04 Eh
 * total energy  :  -129.2879255 Eh     change       -0.1073256E-04 Eh
 * total energy  :  -129.2879367 Eh     change       -0.1117254E-04 Eh
 * total energy  :  -129.2879454 Eh     change       -0.8695284E-05 Eh
 * total energy  :  -129.2882039 Eh     change       -0.6659965E-06 Eh
 * total energy  :  -129.2882045 Eh     change       -0.6738331E-06 Eh
 * total energy  :  -129.2882052 Eh     change       -0.6117205E-06 Eh
 * total energy  :  -129.2882058 Eh     change       -0.6673338E-06 Eh
 * total energy  :  -129.2882065 Eh     change       -0.6345638E-06 Eh
 * total energy  :  -129.2882071 Eh     change       -0.6315987E-06 Eh
 * total energy  :  -129.2882077 Eh     change       -0.6387917E-06 Eh
 * total energy  :  -129.2882077 Eh     change        0.2028767E-07 Eh
 * total energy  :  -129.2882077 Eh     change       -0.2359948E-07 Eh
   *** GEOMETRY OPTIMIZATION CONVERGED AFTER 123 ITERATIONS ***

 final structure:
================
78
 xtb: 6.7.1 (edcfbbe)
N           -1.96481372621121        0.86776298006300        2.38513263181859
C           -1.21690616940648        0.28863103609769        1.73539600482578
C           -0.28100200288086       -0.42890234637320        0.95950878577878
C            1.03293383644727       -0.00426955765811        0.91814889731483
C            1.99722088742146       -0.72036808491284        0.18631445778195
C            3.34342197363498       -0.27819167738803        0.14250310764927
N            3.69437540880144        0.88350288921880        0.75044828405782
C            4.93627774684278        1.27915649466836        0.68890155303649
C            5.31689545216959        2.54222110884189        1.30737641530291
C            4.35605969867243        3.33977786837502        1.93027651066159
C            4.72125639547126        4.53848701564956        2.50828992381535
C            6.04374380619118        4.95574723158199        2.47288738090376
C            7.00281926066820        4.16757641755082        1.85555524700928
C            6.64526841886779        2.96714936276924        1.27477296349955
N            5.89200100805946        0.55822174181949        0.06861151295535
C            5.51538205619488       -0.59803383109675       -0.51619753986088
C            6.53642731194743       -1.39922064754339       -1.17727875871564
C            6.20008410373423       -2.61064114697810       -1.78310944396412
C            7.17330665533505       -3.36986142787499       -2.39984724178168
C            8.48996220537710       -2.93330256438633       -2.42059454426306
C            8.83032183574802       -1.73052574161315       -1.82094520525247
C            7.86221317549944       -0.96519929291012       -1.20203092169296
N            4.27849058094336       -1.01497181382564       -0.50695727174264
C            1.58823806955473       -1.88883555499028       -0.50145678154230
C            0.28227647162117       -2.30493938800637       -0.46737368217534
C           -0.67822590593241       -1.58884552530664        0.25160136751149
N           -2.00865745341613       -2.02479647213184        0.31008774550043
C           -2.41093991364073       -3.24621472054321        0.81738152103261
C           -1.64001015027960       -4.32583981613494        1.22070736497076
C           -2.30070041425247       -5.44059734639455        1.70428856360803
C           -3.68911300804583       -5.47525548730425        1.79454831184773
C           -4.45836046184743       -4.38872470096803        1.41615907899981
C           -3.81897423312536       -3.26070547014973        0.92533234823307
C           -4.28957031011238       -1.97551523908122        0.47331766921589
C           -5.59006431011279       -1.47508195864587        0.43226799484628
C           -5.74863453356533       -0.17293252067309       -0.03380104663864
C           -6.76548626130175        0.82605506775578       -0.28973420384367
C           -8.13922202317758        0.84266297620086       -0.10307874761267
C           -8.84854763280001        1.97742581469218       -0.45439863050035
C           -8.20632455317219        3.08939222187861       -0.98675112357540
C           -6.83477543700335        3.10450940118979       -1.18635591402686
C           -6.11584898639386        1.97719666421070       -0.83983025287295
N           -4.75888801474988        1.70885931301601       -0.92671471319503
C           -3.51998852127170        2.17066097914676       -1.33403690526154
C           -3.16481222951135        3.37420789483518       -1.91176017519775
C           -1.83898501755493        3.56328403609696       -2.26446274484186
C           -0.89459258096214        2.56359017547037       -2.06572856249528
C           -1.23768808274535        1.35482485080469       -1.48786773180866
C           -2.55002054522924        1.14475369708963       -1.08511327841035
C           -3.24684498188070        0.03081206664971       -0.47221522325403
C           -3.11395186742352       -1.25322040255887        0.07891294022492
C           -4.57095390542239        0.45353969303625       -0.44189830286994
H            1.33449433698233        0.88044228119197        1.45718932100407
H            3.33096226767596        3.00329383035617        1.94849425866039
H            3.97455670928116        5.15344091297499        2.98892843138924
H            6.32602949926402        5.89475514277917        2.92585323673312
H            8.03245205786676        4.49329312053814        1.82832161154234
H            7.38019859094593        2.34287386555040        0.79030369148801
H            5.17211214197014       -2.93753183892233       -1.75683017131366
H            6.90955316616060       -4.30753428783992       -2.86700949121395
H            9.24948529880752       -3.53063512062884       -2.90319731959221
H            9.85581221053794       -1.39129342963253       -1.83719489571466
H            8.11200009669686       -0.02734986352653       -0.73031534754858
H            2.32820017914559       -2.43512255332060       -1.06396356294550
H           -0.02866420543752       -3.18140542208683       -1.01730482957902
H           -0.56253102604524       -4.29579780742004        1.16786574516180
H           -1.72743480279597       -6.29858722745406        2.02154425510924
H           -4.17079467398243       -6.36325464668218        2.17547429080290
H           -5.53362269568512       -4.41671195952720        1.50384360466837
H           -6.41848373922174       -2.08417798322494        0.75735396579284
H           -8.64205010306043       -0.01783667590580        0.31174690941002
H           -9.91858348012184        2.00312074075344       -0.31269792326913
H           -8.78681608517599        3.96086163963160       -1.25018862060223
H           -6.34606901294216        3.97339689461454       -1.59876441792775
H           -3.90015221948152        4.14369234031309       -2.08812070244356
H           -1.53815709773274        4.49812207996376       -2.71302841353651
H            0.12729616900480        2.73138859814595       -2.37096798557446
H           -0.49106431005260        0.58627274902722       -1.36812021221335

 projected vibrational frequencies (cm⁻¹)
eigval :       -0.00    -0.00     0.00     0.00     0.00     0.00
eigval :        8.97    10.66    15.90    24.88    27.45    34.30
eigval :       38.53    40.75    50.66    53.89    69.51    80.78
eigval :       87.20    99.60   108.94   111.78   120.89   124.24
eigval :      133.24   140.19   152.58   157.23   165.74   183.84
eigval :      192.94   212.35   221.81   240.64   246.36   249.42
eigval :      262.40   276.55   281.91   320.97   328.67   347.51
eigval :      362.88   365.84   366.60   369.87   370.38   381.64
eigval :      389.08   397.82   398.40   408.36   409.04   412.49
eigval :      424.40   435.45   446.33   487.53   492.76   523.93
eigval :      531.07   538.22   543.23   547.10   547.92   551.46
eigval :      556.00   565.49   572.19   587.14   588.27   589.05
eigval :      600.35   603.25   604.65   611.50   626.48   641.35
eigval :      653.56   657.16   659.65   662.59   665.37   679.30
eigval :      680.34   690.45   700.66   704.73   708.43   730.99
eigval :      740.49   762.25   763.90   770.37   772.90   773.25
eigval :      800.70   806.80   817.89   821.14   838.84   844.23
eigval :      856.00   864.04   868.82   869.02   870.03   872.13
eigval :      877.65   891.50   900.46   901.18   901.55   902.74
eigval :      904.57   911.34   916.40   920.65   921.06   922.29
eigval :      922.56   926.17   927.23   929.78   930.40   961.93
eigval :      984.44   990.63   997.75  1057.75  1060.82  1069.71
eigval :     1070.71  1074.00  1075.59  1079.44  1082.71  1104.30
eigval :     1109.04  1110.13  1117.45  1125.88  1140.81  1149.52
eigval :     1156.83  1169.35  1173.39  1177.48  1179.93  1180.42
eigval :     1182.61  1188.63  1189.46  1192.44  1199.99  1211.19
eigval :     1215.64  1232.53  1247.43  1254.20  1262.41  1264.55
eigval :     1267.64  1268.97  1279.09  1281.19  1298.45  1312.33
eigval :     1330.53  1331.47  1333.23  1335.51  1348.46  1355.55
eigval :     1366.60  1382.50  1387.28  1398.94  1405.97  1412.62
eigval :     1417.67  1426.56  1428.88  1430.98  1438.40  1443.50
eigval :     1458.43  1463.21  1465.32  1476.28  1478.75  1484.63
eigval :     1494.22  1499.68  1541.03  1545.93  1564.38  1574.06
eigval :     1574.99  1576.12  1580.65  1584.23  1586.98  1593.41
eigval :     1597.24  1600.27  1610.30  2360.51  3074.41  3074.97
eigval :     3079.21  3080.11  3080.62  3081.49  3082.60  3083.28
eigval :     3087.22  3088.09  3089.45  3089.91  3091.24  3094.76
eigval :     3095.13  3098.73  3099.67  3099.96  3100.49  3100.78
eigval :     3101.35  3101.64  3102.14  3102.59  3108.81  3114.44

   temp. (K)  partition function   enthalpy   heat capacity  entropy
                                   cal/mol     cal/K/mol   cal/K/mol   J/K/mol
 298.15  VIB  0.222E+19            23457.194    147.983    145.799
         ROT  0.110E+09              888.752      2.981     39.786
         INT  0.245E+27            24345.946    150.964    185.585
         TR   0.165E+29             1481.254      4.968     45.335
         TOT                       25827.1998   155.9322   230.9193   966.1664

       T/K    H(0)-H(T)+PV         H(T)/Eh          T*S/Eh         G(T)/Eh
   ------------------------------------------------------------------------
    298.15    0.411583E-01    0.613711E+00    0.109717E+00    0.503994E+00
   ------------------------------------------------------------------------

         :::::::::::::::::::::::::::::::::::::::::::::::::::::
         ::                  THERMODYNAMIC                  ::
         :::::::::::::::::::::::::::::::::::::::::::::::::::::
         :: total free energy        -128.784214042019 Eh   ::
         ::.................................................::
         :: total energy             -129.288207705904 Eh   ::
         :: zero point energy           0.572552618042 Eh   ::
         :: G(RRHO) w/o ZPVE           -0.068558954157 Eh   ::
         :: G(RRHO) contrib.            0.503993663885 Eh   ::
         :::::::::::::::::::::::::::::::::::::::::::::::::::::

           -------------------------------------------------
          | TOTAL ENERGY             -129.288207705904 Eh   |
          | TOTAL ENTHALPY           -128.674496825183 Eh   |
          | TOTAL FREE ENERGY        -128.784214042019 Eh   |
          | GRADIENT NORM               0.000101683356 Eh/α |
           -------------------------------------------------

 * finished run on 2025/08/29 at 19:27:55.393
