   * xtb version 6.7.1 (edcfbbe) compiled by 'albert@albert-system' on 2024-07-22

   ID    Z sym.   atoms
    1    8 O      1, 25
    2   15 P      2, 24
    3    6 C      3-18, 20-23, 26-41
    4    7 N      19
    5    1 H      42-68

          program call               : xtb data2507/gas/poCz-SO/poCz-SO_gas_S0_crest.xyz --gfn 2 --ohess vtight --parallel 40 --molden --ceasefiles --namespace data2507/gas/poCz-SO/poCz-SO_gas_S0_finalOpt
          :  Hamiltonian                  GFN2-xTB          :
 * total energy  :  -107.0514049 Eh     change       -0.4434497E-09 Eh
 * total energy  :  -107.0514060 Eh     change       -0.1120642E-05 Eh
 * total energy  :  -107.0514073 Eh     change       -0.1315308E-05 Eh
 * total energy  :  -107.0514099 Eh     change       -0.2602136E-05 Eh
 * total energy  :  -107.0514116 Eh     change       -0.1717483E-05 Eh
 * total energy  :  -107.0514132 Eh     change       -0.1547166E-05 Eh
 * total energy  :  -107.0514152 Eh     change       -0.1981959E-05 Eh
 * total energy  :  -107.0514167 Eh     change       -0.1540015E-05 Eh
 * total energy  :  -107.0514168 Eh     change       -0.1012693E-06 Eh
 * total energy  :  -107.0514174 Eh     change       -0.6088796E-06 Eh
 * total energy  :  -107.0514189 Eh     change       -0.2879414E-06 Eh
 * total energy  :  -107.0514194 Eh     change       -0.5103420E-06 Eh
 * total energy  :  -107.0514201 Eh     change       -0.6948937E-06 Eh
 * total energy  :  -107.0514206 Eh     change       -0.5150702E-06 Eh
 * total energy  :  -107.0514210 Eh     change       -0.3946405E-06 Eh
 * total energy  :  -107.0514214 Eh     change       -0.3808035E-06 Eh
 * total energy  :  -107.0514217 Eh     change       -0.3136024E-06 Eh
 * total energy  :  -107.0514219 Eh     change       -0.1471304E-06 Eh
 * total energy  :  -107.0514219 Eh     change       -0.4748372E-08 Eh
   *** GEOMETRY OPTIMIZATION CONVERGED AFTER 22 ITERATIONS ***

 final structure:
================
68
 xtb: 6.7.1 (edcfbbe)
O           -5.03222628414176        0.42680642801656        2.29533463445966
P           -4.22680747142032        0.11320333490619        1.10904945719031
C           -5.20234669300984        0.03994817834951       -0.42839513596456
C           -6.54177141567622       -0.30075118803352       -0.30477570193881
C           -7.34051975560232       -0.39032217723084       -1.43032416832064
C           -6.79885716144571       -0.13849350740528       -2.68053335989096
C           -5.46299976521550        0.20926679509838       -2.80429101516469
C           -4.66164027220743        0.30018609002844       -1.68033669664925
C           -3.36626110331556       -1.49041726185948        1.21215432761947
C           -2.83130639390300       -2.13457579006459        0.10318554594614
C           -2.13393653178033       -3.31772173299306        0.26690935896409
C           -1.97786149050433       -3.86377915473060        1.53157396803195
C           -2.52648851619301       -3.23181360162471        2.63551953490863
C           -3.21804832835955       -2.04394377464735        2.47556154643342
C           -2.91381757155666        1.33085227423736        0.76940910400991
C           -3.27470384198310        2.67662843822433        0.88936676189897
C           -2.37106537249226        3.69287678438067        0.65314200740560
C           -1.07898980519593        3.33411625922610        0.29118068979893
N            0.01164102619163        4.11589100716729        0.00441833109109
C            1.08416409497107        3.31348429046548       -0.29354011341081
C            2.38575630866060        3.64806718622398       -0.64485369290456
C            3.26744801217547        2.61497637910957       -0.89012147199832
C            2.87553323678983        1.27602195333367       -0.79060629486316
P            4.16255904728966        0.03659647977336       -1.15195864536144
O            4.88132777591859        0.27921234331058       -2.40867000713368
C            3.30499691725481       -1.57035925586228       -1.10000076945004
C            2.79661442231441       -2.11540632874773        0.07292431218361
C            2.10398307190971       -3.31158454305301        0.02964163016491
C            1.92625352552969       -3.96899346715241       -1.17810691756645
C            2.44746772795600       -3.43501394265168       -2.34518737838968
C            3.13457205372195       -2.23436785249995       -2.30592522908485
C            5.24469633008247        0.05416732687162        0.31393303240246
C            4.79400851380340        0.39368144213108        1.58235993770243
C            5.67273572412860        0.36864719560892        2.65044084800348
C            6.99624741221707        0.00703130989843        2.45463264269791
C            7.44792149561983       -0.32484093125862        1.18747608308877
C            6.57164484532230       -0.30094571862638        0.11768829416883
C            1.57928241331850        0.93732042718509       -0.44960892030443
C            0.67940485880418        1.96096895435817       -0.19868841185874
C           -0.70562014601951        1.97413460333766        0.17457713000679
C           -1.62755709880171        0.96788060899173        0.41414084144369
H           -6.94084854752983       -0.48037664418919        0.68339849611061
H           -8.38360266163910       -0.65431684881705       -1.33527552343901
H           -7.42010748088350       -0.20711698608709       -3.56156311962354
H           -5.04616214359229        0.41308765377217       -3.78011968699638
H           -3.62247024267697        0.58606504605168       -1.77051018739348
H           -2.96557005040688       -1.71296279458466       -0.88291450921194
H           -1.70928985258792       -3.81485777837356       -0.59344301721528
H           -1.43244535857849       -4.78832042659512        1.65420910211455
H           -2.41207595909795       -3.66355236664791        3.61911382810702
H           -3.65645267206034       -1.53010593845742        3.31905637176110
H           -4.28933047430279        2.90336142058755        1.18500666887669
H           -2.65841244290454        4.72939609432094        0.74842023609381
H            0.02338089998730        5.12157153687619        0.01183938688059
H            2.69692973252025        4.67906756024978       -0.72384854482723
H            4.28935392663079        2.82316211559433       -1.17520117061176
H            2.94603906192639       -1.60502450064323        1.01373806361274
H            1.69949293473538       -3.73211661084467        0.93911255879798
H            1.38455789533200       -4.90337320773202       -1.20656772845829
H            2.31519779884280       -3.95271732907917       -3.28403285155427
H            3.55090208944907       -1.79435036720051       -3.20075828181074
H            3.76398983531771        0.68988182955254        1.72750119247727
H            5.32620051071279        0.63482726061873        3.63867575049503
H            7.67825883224816       -0.00980378598269        3.29215962464890
H            8.48145794036806       -0.59967867627866        1.03576919724838
H            6.89972809107157       -0.54339001518425       -0.88314131772253
H            1.26938664918867       -0.09466833884146       -0.38060803656083
H           -1.34095055792939       -0.06962162948098        0.32937462733562

          :  Hamiltonian                  GFN2-xTB          :
         :: gradient norm              0.000046933229 Eh/a0 ::
         :: HOMO-LUMO gap              3.333815982931 eV    ::
         :: SCC energy              -108.961308043210 Eh    ::
         :: -> dispersion             -0.097069984735 Eh    ::
         :: repulsion energy           1.909886157999 Eh    ::

    * Orbital Energies and Occupations

         #    Occupation            Energy/Eh            Energy/eV
      -------------------------------------------------------------
         1        2.0000           -0.6932038             -18.8630
       ...           ...                  ...                  ...
        87        2.0000           -0.4207481             -11.4491
        88        2.0000           -0.4163454             -11.3293
        89        2.0000           -0.4160629             -11.3216
        90        2.0000           -0.4154828             -11.3059
        91        2.0000           -0.4150797             -11.2949
        92        2.0000           -0.4146047             -11.2820
        93        2.0000           -0.4139229             -11.2634
        94        2.0000           -0.4011291             -10.9153
        95        2.0000           -0.4009019             -10.9091
        96        2.0000           -0.4003354             -10.8937
        97        2.0000           -0.3992633             -10.8645
        98        2.0000           -0.3927620             -10.6876
        99        2.0000           -0.3830516             -10.4234 (HOMO)
       100                         -0.2605361              -7.0895 (LUMO)
       101                         -0.2524859              -6.8705
       102                         -0.2512453              -6.8367
       103                         -0.2484570              -6.7609
       104                         -0.2413993              -6.5688
       105                         -0.2384079              -6.4874
       106                         -0.2348698              -6.3911
       107                         -0.2345796              -6.3832
       108                         -0.2336014              -6.3566
       109                         -0.2332599              -6.3473
       110                         -0.2195743              -5.9749
       ...                                ...                  ...
       201                          1.1960763              32.5469
      -------------------------------------------------------------
                  HL-Gap            0.1225155 Eh            3.3338 eV

     #   Z          covCN         q      C6AA      α(0)
     1   8 O        0.808    -0.353    20.778     6.110
     2  15 P        4.079     0.057   157.724    22.560
     3   6 C        2.921     0.013    27.713     8.633
     4   6 C        3.028    -0.020    28.466     8.752
     5   6 C        2.919    -0.027    28.670     8.781
     6   6 C        2.921    -0.025    28.632     8.775
     7   6 C        2.920    -0.028    28.699     8.785
     8   6 C        2.973    -0.026    28.639     8.778
     9   6 C        2.920     0.014    27.693     8.630
    10   6 C        2.973    -0.026    28.656     8.781
    11   6 C        2.919    -0.028    28.706     8.786
    12   6 C        2.920    -0.025    28.634     8.775
    13   6 C        2.919    -0.027    28.678     8.782
    14   6 C        3.026    -0.020    28.469     8.752
    15   6 C        2.921     0.005    27.921     8.665
    16   6 C        3.032    -0.022    28.526     8.761
    17   6 C        2.909    -0.052    29.279     8.873
    18   6 C        3.069     0.058    26.624     8.461
    19   7 N        2.757    -0.114    23.488     7.198
    20   6 C        3.069     0.058    26.624     8.461
    21   6 C        2.909    -0.051    29.276     8.872
    22   6 C        3.033    -0.022    28.518     8.759
    23   6 C        2.921     0.005    27.913     8.664
    24  15 P        4.080     0.057   157.722    22.560
    25   8 O        0.808    -0.352    20.771     6.109
    26   6 C        2.920     0.014    27.695     8.630
    27   6 C        2.974    -0.026    28.651     8.780
    28   6 C        2.919    -0.028    28.705     8.786
    29   6 C        2.920    -0.025    28.633     8.775
    30   6 C        2.919    -0.027    28.680     8.782
    31   6 C        3.025    -0.020    28.471     8.752
    32   6 C        2.921     0.013    27.717     8.633
    33   6 C        2.974    -0.025    28.633     8.777
    34   6 C        2.920    -0.028    28.699     8.785
    35   6 C        2.921    -0.025    28.632     8.775
    36   6 C        2.919    -0.027    28.670     8.781
    37   6 C        3.028    -0.020    28.467     8.752
    38   6 C        2.968    -0.029    28.733     8.792
    39   6 C        3.075    -0.014    28.287     8.720
    40   6 C        3.075    -0.014    28.288     8.720
    41   6 C        2.969    -0.030    28.744     8.794
    42   1 H        0.926     0.060     2.200     2.319
    43   1 H        0.926     0.039     2.460     2.453
    44   1 H        0.926     0.037     2.486     2.466
    45   1 H        0.926     0.035     2.511     2.478
    46   1 H        0.925     0.036     2.507     2.476
    47   1 H        0.926     0.039     2.459     2.452
    48   1 H        0.926     0.034     2.531     2.488
    49   1 H        0.926     0.035     2.512     2.479
    50   1 H        0.926     0.039     2.465     2.455
    51   1 H        0.926     0.063     2.166     2.301
    52   1 H        0.926     0.057     2.235     2.338
    53   1 H        0.926     0.036     2.505     2.475
    54   1 H        0.860     0.163     1.313     1.795
    55   1 H        0.926     0.036     2.506     2.476
    56   1 H        0.926     0.055     2.263     2.353
    57   1 H        0.926     0.039     2.456     2.451
    58   1 H        0.926     0.034     2.529     2.487
    59   1 H        0.926     0.035     2.512     2.478
    60   1 H        0.926     0.039     2.464     2.455
    61   1 H        0.926     0.064     2.158     2.297
    62   1 H        0.925     0.035     2.514     2.480
    63   1 H        0.926     0.035     2.512     2.479
    64   1 H        0.926     0.037     2.485     2.465
    65   1 H        0.926     0.039     2.460     2.453
    66   1 H        0.926     0.060     2.201     2.320
    67   1 H        0.926     0.040     2.452     2.449
    68   1 H        0.926     0.040     2.447     2.446

molecular dipole:
                 x           y           z       tot (Debye)
 q only:        0.092       0.032       0.076
   full:        0.116       0.153       0.090       0.538

 projected vibrational frequencies (cm⁻¹)
eigval :       -0.00    -0.00     0.00     0.00     0.00     0.00
eigval :       -3.02     3.77    17.66    22.74    23.98    30.52
eigval :       31.08    37.54    42.79    48.04    50.12    54.50
eigval :       77.33    86.49    93.82   138.51   153.54   154.37
eigval :      156.02   174.45   185.38   207.65   210.34   219.89
eigval :      225.92   229.49   243.28   249.77   282.88   283.01
eigval :      294.17   313.44   339.76   363.99   364.27   364.63
eigval :      364.98   378.88   385.40   391.72   415.88   423.46
eigval :      424.48   433.27   435.55   470.99   472.24   496.46
eigval :      500.31   504.74   523.64   547.12   558.21   584.68
eigval :      585.53   586.35   586.51   588.23   606.93   656.65
eigval :      657.90   658.97   659.34   660.33   671.96   681.51
eigval :      698.83   701.99   713.17   715.59   715.99   740.92
eigval :      741.34   745.98   746.19   808.45   811.04   827.45
eigval :      870.86   873.21   874.54   880.77   880.95   882.25
eigval :      883.35   890.76   903.19   903.82   904.63   904.85
eigval :      906.24   907.18   927.83   928.00   929.12   929.65
eigval :      933.51   934.44   934.63   934.85   972.89   973.10
eigval :      975.48   975.54  1017.27  1076.94  1077.22  1078.33
eigval :     1078.40  1096.55  1108.31  1111.18  1111.62  1115.15
eigval :     1115.24  1124.52  1124.86  1126.94  1126.98  1138.28
eigval :     1146.02  1161.52  1178.76  1180.75  1180.76  1181.93
eigval :     1189.55  1190.30  1193.32  1194.33  1211.12  1228.39
eigval :     1243.69  1260.29  1261.49  1267.93  1268.26  1273.32
eigval :     1273.50  1302.34  1306.98  1321.09  1321.32  1322.24
eigval :     1322.38  1351.89  1374.83  1406.71  1424.05  1424.25
eigval :     1424.83  1425.53  1425.76  1453.08  1453.29  1454.28
eigval :     1454.42  1472.06  1476.28  1565.31  1575.99  1582.88
eigval :     1582.95  1584.26  1584.39  1586.49  1586.62  1587.92
eigval :     1588.02  1595.54  1610.89  3061.77  3062.22  3069.73
eigval :     3070.37  3071.95  3073.96  3074.04  3074.20  3074.67
eigval :     3075.08  3076.89  3077.07  3078.62  3079.09  3083.70
eigval :     3083.83  3084.20  3084.59  3085.05  3085.08  3085.98
eigval :     3087.30  3090.36  3090.58  3091.68  3091.81  3485.24

   temp. (K)  partition function   enthalpy   heat capacity  entropy
                                   cal/mol     cal/K/mol   cal/K/mol   J/K/mol
 298.15  VIB  0.311E+19            20767.215    124.841    132.975
         ROT  0.539E+08              888.752      2.981     38.361
         INT  0.168E+27            21655.967    127.822    171.336
         TR   0.131E+29             1481.254      4.968     44.873
         TOT                       23137.2213   132.7898   216.2088   904.6175

       T/K    H(0)-H(T)+PV         H(T)/Eh          T*S/Eh         G(T)/Eh
   ------------------------------------------------------------------------
    298.15    0.368715E-01    0.551017E+00    0.102728E+00    0.448290E+00
   ------------------------------------------------------------------------

         :::::::::::::::::::::::::::::::::::::::::::::::::::::
         ::                  THERMODYNAMIC                  ::
         :::::::::::::::::::::::::::::::::::::::::::::::::::::
         :: total free energy        -106.603132171324 Eh   ::
         ::.................................................::
         :: total energy             -107.051421885211 Eh   ::
         :: zero point energy           0.514145963329 Eh   ::
         :: G(RRHO) w/o ZPVE           -0.065856249442 Eh   ::
         :: G(RRHO) contrib.            0.448289713887 Eh   ::
         :::::::::::::::::::::::::::::::::::::::::::::::::::::

           -------------------------------------------------
          | TOTAL ENERGY             -107.051421885211 Eh   |
          | TOTAL ENTHALPY           -106.500404412836 Eh   |
          | TOTAL FREE ENERGY        -106.603132171324 Eh   |
          | GRADIENT NORM               0.000046933165 Eh/α |
          | HOMO-LUMO GAP               3.333815913907 eV   |
           -------------------------------------------------

 * finished run on 2025/09/10 at 01:01:47.583
