   * xtb version 6.7.1 (edcfbbe) compiled by 'albert@albert-system' on 2024-07-22

   ID    Z sym.   atoms
    1    8 O      1, 25
    2   15 P      2, 24
    3    6 C      3-18, 20-23, 26-41
    4    7 N      19
    5    1 H      42-68

          program call               : xtb data2507/gas/poCz-SO/poCz-SO_gas_T1_crest.xyz --gfn 2 --spinpol --tblite --uhf 2 --ohess vtight --parallel 40 --molden --ceasefiles --namespace data2507/gas/poCz-SO/poCz-SO_gas_T1_finalOpt
 * total energy  :  -106.9362951 Eh     change        0.5110664E-08 Eh
 * total energy  :  -106.9363604 Eh     change       -0.6535330E-04 Eh
 * total energy  :  -106.9363786 Eh     change       -0.1815584E-04 Eh
 * total energy  :  -106.9363808 Eh     change       -0.2246495E-05 Eh
 * total energy  :  -106.9363820 Eh     change       -0.1201053E-05 Eh
 * total energy  :  -106.9363826 Eh     change       -0.6200337E-06 Eh
 * total energy  :  -106.9363833 Eh     change       -0.6025901E-06 Eh
 * total energy  :  -106.9363838 Eh     change       -0.5605213E-06 Eh
 * total energy  :  -106.9363843 Eh     change       -0.5347359E-06 Eh
 * total energy  :  -106.9363849 Eh     change       -0.5217478E-06 Eh
 * total energy  :  -106.9363928 Eh     change       -0.2031221E-06 Eh
 * total energy  :  -106.9363930 Eh     change       -0.2233817E-06 Eh
 * total energy  :  -106.9363932 Eh     change       -0.1676595E-06 Eh
 * total energy  :  -106.9363934 Eh     change       -0.1861530E-06 Eh
 * total energy  :  -106.9363935 Eh     change       -0.1417865E-06 Eh
 * total energy  :  -106.9363937 Eh     change       -0.1481583E-06 Eh
 * total energy  :  -106.9363937 Eh     change        0.4219359E-08 Eh
 * total energy  :  -106.9363937 Eh     change        0.2253550E-07 Eh
 * total energy  :  -106.9363937 Eh     change       -0.7535286E-07 Eh
   *** GEOMETRY OPTIMIZATION CONVERGED AFTER 46 ITERATIONS ***

 final structure:
================
68
 xtb: 6.7.1 (edcfbbe)
O           -5.42415072569182        0.76770501650508        1.82342033550230
P           -4.37876799742181        0.29098702759120        0.91093750432228
C           -4.98816746695514       -0.06214540530577       -0.76971336004574
C           -6.32714290379965       -0.40987854121030       -0.88299403420393
C           -6.86415294015144       -0.70601477998899       -2.12254926894635
C           -6.06185847636881       -0.65297707986804       -3.25102931690298
C           -4.72703218237202       -0.29677129660939       -3.14031559180187
C           -4.18655739025970       -0.00029720262057       -1.90188041000760
C           -3.57331860584893       -1.24952989147573        1.46556325841777
C           -2.93356565108402       -2.13086286312084        0.60366214953913
C           -2.29917284813588       -3.24979626639637        1.11311928324319
C           -2.30926240562717       -3.49514564682860        2.47715849148534
C           -2.96179236333846       -2.62545274834123        3.33589834197249
C           -3.59109079575283       -1.50225603410503        2.82991854826884
C           -3.00570226993576        1.46624694434455        0.68378683051071
C           -3.30288061417685        2.79601572119503        0.86196167310213
C           -2.29460538644542        3.82217403775671        0.68537617431141
C           -1.04326304604333        3.41076972354008        0.33440373609216
N            0.10515580484131        4.15652440879111        0.10489149257513
C            1.14466029690309        3.33645279810936       -0.21222439677358
C            2.45833416116833        3.61414714138065       -0.50276708961580
C            3.30422143583027        2.53808546131383       -0.78036561603197
C            2.82090227865464        1.19890711541556       -0.76234066852725
P            4.07228327893438       -0.05953440695049       -1.17146657889771
O            4.72275293249034        0.16259968225883       -2.46896181078697
C            3.22117718779896       -1.66409450973026       -1.04923017104352
C            2.69029210019918       -2.14169707152958        0.14300976687769
C            2.01737187424357       -3.34953614076153        0.15785382053745
C            1.88228755314198       -4.08500063230601       -1.00998010722514
C            2.42490094534099       -3.61657573463006       -2.19541711891067
C            3.09286938843191       -2.40479046166431       -2.21501039726972
C            5.23053336406532       -0.01650266350772        0.23424774396342
C            4.84547133499287        0.33215148042565        1.52177000756236
C            5.77954908448035        0.32034045406951        2.54178126316565
C            7.09238063729108       -0.03872794627542        2.27966697012486
C            7.47792813250055       -0.38087990384101        0.99354341095842
C            6.54647041496268       -0.36926610689214       -0.02880960861440
C            1.51827934093412        0.89498825922361       -0.49594024454369
C            0.62865835338076        1.96595378652416       -0.19729712533904
C           -0.71110240492354        2.03402076727656        0.14478572853589
C           -1.72196524703842        1.03396823459552        0.33141144073470
H           -6.93314893271760       -0.43228766058452        0.01150936133600
H           -7.90612619350358       -0.97659618139898       -2.21110994997740
H           -6.47812062033434       -0.88346498749242       -4.22080252431557
H           -4.10603255894638       -0.24753163892685       -4.02320389651068
H           -3.14906773563741        0.29233449486344       -1.81440094008203
H           -2.94204276483855       -1.94829042590587       -0.46188610612513
H           -1.79617475347953       -3.93303334075870        0.44368224173977
H           -1.81329338349692       -4.37085626045938        2.87013614269329
H           -2.97754794430440       -2.82319840391304        4.39777122976639
H           -4.11127213944166       -0.81034819245324        3.47685933688773
H           -4.30272615063272        3.07993863779711        1.15008236345444
H           -2.55155750524880        4.85932814628081        0.82638145962931
H            0.15892498828543        5.15915516910693        0.17440122034263
H            2.83085422190636        4.62704851504554       -0.51799441070949
H            4.34425786289233        2.69852147255655       -1.02002760504304
H            2.80536903406322       -1.56905854515471        1.05201812643541
H            1.59561233328126       -3.71880258634116        1.08168934611035
H            1.35613972830649       -5.02848495278145       -0.99328635914256
H            2.32436397844786       -4.19425437807325       -3.10260566121312
H            3.52375199186497       -2.01364281069920       -3.12547849346300
H            3.82350670053822        0.62615686158848        1.71842135990731
H            5.48479023112944        0.59472285388561        3.54444396928511
H            7.81762693366004       -0.04561016979144        3.08016201313485
H            8.50294714290643       -0.65405250003775        0.79000550156066
H            6.82229298017392       -0.61926871488524       -1.04353253180321
H            1.15557757754958       -0.12087575543627       -0.49590256959444
H           -1.47733404653730       -0.01068282168578        0.23687796607866

 projected vibrational frequencies (cm⁻¹)
eigval :       -0.00    -0.00     0.00     0.00     0.00     0.00
eigval :        7.03     8.08    16.52    22.02    25.40    29.20
eigval :       31.02    38.37    41.40    47.42    50.23    54.72
eigval :       76.77    86.12    92.34   136.89   142.43   152.93
eigval :      158.23   162.99   181.54   197.97   200.49   204.05
eigval :      218.36   225.41   227.41   245.05   282.23   282.82
eigval :      287.48   293.82   303.11   333.42   363.23   363.69
eigval :      364.91   365.29   367.40   378.61   399.40   411.77
eigval :      416.62   428.02   438.04   455.77   469.80   475.62
eigval :      486.01   490.15   515.04   518.89   530.91   539.63
eigval :      578.33   585.19   585.54   586.17   586.33   614.36
eigval :      643.48   650.48   656.81   657.99   658.38   658.99
eigval :      660.61   675.33   692.60   696.99   708.62   713.49
eigval :      715.18   718.14   739.50   741.75   744.79   745.32
eigval :      752.87   774.11   795.23   828.55   839.87   878.98
eigval :      879.26   879.74   880.67   881.99   903.50   903.81
eigval :      904.61   907.10   927.30   927.94   928.45   930.09
eigval :      933.60   933.79   934.15   934.68   970.93   972.31
eigval :      974.95   975.04   978.97  1000.10  1036.21  1064.99
eigval :     1076.10  1077.64  1077.95  1078.36  1095.23  1110.61
eigval :     1112.71  1115.32  1115.38  1123.22  1123.70  1125.19
eigval :     1125.81  1132.68  1141.57  1179.46  1180.55  1180.61
eigval :     1181.71  1185.15  1188.67  1190.47  1190.93  1193.07
eigval :     1194.25  1229.42  1242.31  1255.27  1257.50  1263.00
eigval :     1267.05  1268.81  1272.77  1273.88  1317.64  1321.05
eigval :     1321.78  1321.93  1322.56  1339.69  1371.68  1380.02
eigval :     1421.60  1423.82  1423.92  1425.24  1425.55  1452.53
eigval :     1453.36  1453.83  1453.95  1481.91  1525.96  1543.40
eigval :     1557.01  1581.87  1582.27  1583.03  1583.49  1584.78
eigval :     1585.28  1585.96  1586.60  3060.71  3062.15  3067.04
eigval :     3071.04  3073.39  3074.05  3074.22  3075.77  3076.79
eigval :     3077.08  3077.43  3080.13  3082.65  3083.36  3083.94
eigval :     3084.09  3085.63  3090.20  3091.02  3091.34  3091.94
eigval :     3092.01  3092.21  3096.26  3103.51  3107.58  3472.48

   temp. (K)  partition function   enthalpy   heat capacity  entropy
                                   cal/mol     cal/K/mol   cal/K/mol   J/K/mol
 298.15  VIB  0.145E+19            21309.575    128.153    134.723
         ROT  0.545E+08              888.752      2.981     38.381
         INT  0.791E+26            22198.328    131.134    173.104
         TR   0.131E+29             1481.254      4.968     44.873
         TOT                       23679.5816   136.1017   217.9766   912.0142

       T/K    H(0)-H(T)+PV         H(T)/Eh          T*S/Eh         G(T)/Eh
   ------------------------------------------------------------------------
    298.15    0.377358E-01    0.545645E+00    0.103568E+00    0.442077E+00
   ------------------------------------------------------------------------

         :::::::::::::::::::::::::::::::::::::::::::::::::::::
         ::                  THERMODYNAMIC                  ::
         :::::::::::::::::::::::::::::::::::::::::::::::::::::
         :: total free energy        -106.494316525731 Eh   ::
         ::.................................................::
         :: total energy             -106.936393737687 Eh   ::
         :: zero point energy           0.507909120586 Eh   ::
         :: G(RRHO) w/o ZPVE           -0.065831908630 Eh   ::
         :: G(RRHO) contrib.            0.442077211956 Eh   ::
         :::::::::::::::::::::::::::::::::::::::::::::::::::::

           -------------------------------------------------
          | TOTAL ENERGY             -106.936393737687 Eh   |
          | TOTAL ENTHALPY           -106.390748801855 Eh   |
          | TOTAL FREE ENERGY        -106.494316525731 Eh   |
          | GRADIENT NORM               0.000079361930 Eh/α |
           -------------------------------------------------

 * finished run on 2025/09/10 at 01:12:54.113
