   * xtb version 6.7.1 (edcfbbe) compiled by 'albert@albert-system' on 2024-07-22

   ID    Z sym.   atoms
    1    8 O      1, 25
    2   15 P      2, 24
    3    6 C      3-18, 20-23, 26-41
    4    7 N      19
    5    1 H      42-68

          program call               : xtb data2507/gas/poCz-SO/poCz-SO_gas_S0_finalOpt.xtbopt.xyz --gfn 2 --spinpol --tblite --uhf 2 --ohess vtight --parallel 40 --molden --ceasefiles --namespace data2507/gas/poCz-SO/poCz-SO_gas_T1_preOpt
 * total energy  :  -106.9275512 Eh     change       -0.1135487E-07 Eh
 * total energy  :  -106.9323224 Eh     change       -0.4771251E-02 Eh
 * total energy  :  -106.9353541 Eh     change       -0.3031660E-02 Eh
 * total energy  :  -106.9356905 Eh     change       -0.3363812E-03 Eh
 * total energy  :  -106.9359213 Eh     change       -0.2308560E-03 Eh
 * total energy  :  -106.9359548 Eh     change       -0.3352981E-04 Eh
 * total energy  :  -106.9360490 Eh     change       -0.9413545E-04 Eh
 * total energy  :  -106.9360807 Eh     change       -0.3170669E-04 Eh
 * total energy  :  -106.9361165 Eh     change       -0.3585117E-04 Eh
 * total energy  :  -106.9361230 Eh     change       -0.6447990E-05 Eh
 * total energy  :  -106.9363528 Eh     change       -0.8817576E-06 Eh
 * total energy  :  -106.9363537 Eh     change       -0.9230036E-06 Eh
 * total energy  :  -106.9363551 Eh     change       -0.1437395E-05 Eh
 * total energy  :  -106.9363570 Eh     change       -0.1860398E-05 Eh
 * total energy  :  -106.9363590 Eh     change       -0.1999073E-05 Eh
 * total energy  :  -106.9363619 Eh     change       -0.2896142E-05 Eh
 * total energy  :  -106.9363635 Eh     change       -0.1626770E-05 Eh
 * total energy  :  -106.9363651 Eh     change       -0.1551703E-05 Eh
 * total energy  :  -106.9363651 Eh     change       -0.4328768E-09 Eh
   *** GEOMETRY OPTIMIZATION CONVERGED AFTER 94 ITERATIONS ***

 final structure:
================
68
 xtb: 6.7.1 (edcfbbe)
O           -5.34813694665583        0.49856432788688        2.01086564971950
P           -4.36402002192041        0.14245717536250        0.98248404695923
C           -5.08445687400794       -0.03080147386873       -0.68190080888964
C           -6.42784726073844       -0.37366315912220       -0.74570430675523
C           -7.04508253929649       -0.53253362417360       -1.97306597610877
C           -6.31860190630697       -0.34676712721888       -3.13825891719012
C           -4.97916738530283        0.00407566756375       -3.07565215236569
C           -4.35855596592286        0.16345394990229       -1.84966196311968
C           -3.50397366927510       -1.43341914386227        1.30825233070306
C           -2.90009873113967       -2.19335704603170        0.31459628665765
C           -2.21309050587623       -3.34532546995063        0.65356575822534
C           -2.13523663098055       -3.74478646373481        1.97848698061917
C           -2.75245778349012       -2.99714254115391        2.96823123613036
C           -3.43400778784568       -1.84088972650216        2.63287723637543
C           -3.02202571088639        1.36107284090215        0.79293134751799
C           -3.34223620263131        2.67153460605988        1.06250928123780
C           -2.35913866856010        3.72890720775923        0.93054267009140
C           -1.10729432706957        3.36814673637790        0.53189760349439
N            0.02462269792729        4.14855037748251        0.33445575555004
C            1.07546361437299        3.36849584420240       -0.04292433028338
C            2.38166014306069        3.68520351255178       -0.32499761549006
C            3.24474388974801        2.64120865559052       -0.66931132283110
C            2.78572730393297        1.29474885752276       -0.72498855597862
P            4.05697698832473        0.07699731529934       -1.19227792159351
O            4.71210871793401        0.37213270804250       -2.47271523208874
C            3.22430468504229       -1.54180279856430       -1.15499364859510
C            2.70466778109185       -2.09002147015974        0.01160643006016
C            2.04114088726093       -3.30213828612781       -0.03722668268614
C            1.90419378746022       -3.97191945623883       -1.24367729016795
C            2.43568883242231       -3.43336944897641       -2.40408676911179
C            3.09414734955827       -2.21697505973641       -2.35968851774712
C            5.20461329817554        0.06495597708254        0.22276248261007
C            4.80428251114623        0.34273344207934        1.52288150836046
C            5.73006620301768        0.29223576299284        2.54921911940228
C            7.04999055973254       -0.03475745268022        2.28084327639032
C            7.45078950312150       -0.30576684327393        0.98248201086197
C            6.52758034245066       -0.25545320123706       -0.04621527017879
C            1.48980661597102        0.95376672375536       -0.47228689139236
C            0.58385317723150        1.99063281072884       -0.10790212629321
C           -0.75213577076350        2.01218454887029        0.25031699048641
C           -1.74060331458078        0.98171957303319        0.38483380167659
H           -6.97361729308084       -0.50071148994405        0.17835906281014
H           -8.09067780968639       -0.79894273188387       -2.02342918374402
H           -6.79789780100006       -0.46915593299737       -4.09855633808860
H           -4.41775891119179        0.15681124194985       -3.98618052366347
H           -3.31748021724944        0.45180237433835       -1.79692407618968
H           -2.97586036161728       -1.88969663548792       -0.72015741207858
H           -1.73677225242767       -3.93317542882509       -0.11809231901903
H           -1.59812238696058       -4.64556235904501        2.23820676846133
H           -2.69951720436295       -3.31502967770004        3.99929984189204
H           -3.92711216856408       -1.24125761456074        3.38462639300100
H           -4.34019651777537        2.91487555987767        1.39146765790781
H           -2.63415290156784        4.74858475014099        1.14562799405793
H            0.06150599614026        5.14564127646542        0.46585371977644
H            2.73775834607413        4.70319591131697       -0.28228846443879
H            4.28047365055805        2.83398770583222       -0.90375647886657
H            2.82084441135084       -1.56840083885507        0.95065350868792
H            1.62771002247551       -3.72573173349077        0.86679677689613
H            1.38550065461939       -4.91910234743378       -1.27669907797879
H            2.33365401334424       -3.95992916107221       -3.34171733618178
H            3.51606415291936       -1.77204551434758       -3.24942553858280
H            3.77667789295538        0.61225273668629        1.72519656816314
H            5.42316221356744        0.51126051371992        3.56181304997582
H            7.76872557525589       -0.07216502181631        3.08634852543974
H            8.48126777017990       -0.55386688688939        0.77447358365921
H            6.81518182007867       -0.44997159593928       -1.06977945715943
H            1.14398281375741       -0.06638405304852       -0.52747582679781
H           -1.47907200336186       -0.04747148567853        0.20475885287443

 projected vibrational frequencies (cm⁻¹)
eigval :       -0.00    -0.00     0.00     0.00     0.00     0.00
eigval :        6.58     7.21    16.64    22.57    24.30    29.77
eigval :       31.15    38.20    41.45    47.36    50.74    55.19
eigval :       76.07    84.04    92.53   136.76   142.79   153.23
eigval :      157.81   160.94   181.39   197.79   200.95   203.99
eigval :      218.34   225.18   227.03   244.05   282.20   282.61
eigval :      286.94   292.77   301.83   332.82   363.14   363.78
eigval :      364.89   365.42   366.80   379.91   399.02   411.60
eigval :      416.48   427.87   437.45   457.21   467.17   475.33
eigval :      484.85   490.34   514.71   518.06   530.80   538.79
eigval :      578.37   585.15   585.49   586.12   586.32   615.19
eigval :      642.41   651.81   656.94   658.12   658.49   658.99
eigval :      660.65   677.15   692.39   697.13   708.68   712.91
eigval :      715.03   717.81   739.50   741.65   744.83   745.40
eigval :      752.69   772.52   793.91   828.48   838.82   878.84
eigval :      879.24   879.74   880.80   882.06   903.54   903.84
eigval :      904.83   907.22   927.25   927.83   928.61   930.13
eigval :      933.48   933.91   934.26   934.75   971.09   972.37
eigval :      975.01   975.16   978.61   994.19  1038.23  1064.88
eigval :     1076.26  1077.48  1078.09  1078.39  1091.81  1110.61
eigval :     1112.44  1115.31  1115.41  1123.28  1123.69  1125.16
eigval :     1125.84  1132.54  1141.56  1178.95  1180.49  1180.54
eigval :     1181.87  1183.98  1188.62  1189.90  1190.44  1192.85
eigval :     1194.32  1228.89  1241.85  1255.02  1256.96  1262.75
eigval :     1267.03  1268.63  1272.74  1273.72  1317.01  1320.88
eigval :     1321.82  1321.93  1322.51  1340.05  1370.34  1380.04
eigval :     1419.76  1423.86  1423.91  1425.26  1425.54  1452.54
eigval :     1453.36  1453.83  1454.07  1483.36  1529.12  1546.31
eigval :     1556.27  1581.80  1582.33  1582.80  1583.41  1584.77
eigval :     1585.34  1585.92  1586.38  3060.48  3061.92  3067.56
eigval :     3071.12  3073.21  3073.85  3073.93  3075.67  3076.62
eigval :     3077.01  3077.37  3080.01  3082.66  3083.31  3083.69
eigval :     3083.77  3085.63  3089.98  3090.90  3091.52  3091.82
eigval :     3092.05  3092.97  3095.98  3103.26  3107.93  3474.04

   temp. (K)  partition function   enthalpy   heat capacity  entropy
                                   cal/mol     cal/K/mol   cal/K/mol   J/K/mol
 298.15  VIB  0.177E+19            21322.942    128.194    135.008
         ROT  0.542E+08              888.752      2.981     38.370
         INT  0.961E+26            22211.695    131.175    173.378
         TR   0.131E+29             1481.254      4.968     44.873
         TOT                       23692.9485   136.1427   218.2510   913.1620

       T/K    H(0)-H(T)+PV         H(T)/Eh          T*S/Eh         G(T)/Eh
   ------------------------------------------------------------------------
    298.15    0.377571E-01    0.545606E+00    0.103698E+00    0.441908E+00
   ------------------------------------------------------------------------

         :::::::::::::::::::::::::::::::::::::::::::::::::::::
         ::                  THERMODYNAMIC                  ::
         :::::::::::::::::::::::::::::::::::::::::::::::::::::
         :: total free energy        -106.494457390852 Eh   ::
         ::.................................................::
         :: total energy             -106.936365067043 Eh   ::
         :: zero point energy           0.507848634491 Eh   ::
         :: G(RRHO) w/o ZPVE           -0.065940958300 Eh   ::
         :: G(RRHO) contrib.            0.441907676190 Eh   ::
         :::::::::::::::::::::::::::::::::::::::::::::::::::::

           -------------------------------------------------
          | TOTAL ENERGY             -106.936365067043 Eh   |
          | TOTAL ENTHALPY           -106.390759315749 Eh   |
          | TOTAL FREE ENERGY        -106.494457390852 Eh   |
          | GRADIENT NORM               0.000063421243 Eh/α |
           -------------------------------------------------

 * finished run on 2025/09/10 at 01:01:59.979
