   * xtb version 6.7.1 (edcfbbe) compiled by 'albert@albert-system' on 2024-07-22

   ID    Z sym.   atoms
    1    8 O      1, 25
    2   15 P      2, 24
    3    6 C      3-18, 20-23, 26-41
    4    7 N      19
    5    1 H      42-68

          program call               : xtb data2507/gas/poCz-SO/poCz-SO.xyz --gfn 2 --ohess vtight --parallel 40 --molden --ceasefiles --namespace data2507/gas/poCz-SO/poCz-SO_gas_S0_preOpt
          :  Hamiltonian                  GFN2-xTB          :
 * total energy  :  -107.0308111 Eh     change       -0.1027573E-08 Eh
 * total energy  :  -107.0446586 Eh     change       -0.1384751E-01 Eh
 * total energy  :  -107.0484597 Eh     change       -0.3801028E-02 Eh
 * total energy  :  -107.0488846 Eh     change       -0.4248996E-03 Eh
 * total energy  :  -107.0491462 Eh     change       -0.2616455E-03 Eh
 * total energy  :  -107.0492162 Eh     change       -0.7000714E-04 Eh
 * total energy  :  -107.0493089 Eh     change       -0.9265029E-04 Eh
 * total energy  :  -107.0494149 Eh     change       -0.1060672E-03 Eh
 * total energy  :  -107.0495489 Eh     change       -0.1339916E-03 Eh
 * total energy  :  -107.0496787 Eh     change       -0.1297395E-03 Eh
 * total energy  :  -107.0506949 Eh     change       -0.9427605E-06 Eh
 * total energy  :  -107.0506960 Eh     change       -0.1028056E-05 Eh
 * total energy  :  -107.0506970 Eh     change       -0.9992927E-06 Eh
 * total energy  :  -107.0506978 Eh     change       -0.8494767E-06 Eh
 * total energy  :  -107.0506985 Eh     change       -0.7207827E-06 Eh
 * total energy  :  -107.0506993 Eh     change       -0.7187554E-06 Eh
 * total energy  :  -107.0507001 Eh     change       -0.7977263E-06 Eh
 * total energy  :  -107.0507009 Eh     change       -0.8790553E-06 Eh
 * total energy  :  -107.0507009 Eh     change       -0.4188323E-08 Eh
   *** GEOMETRY OPTIMIZATION CONVERGED AFTER 122 ITERATIONS ***

 final structure:
================
68
 xtb: 6.7.1 (edcfbbe)
O           -2.87913696278263        0.85236776782258       -2.00554500657746
P           -3.51125244483266        0.54118123458005       -0.71820137985699
C           -5.15651528869728       -0.22677742676394       -0.88620864881833
C           -5.37251161220670       -0.98007761272094       -2.03162286117229
C           -6.58749423972290       -1.61097545056223       -2.22779506325130
C           -7.58872720472168       -1.48760716479340       -1.27798128240167
C           -7.37687832112268       -0.72951412686622       -0.13743753892916
C           -6.16224189810430       -0.09767283562958        0.06189482626013
C           -3.78495723442082        2.01527316174111        0.32043137128852
C           -3.81118085164902        1.98365387487345        1.70789043273841
C           -4.04620638135644        3.14938799141484        2.41535818121139
C           -4.25455947027185        4.34284093289298        1.74252223730718
C           -4.22091435735021        4.37621663690785        0.35773136684563
C           -3.98545079461031        3.21285218352803       -0.35202256456825
C           -2.54294047155067       -0.61439374462128        0.30030504626165
C           -3.12277905001466       -1.44394615275734        1.26394822007687
C           -2.35239570309094       -2.30296112286175        2.02147969543708
C           -0.98257882884990       -2.31634563952465        1.79749773774778
N           -0.00515033740066       -3.06324790630979        2.40072780342662
C            1.21265927794625       -2.74805768981362        1.85372933967420
C            2.47234424537048       -3.25276203107026        2.14459641042197
C            3.54110346377476       -2.74424659792079        1.43600512271301
C            3.36890750650688       -1.75926984269428        0.45982529471201
P            4.89309054917751       -1.16679265471182       -0.34147039426069
O            5.95881809795345       -2.17466030997238       -0.39156685405746
C            5.36337626206482        0.32923610262596        0.59010847385033
C            4.44658942185264        1.15007960456911        1.23269389823016
C            4.88857156481406        2.27500323618300        1.90606534428893
C            6.23980465902457        2.58055963495517        1.94038063428491
C            7.15584315292134        1.75744140883183        1.30558472437371
C            6.71700098513075        0.63242305032738        0.63136848229092
C            4.38201100939197       -0.56761564907160       -1.98444603016177
C            4.60946456296188       -1.42287021566473       -3.05340779948429
C            4.23093122194983       -1.05163770053566       -4.33090018738641
C            3.62361080766701        0.17595087508830       -4.53977046513830
C            3.40379540088084        1.03459332840507       -3.47435886528998
C            3.78326380844242        0.66733110482242       -2.19570640682456
C            2.11286250527854       -1.26058045163180        0.15740292447604
C            1.02495002592169       -1.75751273401507        0.85914625412448
C           -0.38538119555286       -1.48129763222401        0.82097031076066
C           -1.17724835543056       -0.62856886037306        0.06900199370918
H           -4.57873537962044       -1.05008192841692       -2.76167297003243
H           -6.75628329718455       -2.19698983609088       -3.11935705646908
H           -8.53929097478140       -1.97819871054878       -1.42840042882363
H           -8.16243737839866       -0.62860804534881        0.59765636099480
H           -5.99863341624275        0.50406691198070        0.94521346111765
H           -3.63784556246201        1.05298864676858        2.23012188015297
H           -4.06557873339892        3.12824860337466        3.49560206813709
H           -4.43827671962268        5.24955641368617        2.30022617050084
H           -4.37746023880958        5.30817169903116       -0.16549515397809
H           -3.94277504911709        3.21292149632299       -1.43189496614056
H           -4.19383062448642       -1.42068975529803        1.40513984499390
H           -2.80250407140213       -2.94826983087791        2.76156264163787
H           -0.15739663134351       -3.74882039837635        3.12070667077582
H            2.60964667013180       -4.01504231415098        2.89702761862008
H            4.54288338004200       -3.10722832959622        1.61432367060051
H            3.39417460380642        0.90257793801880        1.21624407121105
H            4.17706267779638        2.91485006135384        2.40815971441306
H            6.57902505348975        3.45981605930558        2.46845865036269
H            8.20949427029294        1.99317372952100        1.33837363842933
H            7.41106524276930       -0.03253466180842        0.13744655029012
H            5.09313747837290       -2.37044473832497       -2.86357566896804
H            4.40837145622297       -1.71684898539213       -5.16329328840697
H            3.32477431017175        0.46823235577584       -5.53574963759624
H            2.93570901395790        1.99383518405537       -3.64145163382602
H            3.62665014215099        1.34226761663639       -1.36586605646266
H            1.97845874709542       -0.51436463369724       -0.61149377433071
H           -0.76190449471812        0.01041587563325       -0.69623415559627

          :  Hamiltonian                  GFN2-xTB          :
         :: gradient norm              0.000051454432 Eh/a0 ::
         :: HOMO-LUMO gap              3.318735526551 eV    ::
         :: SCC energy              -108.960528637249 Eh    ::
         :: -> dispersion             -0.095104512785 Eh    ::
         :: repulsion energy           1.909827696979 Eh    ::

    * Orbital Energies and Occupations

         #    Occupation            Energy/Eh            Energy/eV
      -------------------------------------------------------------
         1        2.0000           -0.6920500             -18.8316
       ...           ...                  ...                  ...
        87        2.0000           -0.4160312             -11.3208
        88        2.0000           -0.4155389             -11.3074
        89        2.0000           -0.4151674             -11.2973
        90        2.0000           -0.4139836             -11.2651
        91        2.0000           -0.4115095             -11.1977
        92        2.0000           -0.4094611             -11.1420
        93        2.0000           -0.4088919             -11.1265
        94        2.0000           -0.4007092             -10.9039
        95        2.0000           -0.3999599             -10.8835
        96        2.0000           -0.3966678             -10.7939
        97        2.0000           -0.3958969             -10.7729
        98        2.0000           -0.3914899             -10.6530
        99        2.0000           -0.3809553             -10.3663 (HOMO)
       100                         -0.2589940              -7.0476 (LUMO)
       101                         -0.2502544              -6.8098
       102                         -0.2485683              -6.7639
       103                         -0.2452910              -6.6747
       104                         -0.2412660              -6.5652
       105                         -0.2348546              -6.3907
       106                         -0.2338907              -6.3645
       107                         -0.2333203              -6.3490
       108                         -0.2297893              -6.2529
       109                         -0.2275433              -6.1918
       110                         -0.2179112              -5.9297
       ...                                ...                  ...
       201                          1.1957565              32.5382
      -------------------------------------------------------------
                  HL-Gap            0.1219613 Eh            3.3187 eV

     #   Z          covCN         q      C6AA      α(0)
     1   8 O        0.808    -0.354    20.805     6.114
     2  15 P        4.091     0.053   157.884    22.571
     3   6 C        2.921     0.014    27.690     8.629
     4   6 C        3.031    -0.019    28.454     8.750
     5   6 C        2.919    -0.027    28.668     8.780
     6   6 C        2.920    -0.025    28.638     8.776
     7   6 C        2.920    -0.028    28.709     8.787
     8   6 C        2.970    -0.027    28.665     8.782
     9   6 C        2.921     0.015    27.686     8.629
    10   6 C        2.969    -0.027    28.666     8.782
    11   6 C        2.920    -0.028    28.711     8.787
    12   6 C        2.920    -0.026    28.640     8.776
    13   6 C        2.919    -0.027    28.670     8.780
    14   6 C        3.032    -0.019    28.454     8.750
    15   6 C        2.921     0.003    27.950     8.670
    16   6 C        2.976    -0.030    28.753     8.796
    17   6 C        2.909    -0.054    29.333     8.881
    18   6 C        3.071     0.058    26.624     8.460
    19   7 N        2.755    -0.115    23.501     7.200
    20   6 C        3.072     0.058    26.622     8.460
    21   6 C        2.908    -0.052    29.299     8.876
    22   6 C        3.040    -0.023    28.538     8.762
    23   6 C        2.921     0.005    27.915     8.664
    24  15 P        4.088     0.054   157.863    22.570
    25   8 O        0.808    -0.354    20.813     6.115
    26   6 C        2.921     0.014    27.696     8.630
    27   6 C        2.970    -0.026    28.659     8.781
    28   6 C        2.920    -0.028    28.707     8.786
    29   6 C        2.920    -0.026    28.642     8.776
    30   6 C        2.919    -0.027    28.675     8.781
    31   6 C        3.030    -0.019    28.462     8.751
    32   6 C        2.921     0.015    27.687     8.629
    33   6 C        3.032    -0.019    28.461     8.751
    34   6 C        2.919    -0.027    28.664     8.780
    35   6 C        2.920    -0.024    28.608     8.771
    36   6 C        2.920    -0.027    28.674     8.781
    37   6 C        2.971    -0.026    28.649     8.780
    38   6 C        2.967    -0.029    28.720     8.790
    39   6 C        3.072    -0.013    28.267     8.717
    40   6 C        3.070    -0.013    28.270     8.718
    41   6 C        3.033    -0.022    28.524     8.760
    42   1 H        0.926     0.060     2.200     2.319
    43   1 H        0.926     0.039     2.462     2.454
    44   1 H        0.926     0.037     2.491     2.468
    45   1 H        0.926     0.035     2.520     2.483
    46   1 H        0.925     0.037     2.494     2.470
    47   1 H        0.926     0.037     2.488     2.467
    48   1 H        0.926     0.034     2.527     2.486
    49   1 H        0.926     0.037     2.494     2.470
    50   1 H        0.926     0.039     2.465     2.455
    51   1 H        0.926     0.060     2.200     2.319
    52   1 H        0.926     0.040     2.449     2.447
    53   1 H        0.926     0.031     2.565     2.505
    54   1 H        0.860     0.163     1.318     1.798
    55   1 H        0.926     0.035     2.515     2.480
    56   1 H        0.926     0.063     2.160     2.298
    57   1 H        0.925     0.037     2.486     2.466
    58   1 H        0.926     0.034     2.529     2.487
    59   1 H        0.926     0.036     2.501     2.473
    60   1 H        0.926     0.038     2.470     2.458
    61   1 H        0.926     0.060     2.196     2.318
    62   1 H        0.926     0.060     2.196     2.317
    63   1 H        0.926     0.039     2.467     2.456
    64   1 H        0.926     0.038     2.473     2.459
    65   1 H        0.926     0.038     2.481     2.463
    66   1 H        0.926     0.038     2.477     2.461
    67   1 H        0.926     0.046     2.371     2.408
    68   1 H        0.926     0.063     2.166     2.302

molecular dipole:
                 x           y           z       tot (Debye)
 q only:       -1.538       0.251       1.519
   full:       -1.957       0.232       1.972       7.085

 projected vibrational frequencies (cm⁻¹)
eigval :       -0.00    -0.00    -0.00    -0.00     0.00     0.00
eigval :        6.78     6.91    19.02    20.98    25.14    28.04
eigval :       31.76    35.87    41.60    43.75    45.55    55.96
eigval :       76.46    87.39    98.81   137.12   157.13   157.75
eigval :      159.42   174.70   182.62   203.55   209.54   225.33
eigval :      226.93   228.98   241.55   263.15   282.23   283.49
eigval :      300.41   314.67   342.40   362.26   363.30   363.70
eigval :      364.58   379.39   381.54   389.23   413.36   423.22
eigval :      425.47   439.55   444.33   466.78   474.31   493.44
eigval :      502.18   507.46   516.29   544.73   558.38   583.30
eigval :      585.80   585.91   586.62   587.14   605.56   655.81
eigval :      658.37   658.59   658.93   659.89   671.42   681.27
eigval :      697.95   703.28   713.79   715.42   715.87   741.43
eigval :      741.67   744.65   745.36   810.94   814.40   825.24
eigval :      870.79   875.61   877.69   879.26   879.77   881.12
eigval :      884.11   890.77   902.48   903.05   903.47   905.85
eigval :      907.62   909.84   927.35   927.65   929.57   929.85
eigval :      933.92   933.96   934.70   934.82   972.51   972.75
eigval :      975.41   975.59  1015.74  1078.17  1078.35  1078.55
eigval :     1078.79  1092.59  1106.07  1112.99  1113.24  1115.07
eigval :     1115.79  1124.22  1124.36  1127.28  1127.91  1140.57
eigval :     1149.46  1161.95  1180.64  1180.70  1180.80  1180.83
eigval :     1191.14  1191.41  1193.64  1194.02  1203.12  1224.75
eigval :     1242.31  1260.96  1261.74  1269.21  1269.93  1273.33
eigval :     1273.89  1302.90  1308.67  1321.35  1321.69  1321.80
eigval :     1321.99  1353.92  1378.19  1408.27  1421.47  1424.27
eigval :     1424.48  1425.24  1425.36  1453.90  1453.94  1454.44
eigval :     1454.89  1464.48  1472.33  1564.44  1576.68  1583.73
eigval :     1583.85  1584.01  1584.19  1586.93  1587.21  1587.94
eigval :     1587.97  1594.68  1608.90  3065.52  3065.89  3066.62
eigval :     3068.47  3073.10  3073.63  3074.06  3074.17  3074.58
eigval :     3077.01  3077.04  3077.36  3078.58  3078.92  3083.55
eigval :     3083.64  3083.78  3084.04  3084.14  3084.96  3086.67
eigval :     3088.52  3090.94  3091.22  3091.75  3092.63  3484.36

   temp. (K)  partition function   enthalpy   heat capacity  entropy
                                   cal/mol     cal/K/mol   cal/K/mol   J/K/mol
 298.15  VIB  0.875E+18            20745.492    124.588    131.302
         ROT  0.627E+08              888.752      2.981     38.660
         INT  0.549E+26            21634.244    127.569    169.962
         TR   0.131E+29             1481.254      4.968     44.873
         TOT                       23115.4981   132.5374   214.8347   898.8684

       T/K    H(0)-H(T)+PV         H(T)/Eh          T*S/Eh         G(T)/Eh
   ------------------------------------------------------------------------
    298.15    0.368369E-01    0.551041E+00    0.102075E+00    0.448966E+00
   ------------------------------------------------------------------------

         :::::::::::::::::::::::::::::::::::::::::::::::::::::
         ::                  THERMODYNAMIC                  ::
         :::::::::::::::::::::::::::::::::::::::::::::::::::::
         :: total free energy        -106.601735086125 Eh   ::
         ::.................................................::
         :: total energy             -107.050700940269 Eh   ::
         :: zero point energy           0.514203864036 Eh   ::
         :: G(RRHO) w/o ZPVE           -0.065238009893 Eh   ::
         :: G(RRHO) contrib.            0.448965854144 Eh   ::
         :::::::::::::::::::::::::::::::::::::::::::::::::::::

           -------------------------------------------------
          | TOTAL ENERGY             -107.050700940269 Eh   |
          | TOTAL ENTHALPY           -106.499660185221 Eh   |
          | TOTAL FREE ENERGY        -106.601735086125 Eh   |
          | GRADIENT NORM               0.000051453905 Eh/α |
          | HOMO-LUMO GAP               3.318735686616 eV   |
           -------------------------------------------------

 * finished run on 2025/09/10 at 00:52:08.280
