   * xtb version 6.7.1 (edcfbbe) compiled by 'albert@albert-system' on 2024-07-22

   ID    Z sym.   atoms
    1    6 C      1-4, 6-34
    2    7 N      5
    3   35 Br     35
    4    1 H      36-61

          program call               : xtb data2507/gas/DPACpBr/DPACpBr_gas_S0_finalOpt.xtbopt.xyz --gfn 2 --spinpol --tblite --uhf 2 --ohess vtight --parallel 40 --molden --ceasefiles --namespace data2507/gas/DPACpBr/DPACpBr_gas_T1_preOpt
 * total energy  :   -90.8373659 Eh     change        0.5506351E-08 Eh
 * total energy  :   -90.8431284 Eh     change       -0.5762462E-02 Eh
 * total energy  :   -90.8449074 Eh     change       -0.1779020E-02 Eh
 * total energy  :   -90.8452479 Eh     change       -0.3404571E-03 Eh
 * total energy  :   -90.8455531 Eh     change       -0.3052500E-03 Eh
 * total energy  :   -90.8456790 Eh     change       -0.1259417E-03 Eh
 * total energy  :   -90.8457763 Eh     change       -0.9726861E-04 Eh
 * total energy  :   -90.8458465 Eh     change       -0.7017206E-04 Eh
 * total energy  :   -90.8459044 Eh     change       -0.5790974E-04 Eh
 * total energy  :   -90.8459651 Eh     change       -0.6070659E-04 Eh
 * total energy  :   -90.8467947 Eh     change       -0.9716449E-06 Eh
 * total energy  :   -90.8467956 Eh     change       -0.8686917E-06 Eh
 * total energy  :   -90.8467964 Eh     change       -0.8878177E-06 Eh
 * total energy  :   -90.8467973 Eh     change       -0.8813416E-06 Eh
 * total energy  :   -90.8467982 Eh     change       -0.8842722E-06 Eh
 * total energy  :   -90.8467991 Eh     change       -0.8736638E-06 Eh
 * total energy  :   -90.8467999 Eh     change       -0.8347367E-06 Eh
 * total energy  :   -90.8468007 Eh     change       -0.8299154E-06 Eh
 * total energy  :   -90.8468008 Eh     change       -0.1659878E-07 Eh
   *** GEOMETRY OPTIMIZATION CONVERGED AFTER 122 ITERATIONS ***

 final structure:
================
61
 xtb: 6.7.1 (edcfbbe)
C            3.92733961669863       -2.55378395549431        0.39414008509026
C            3.17276274342635       -1.29449876958334        0.67422983641843
C            1.82105392505664       -1.28811267157088        0.80047687789461
C            1.09470652340378       -0.07491501149900        1.05686745820598
N           -0.24925792581788       -0.09211164544169        1.25356747950639
C           -1.03557557070224        1.04971697246316        1.43298738422223
C           -0.73962935455409        2.02236815746928        2.39571285027341
C           -1.58015981267558        3.10018271254275        2.55653800692164
C           -2.72060474370205        3.22772280328619        1.76708604279012
C           -3.03442370208075        2.24595054977967        0.83147437072455
C           -2.21951362708223        1.14810268547653        0.66737285001649
C           -2.43148424801631        0.02205034381487       -0.32851039337039
C           -1.30807809232121        0.09928521660366       -1.36479832651468
C           -0.77746485790617       -1.05943167383292       -1.91865856145761
C            0.29290065123505       -0.99521537126191       -2.79220486825453
C            0.84447576199848        0.22827310819672       -3.12994921457686
C            0.30134278036786        1.38899681562164       -2.60760243983313
C           -0.76922874607590        1.32564225776860       -1.73415704954532
C           -3.80390715901159        0.06744601808458       -0.96074582402051
C           -3.98194057969498        0.17205281708396       -2.33257481817258
C           -5.25601734933866        0.21127498482149       -2.87472356114368
C           -6.36733433343368        0.14661696542148       -2.05405470948360
C           -6.19909321653240        0.04225814303970       -0.68290019531151
C           -4.92831934526087        0.00310494286881       -0.14116980373780
C           -2.21556746648491       -1.23854874194036        0.48957472032142
C           -3.02618858235980       -2.35168195195010        0.48863759914814
C           -2.70727369795145       -3.46103600697680        1.26676988216071
C           -1.56560124136054       -3.44880912445964        2.06467657678006
C           -0.72926011926648       -2.35589812875443        2.06582854719049
C           -1.03083780933624       -1.25100815865465        1.26023544217415
C            1.81810671140369        1.16504860197133        0.99112726852120
C            3.16984138543009        1.19405640486286        0.86829419283939
C            3.92149505960265        2.48332311907785        0.78786959764812
C            3.87528196990714       -0.05065662904631        0.78749665148146
Br           5.75338863959592       -0.03532095858996        0.61930132834097
H            4.65323995071147       -2.74870199672225        1.18414363733547
H            4.47704339686567       -2.46986419530024       -0.54387863977522
H            3.24800403229855       -3.39940344439703        0.32662948012982
H            1.26935236657334       -2.20410608322849        0.66492400680429
H            0.12945196487678        1.89827170569553        3.02442256356196
H           -1.35424385058111        3.84912273158931        3.30054060493146
H           -3.36722867138157        4.08297540307532        1.88381000120105
H           -3.91946568002129        2.35409634492830        0.22229836650303
H           -1.19992993169329       -2.01949270879236       -1.65888876419605
H            0.70080282961578       -1.90615002568691       -3.20529222672203
H            1.68942077950213        0.27719262650006       -3.80056426941553
H            0.71600007273563        2.34974066035478       -2.87565291736247
H           -1.18513900069574        2.23734309158240       -1.32982744663213
H           -3.12364277787144        0.22361551559784       -2.98591072258771
H           -5.37738016843500        0.29292747990937       -3.94503354997931
H           -7.35989909458703        0.17733426222326       -2.47862526186124
H           -7.06085043917438       -0.00872511476730       -0.03338295215449
H           -4.80093228062777       -0.07810566795791        0.92919184087820
H           -3.91176455793335       -2.37106762991876       -0.12901644768634
H           -3.35069456117677       -4.32653660821118        1.25521405543663
H           -1.33545385253011       -4.29990522412674        2.68770523809329
H            0.14091338126867       -2.32405987647457        2.70440056985449
H            1.26441899772546        2.08977006402562        0.99894761485427
H            4.47175019803507        2.54760531748741       -0.15137061366583
H            4.64664471534851        2.55466142502861        1.59910672778149
H            3.24018947145064        3.32760648615090        0.85225168592155

 projected vibrational frequencies (cm⁻¹)
eigval :       -0.00    -0.00     0.00     0.00     0.00     0.00
eigval :        8.71    24.01    25.14    34.13    45.93    50.98
eigval :       54.96    65.22    82.75    82.96    85.76   126.65
eigval :      141.07   152.68   167.97   170.83   172.93   187.48
eigval :      194.42   219.30   230.69   239.54   243.36   248.13
eigval :      262.81   265.85   284.52   312.47   317.81   341.94
eigval :      372.22   375.07   382.67   396.46   423.24   434.46
eigval :      451.71   457.51   457.97   464.01   491.14   493.76
eigval :      499.30   505.98   524.37   548.17   557.27   587.18
eigval :      587.99   596.34   599.16   600.30   608.98   628.19
eigval :      665.14   671.74   677.25   684.01   688.45   749.74
eigval :      751.93   758.16   758.63   789.45   793.34   799.48
eigval :      863.89   866.97   878.98   881.08   882.66   893.43
eigval :      895.16   900.43   906.44   907.16   912.31   912.95
eigval :      919.04   919.18   931.01   932.09   932.74   936.90
eigval :      939.75   941.60   960.25   985.78  1002.33  1013.54
eigval :     1024.08  1029.93  1042.38  1074.92  1077.53  1087.50
eigval :     1089.83  1097.48  1105.37  1115.73  1126.78  1128.46
eigval :     1154.20  1162.26  1168.54  1175.85  1182.18  1182.26
eigval :     1184.66  1198.86  1204.92  1209.11  1235.32  1242.32
eigval :     1244.19  1253.49  1264.04  1264.36  1288.56  1288.91
eigval :     1306.91  1319.92  1320.08  1335.58  1337.95  1349.00
eigval :     1374.80  1382.18  1402.29  1405.17  1408.76  1419.89
eigval :     1433.93  1434.50  1452.83  1467.74  1473.19  1475.89
eigval :     1476.07  1476.64  1477.17  1480.27  1489.65  1516.35
eigval :     1542.14  1543.52  1587.31  1588.29  1599.34  1602.67
eigval :     1616.07  2990.34  2990.54  3005.91  3007.76  3046.48
eigval :     3046.84  3071.37  3073.44  3074.84  3075.22  3079.41
eigval :     3079.70  3081.80  3082.36  3085.47  3086.06  3086.59
eigval :     3089.50  3090.65  3091.21  3094.29  3095.06  3102.57
eigval :     3103.04  3104.77  3106.06

   temp. (K)  partition function   enthalpy   heat capacity  entropy
                                   cal/mol     cal/K/mol   cal/K/mol   J/K/mol
 298.15  VIB  0.155E+14            17539.052    110.457    108.677
         ROT  0.295E+08              888.752      2.981     37.161
         INT  0.456E+21            18427.804    113.438    145.838
         TR   0.114E+29             1481.254      4.968     44.592
         TOT                       19909.0578   118.4062   190.4300   796.7589

       T/K    H(0)-H(T)+PV         H(T)/Eh          T*S/Eh         G(T)/Eh
   ------------------------------------------------------------------------
    298.15    0.317271E-01    0.504740E+00    0.904794E-01    0.414261E+00
   ------------------------------------------------------------------------

         :::::::::::::::::::::::::::::::::::::::::::::::::::::
         ::                  THERMODYNAMIC                  ::
         :::::::::::::::::::::::::::::::::::::::::::::::::::::
         :: total free energy         -90.432539766357 Eh   ::
         ::.................................................::
         :: total energy              -90.846800759011 Eh   ::
         :: zero point energy           0.473013304602 Eh   ::
         :: G(RRHO) w/o ZPVE           -0.058752311949 Eh   ::
         :: G(RRHO) contrib.            0.414260992653 Eh   ::
         :::::::::::::::::::::::::::::::::::::::::::::::::::::

           -------------------------------------------------
          | TOTAL ENERGY              -90.846800759011 Eh   |
          | TOTAL ENTHALPY            -90.342060351310 Eh   |
          | TOTAL FREE ENERGY         -90.432539766357 Eh   |
          | GRADIENT NORM               0.000068277452 Eh/α |
           -------------------------------------------------

 * finished run on 2025/08/22 at 08:50:28.415
