   * xtb version 6.7.1 (edcfbbe) compiled by 'albert@albert-system' on 2024-07-22

   ID    Z sym.   atoms
    1    6 C      1-4, 6-34
    2    7 N      5
    3   35 Br     35
    4    1 H      36-61

          program call               : xtb data2507/gas/DPACpBr/DPACpBr_gas_S0_crest.xyz --gfn 2 --ohess vtight --parallel 40 --molden --ceasefiles --namespace data2507/gas/DPACpBr/DPACpBr_gas_S0_finalOpt
          :  Hamiltonian                  GFN2-xTB          :
 * total energy  :   -90.9584948 Eh     change       -0.4789626E-09 Eh
 * total energy  :   -90.9584959 Eh     change       -0.1071900E-05 Eh
 * total energy  :   -90.9584976 Eh     change       -0.1732701E-05 Eh
 * total energy  :   -90.9585001 Eh     change       -0.2464168E-05 Eh
 * total energy  :   -90.9585012 Eh     change       -0.1151194E-05 Eh
 * total energy  :   -90.9585019 Eh     change       -0.6799261E-06 Eh
 * total energy  :   -90.9585025 Eh     change       -0.6395523E-06 Eh
 * total energy  :   -90.9585031 Eh     change       -0.5365112E-06 Eh
 * total energy  :   -90.9585035 Eh     change       -0.4004835E-06 Eh
 * total energy  :   -90.9585038 Eh     change       -0.3297140E-06 Eh
 * total energy  :   -90.9585040 Eh     change       -0.2275956E-06 Eh
 * total energy  :   -90.9585043 Eh     change       -0.2101437E-06 Eh
 * total energy  :   -90.9585046 Eh     change       -0.3017914E-06 Eh
 * total energy  :   -90.9585049 Eh     change       -0.3622305E-06 Eh
 * total energy  :   -90.9585052 Eh     change       -0.3044984E-06 Eh
 * total energy  :   -90.9585054 Eh     change       -0.1434874E-06 Eh
 * total energy  :   -90.9585055 Eh     change       -0.8662317E-07 Eh
   *** GEOMETRY OPTIMIZATION CONVERGED AFTER 17 ITERATIONS ***

 final structure:
================
61
 xtb: 6.7.1 (edcfbbe)
C            3.63538130115765       -2.51688724763656       -0.03156247626845
C            2.94845494765894       -1.24444937560869        0.35141769814583
C            1.66444758556265       -1.26621634779987        0.86592996622239
C            0.99404745801160       -0.09169540624409        1.20917664092882
N           -0.31777777065096       -0.12700141194437        1.65939913421317
C           -1.11031847071533        1.04209571376993        1.70384470211571
C           -0.88185139819216        2.03113500342278        2.64975729937028
C           -1.70113209262215        3.14549110741000        2.68644437485106
C           -2.74996924889465        3.26469864229676        1.79091856195956
C           -2.99101869189038        2.26811717210849        0.85905456925932
C           -2.18017331488754        1.14677280356366        0.81209311659274
C           -2.31433548493913        0.01114632171581       -0.19144597934330
C           -1.11168074240068        0.08779591519460       -1.13265651594568
C           -0.53272975481500       -1.06903453370504       -1.63999974474565
C            0.60171461271605       -1.00164981693605       -2.42857873926968
C            1.17049560459302        0.22308815818537       -2.72959866048748
C            0.57856976181386        1.38209805183225       -2.25984556099272
C           -0.55558281002059        1.31561571545191       -1.47096886813677
C           -3.63278966710164        0.06488065384668       -0.93069913812582
C           -3.70504080385362        0.16670533056841       -2.31216553434839
C           -4.93442120641027        0.21274399559680       -2.94912705731166
C           -6.10506525449777        0.15760148679035       -2.21474124450696
C           -6.04230609273491        0.05540705440114       -0.83442705032480
C           -4.81646557635686        0.00936017822801       -0.19834848435517
C           -2.17629989033815       -1.26297008147577        0.62816473476448
C           -2.98453444978557       -2.38035665846412        0.50455183941173
C           -2.74314168915266       -3.50485931699015        1.27713209901969
C           -1.69716782308909       -3.51865295374802        2.18370744766915
C           -0.88035960898450       -2.40971846269534        2.31637164543566
C           -1.10825094316586       -1.29104959151810        1.52788407980857
C            1.65456035943711        1.12377738234605        1.02704713467124
C            2.93809845199482        1.18198596170877        0.51433968605015
C            3.61326842100151        2.50007632622102        0.30381767774379
C            3.56812090677445       -0.01182707573677        0.18354374948520
Br           5.32882257922919        0.04547548540130       -0.55724186965568
H            4.56337244937651       -2.63416055777780        0.52824188705754
H            3.89093041012778       -2.50551060830473       -1.09114476224648
H            2.99677850917744       -3.37399646426153        0.16511003502566
H            1.16786788217845       -2.21816627320275        0.96488773639726
H           -0.06790485268104        1.91970509059438        3.35048810292166
H           -1.52156570771662        3.91908490414898        3.41788809160911
H           -3.38479392220314        4.13758069343679        1.81495187757705
H           -3.80516336651437        2.37415205293616        0.15760870142953
H           -0.96511125568316       -2.03205647408489       -1.40968172936699
H            1.04611328702259       -1.91239851938510       -2.80233882422607
H            2.06602097275623        0.27431032403491       -3.33082023633718
H            1.00463550379803        2.34485820088378       -2.50115983635956
H           -1.00625469066616        2.22786775035676       -1.10745700041044
H           -2.79895584011354        0.21052856933506       -2.89811390188349
H           -4.97410837092105        0.29223727186633       -4.02566546014345
H           -7.06236933586262        0.19382581838256       -2.71328407349658
H           -6.95107795781886        0.01146120160520       -0.25199546598235
H           -4.77054396586362       -0.07066792531728        0.87892816629571
H           -3.79703443244774       -2.38162054949779       -0.20672360521216
H           -3.37589121153380       -4.37279858165522        1.16845774021959
H           -1.51794112509344       -4.39235008436867        2.79218484555124
H           -0.06944553700427       -2.40253907492448        3.02932738025111
H            1.14995701842699        2.04957944047694        1.25274601754567
H            3.86589830754344        2.63234325005021       -0.74825959197431
H            4.54173876389864        2.54979864683688        0.87282088891657
H            2.96781745266629        3.31758154107701        0.61401305184171

          :  Hamiltonian                  GFN2-xTB          :
         :: gradient norm              0.000038423112 Eh/a0 ::
         :: HOMO-LUMO gap              3.144521429211 eV    ::
         :: SCC energy               -92.596728961606 Eh    ::
         :: -> dispersion             -0.097493500032 Eh    ::
         :: repulsion energy           1.638223504054 Eh    ::

    * Orbital Energies and Occupations

         #    Occupation            Energy/Eh            Energy/eV
      -------------------------------------------------------------
         1        2.0000           -0.8214382             -22.3525
       ...           ...                  ...                  ...
        73        2.0000           -0.4230283             -11.5112
        74        2.0000           -0.4163602             -11.3297
        75        2.0000           -0.4116722             -11.2022
        76        2.0000           -0.4101775             -11.1615
        77        2.0000           -0.4081766             -11.1070
        78        2.0000           -0.4074857             -11.0882
        79        2.0000           -0.4046592             -11.0113
        80        2.0000           -0.3972197             -10.8089
        81        2.0000           -0.3967021             -10.7948
        82        2.0000           -0.3940789             -10.7234
        83        2.0000           -0.3936239             -10.7111
        84        2.0000           -0.3910775             -10.6418
        85        2.0000           -0.3545903              -9.6489 (HOMO)
        86                         -0.2390313              -6.5044 (LUMO)
        87                         -0.2356061              -6.4112
        88                         -0.2324982              -6.3266
        89                         -0.2291491              -6.2355
        90                         -0.2275259              -6.1913
        91                         -0.2255280              -6.1369
        92                         -0.2243510              -6.1049
        93                         -0.2237801              -6.0894
        94                         -0.2200859              -5.9888
        95                         -0.2128111              -5.7909
        96                         -0.1873198              -5.0972
       ...                                ...                  ...
       171                          0.6705709              18.2472
      -------------------------------------------------------------
                  HL-Gap            0.1155590 Eh            3.1445 eV

     #   Z          covCN         q      C6AA      α(0)
     1   6 C        3.764    -0.101    22.471     6.757
     2   6 C        3.033     0.010    27.762     8.642
     3   6 C        2.934    -0.073    29.816     8.955
     4   6 C        2.912     0.066    26.521     8.445
     5   7 N        2.753    -0.090    22.999     7.123
     6   6 C        2.955     0.060    26.659     8.469
     7   6 C        2.920    -0.044    29.097     8.846
     8   6 C        2.920    -0.033    28.824     8.804
     9   6 C        2.920    -0.036    28.893     8.815
    10   6 C        2.920    -0.036    28.888     8.814
    11   6 C        2.994    -0.002    28.063     8.690
    12   6 C        3.926     0.011    20.322     6.407
    13   6 C        2.982     0.013    27.725     8.637
    14   6 C        2.924    -0.034    28.857     8.809
    15   6 C        2.920    -0.029    28.724     8.789
    16   6 C        2.920    -0.030    28.755     8.794
    17   6 C        2.920    -0.029    28.725     8.789
    18   6 C        2.924    -0.034    28.857     8.809
    19   6 C        2.975     0.013    27.731     8.638
    20   6 C        2.923    -0.035    28.878     8.812
    21   6 C        2.920    -0.030    28.743     8.792
    22   6 C        2.920    -0.032    28.789     8.799
    23   6 C        2.919    -0.031    28.769     8.796
    24   6 C        2.925    -0.032    28.809     8.802
    25   6 C        2.994    -0.002    28.063     8.690
    26   6 C        2.920    -0.036    28.888     8.814
    27   6 C        2.920    -0.036    28.892     8.814
    28   6 C        2.920    -0.033    28.824     8.804
    29   6 C        2.920    -0.044    29.097     8.846
    30   6 C        2.955     0.060    26.658     8.469
    31   6 C        2.934    -0.073    29.813     8.955
    32   6 C        3.033     0.010    27.762     8.642
    33   6 C        3.764    -0.101    22.470     6.757
    34   6 C        2.927     0.046    26.958     8.515
    35  35 Br       1.073    -0.197   190.537    22.256
    36   1 H        0.925     0.056     2.242     2.341
    37   1 H        0.925     0.056     2.251     2.346
    38   1 H        0.925     0.038     2.469     2.457
    39   1 H        0.926     0.035     2.522     2.483
    40   1 H        0.926     0.040     2.443     2.444
    41   1 H        0.926     0.036     2.508     2.477
    42   1 H        0.926     0.034     2.525     2.485
    43   1 H        0.926     0.036     2.507     2.476
    44   1 H        0.926     0.028     2.619     2.531
    45   1 H        0.926     0.031     2.571     2.507
    46   1 H        0.926     0.033     2.539     2.492
    47   1 H        0.926     0.031     2.571     2.507
    48   1 H        0.926     0.028     2.618     2.530
    49   1 H        0.926     0.031     2.574     2.509
    50   1 H        0.926     0.031     2.578     2.511
    51   1 H        0.926     0.030     2.580     2.512
    52   1 H        0.926     0.030     2.586     2.515
    53   1 H        0.925     0.030     2.593     2.518
    54   1 H        0.926     0.036     2.507     2.476
    55   1 H        0.926     0.034     2.524     2.485
    56   1 H        0.926     0.036     2.508     2.477
    57   1 H        0.926     0.041     2.442     2.444
    58   1 H        0.926     0.034     2.525     2.485
    59   1 H        0.925     0.056     2.251     2.347
    60   1 H        0.925     0.056     2.241     2.341
    61   1 H        0.925     0.038     2.469     2.457

molecular dipole:
                 x           y           z       tot (Debye)
 q only:       -1.179      -0.024       0.290
   full:       -1.749      -0.036       0.453       4.593

 projected vibrational frequencies (cm⁻¹)
eigval :       -0.00    -0.00     0.00     0.00     0.00     0.00
eigval :       19.44    19.54    35.51    47.23    49.59    58.76
eigval :       62.99    76.47    82.68    84.01    88.63   143.27
eigval :      145.90   148.48   163.18   165.48   177.69   185.27
eigval :      222.39   224.42   228.79   243.94   244.50   260.60
eigval :      261.65   286.13   296.59   315.39   319.32   344.91
eigval :      373.46   376.07   390.12   394.69   448.92   457.22
eigval :      472.80   485.34   491.66   494.68   510.09   510.60
eigval :      518.59   519.95   552.40   576.96   588.16   588.55
eigval :      605.09   606.78   606.95   614.24   633.72   636.63
eigval :      673.03   674.20   689.45   699.51   720.67   755.12
eigval :      757.02   782.84   783.35   805.61   823.69   859.41
eigval :      879.25   882.33   889.44   890.51   893.93   902.94
eigval :      906.35   907.31   919.45   921.68   923.05   930.79
eigval :      931.31   931.67   932.24   933.22   933.52   938.57
eigval :      985.99   997.40   997.96  1001.88  1004.20  1027.07
eigval :     1032.64  1052.53  1054.47  1088.02  1090.91  1091.01
eigval :     1092.50  1112.55  1125.41  1128.37  1130.23  1173.06
eigval :     1178.01  1182.25  1182.75  1183.31  1195.72  1201.11
eigval :     1204.76  1209.22  1217.63  1244.22  1246.30  1254.71
eigval :     1263.09  1268.52  1287.79  1288.69  1292.25  1318.15
eigval :     1319.23  1323.67  1329.13  1333.74  1374.16  1406.68
eigval :     1407.07  1432.90  1433.29  1435.03  1441.31  1444.97
eigval :     1447.57  1452.03  1473.41  1474.82  1477.77  1478.01
eigval :     1478.85  1487.35  1487.39  1573.36  1576.98  1583.33
eigval :     1586.29  1586.86  1589.22  1589.86  1599.92  1601.71
eigval :     1604.22  2998.86  2999.20  3013.72  3014.55  3045.83
eigval :     3046.44  3069.82  3074.44  3075.45  3075.85  3080.51
eigval :     3080.64  3081.42  3083.44  3085.21  3085.46  3087.72
eigval :     3089.47  3091.97  3092.59  3094.81  3095.32  3098.59
eigval :     3099.20  3105.68  3106.93

   temp. (K)  partition function   enthalpy   heat capacity  entropy
                                   cal/mol     cal/K/mol   cal/K/mol   J/K/mol
 298.15  VIB  0.177E+13            17062.271    108.842    105.214
         ROT  0.273E+08              888.752      2.981     37.009
         INT  0.483E+20            17951.023    111.823    142.223
         TR   0.114E+29             1481.254      4.968     44.592
         TOT                       19432.2774   116.7910   186.8151   781.6342

       T/K    H(0)-H(T)+PV         H(T)/Eh          T*S/Eh         G(T)/Eh
   ------------------------------------------------------------------------
    298.15    0.309673E-01    0.509464E+00    0.887619E-01    0.420702E+00
   ------------------------------------------------------------------------

         :::::::::::::::::::::::::::::::::::::::::::::::::::::
         ::                  THERMODYNAMIC                  ::
         :::::::::::::::::::::::::::::::::::::::::::::::::::::
         :: total free energy         -90.537803112215 Eh   ::
         ::.................................................::
         :: total energy              -90.958505457653 Eh   ::
         :: zero point energy           0.478496905644 Eh   ::
         :: G(RRHO) w/o ZPVE           -0.057794560206 Eh   ::
         :: G(RRHO) contrib.            0.420702345438 Eh   ::
         :::::::::::::::::::::::::::::::::::::::::::::::::::::

           -------------------------------------------------
          | TOTAL ENERGY              -90.958505457653 Eh   |
          | TOTAL ENTHALPY            -90.449041246881 Eh   |
          | TOTAL FREE ENERGY         -90.537803112215 Eh   |
          | GRADIENT NORM               0.000038242755 Eh/α |
          | HOMO-LUMO GAP               3.144519460656 eV   |
           -------------------------------------------------

 * finished run on 2025/08/22 at 08:50:17.401
