   * xtb version 6.7.1 (edcfbbe) compiled by 'albert@albert-system' on 2024-07-22

   ID    Z sym.   atoms
    1    6 C      1-4, 6-34
    2    7 N      5
    3   35 Br     35
    4    1 H      36-61

          program call               : xtb data2507/gas/DPACpBr/DPACpBr_gas_T1_crest.xyz --gfn 2 --spinpol --tblite --uhf 2 --ohess vtight --parallel 40 --molden --ceasefiles --namespace data2507/gas/DPACpBr/DPACpBr_gas_T1_finalOpt
 * total energy  :   -90.8467803 Eh     change        0.4364075E-07 Eh
 * total energy  :   -90.8468080 Eh     change       -0.2763864E-04 Eh
 * total energy  :   -90.8468233 Eh     change       -0.1531008E-04 Eh
 * total energy  :   -90.8468273 Eh     change       -0.3982725E-05 Eh
 * total energy  :   -90.8468318 Eh     change       -0.4586332E-05 Eh
 * total energy  :   -90.8468350 Eh     change       -0.3160005E-05 Eh
 * total energy  :   -90.8468384 Eh     change       -0.3427070E-05 Eh
 * total energy  :   -90.8468420 Eh     change       -0.3585242E-05 Eh
 * total energy  :   -90.8468452 Eh     change       -0.3199334E-05 Eh
 * total energy  :   -90.8468484 Eh     change       -0.3221061E-05 Eh
 * total energy  :   -90.8468567 Eh     change       -0.1412252E-05 Eh
 * total energy  :   -90.8468579 Eh     change       -0.1182816E-05 Eh
 * total energy  :   -90.8468587 Eh     change       -0.7909358E-06 Eh
 * total energy  :   -90.8468594 Eh     change       -0.7344686E-06 Eh
 * total energy  :   -90.8468600 Eh     change       -0.5797996E-06 Eh
 * total energy  :   -90.8468604 Eh     change       -0.4255603E-06 Eh
 * total energy  :   -90.8468608 Eh     change       -0.3647144E-06 Eh
 * total energy  :   -90.8468612 Eh     change       -0.4230957E-06 Eh
 * total energy  :   -90.8468612 Eh     change       -0.9047355E-08 Eh
   *** GEOMETRY OPTIMIZATION CONVERGED AFTER 22 ITERATIONS ***

 final structure:
================
61
 xtb: 6.7.1 (edcfbbe)
C            4.44201894730970        1.83606571297732       -1.89064593166941
C            3.67882017756320        0.96356897199057       -0.94722749605869
C            2.29850148561676        0.97066415646456       -0.93269052958817
C            1.58972502747759        0.16114132071066       -0.04354893207758
N            0.17049669890029        0.17430927295892       -0.04198696824673
C           -0.47785165954262        0.72745748245043        1.03248341223710
C            0.25522788026819        1.36504760812654        2.06112049533710
C           -0.37773183937660        1.88719523643017        3.15379930475791
C           -1.77531827741892        1.80735429143223        3.26528491963069
C           -2.50911355390782        1.21962523104687        2.24610041344042
C           -1.90306205477106        0.69578290795734        1.12151787406185
C           -2.72181157591177        0.06157069147194        0.03011186073802
C           -3.92725713905808        0.95087309175274       -0.21183365610479
C           -3.78133680016050        2.07017533203264       -1.02359221595248
C           -4.83957579900135        2.93472059989148       -1.23080210603470
C           -6.06112959591085        2.69827682152941       -0.62132438591570
C           -6.20903802611347        1.59880441654648        0.20525478533904
C           -5.14905862588199        0.73317666113819        0.41431107481587
C           -3.07505446252499       -1.38238624183842        0.39730733882077
C           -4.13841506803105       -2.03680114152809       -0.22583707198260
C           -4.42380750296816       -3.35478964835730        0.06646837264447
C           -3.64413646581094       -4.05990808908447        0.97117299564334
C           -2.57527619314843       -3.42349238080081        1.58173374828793
C           -2.29166503537048       -2.10181264145362        1.29889073559864
C           -1.92725959112911       -0.18114479780614       -1.22060632012786
C           -2.53207109494993       -0.44155713622143       -2.43983221655744
C           -1.81268063605709       -0.89608274952000       -3.52461609414216
C           -0.42447544547394       -1.17921399527878       -3.38434088916032
C            0.21364891084033       -0.89473401723984       -2.21552248471497
C           -0.48588416115014       -0.31402736646817       -1.13177312387908
C            2.27612734209985       -0.67605164697948        0.84084799263397
C            3.65642860517383       -0.71416560584772        0.84780227962203
C            4.39439303805265       -1.61301948422585        1.78687678640874
C            4.34147013919439        0.11307038227307       -0.05027701673933
Br           6.24858986018173        0.08108708513276       -0.05628805194486
H            5.09389548334844        2.51485971902299       -1.34043213562170
H            3.76467059525872        2.42209178160148       -2.50596441638621
H            5.07380432768468        1.23164331168489       -2.54181994931630
H            1.75383958500696        1.61385744273213       -1.60763846658879
H            1.32775856174901        1.44040909150568        1.97266041580546
H            0.19639886010373        2.36781620562228        3.93089845805106
H           -2.27528952307941        2.21691141586282        4.12797693337756
H           -3.58421341366569        1.17791796485497        2.32982817715355
H           -2.82927783992109        2.26099709402002       -1.49852877994732
H           -4.71033686888140        3.79687690931410       -1.86856916343084
H           -6.88999312729652        3.37064744888173       -0.78565168486342
H           -7.15409026864845        1.41228154760838        0.69450651811249
H           -5.27747888509605       -0.11830975103312        1.06707796477379
H           -4.75042152111138       -1.51065560137919       -0.94223645194976
H           -5.25791752087249       -3.83908230457925       -0.42024576084492
H           -3.86550142670686       -5.09251071876530        1.19438532141538
H           -1.95884967305339       -3.96005491142077        2.28858593610602
H           -1.46198671469925       -1.62279501921991        1.79763356469422
H           -3.59621424395848       -0.28541971387095       -2.53951610709306
H           -2.30016952985904       -1.07248114197859       -4.46971201559822
H            0.11266889725622       -1.62043655801357       -4.20860983931709
H            1.26711197141175       -1.10385931551514       -2.10612496770021
H            1.71449781435033       -1.30302958613296        1.51692030840302
H            5.05005208523865       -1.03096420552634        2.43473705784301
H            5.01958583911481       -2.31285597841403        1.23227613280006
H            3.70112067051524       -2.17666655562452        2.40535087879742

 projected vibrational frequencies (cm⁻¹)
eigval :       -0.00    -0.00    -0.00     0.00     0.00     0.00
eigval :        8.42    16.36    25.80    36.06    38.55    52.04
eigval :       57.63    75.29    78.17    88.62    94.34   109.98
eigval :      139.60   143.94   151.34   152.89   182.10   202.16
eigval :      205.37   214.25   223.88   232.43   245.78   249.92
eigval :      263.00   271.02   295.42   305.49   333.48   345.09
eigval :      371.60   378.90   386.09   393.53   395.55   419.50
eigval :      428.10   442.24   450.44   467.15   479.15   486.87
eigval :      501.87   514.52   551.18   566.11   573.39   576.76
eigval :      586.13   588.10   594.77   603.17   618.08   636.15
eigval :      638.36   655.12   658.99   675.01   680.23   710.25
eigval :      734.95   742.16   756.21   783.81   810.15   823.53
eigval :      836.96   858.01   863.15   865.48   868.75   878.43
eigval :      880.15   884.41   887.74   893.45   899.35   902.42
eigval :      903.49   909.20   920.06   928.20   929.69   943.06
eigval :      973.67   978.95   983.02   987.54   992.54  1023.18
eigval :     1024.93  1031.16  1034.01  1044.02  1066.69  1083.88
eigval :     1086.39  1099.57  1116.69  1124.89  1130.52  1131.48
eigval :     1156.33  1165.86  1171.05  1179.71  1180.84  1181.61
eigval :     1188.18  1202.08  1206.94  1215.70  1222.37  1237.16
eigval :     1251.39  1275.24  1281.86  1286.45  1291.20  1299.08
eigval :     1311.29  1321.25  1327.44  1330.50  1332.29  1343.20
eigval :     1361.26  1377.67  1399.19  1402.83  1406.78  1407.35
eigval :     1424.61  1428.96  1434.55  1439.86  1452.04  1459.08
eigval :     1464.95  1473.27  1473.56  1473.90  1476.19  1485.22
eigval :     1489.03  1502.62  1536.53  1553.93  1577.03  1584.09
eigval :     1590.23  2996.76  2998.24  3011.96  3014.04  3048.75
eigval :     3049.08  3070.46  3071.44  3072.39  3074.66  3079.38
eigval :     3080.02  3084.80  3085.02  3085.23  3087.84  3088.04
eigval :     3089.55  3092.43  3093.35  3096.01  3097.25  3098.84
eigval :     3102.73  3107.56  3109.05

   temp. (K)  partition function   enthalpy   heat capacity  entropy
                                   cal/mol     cal/K/mol   cal/K/mol   J/K/mol
 298.15  VIB  0.249E+14            17637.441    111.046    109.496
         ROT  0.349E+08              888.752      2.981     37.494
         INT  0.868E+21            18526.193    114.027    146.990
         TR   0.114E+29             1481.254      4.968     44.592
         TOT                       20007.4474   118.9950   191.5814   801.5765

       T/K    H(0)-H(T)+PV         H(T)/Eh          T*S/Eh         G(T)/Eh
   ------------------------------------------------------------------------
    298.15    0.318839E-01    0.503465E+00    0.910265E-01    0.412439E+00
   ------------------------------------------------------------------------

         :::::::::::::::::::::::::::::::::::::::::::::::::::::
         ::                  THERMODYNAMIC                  ::
         :::::::::::::::::::::::::::::::::::::::::::::::::::::
         :: total free energy         -90.434422464961 Eh   ::
         ::.................................................::
         :: total energy              -90.846861241417 Eh   ::
         :: zero point energy           0.471581370935 Eh   ::
         :: G(RRHO) w/o ZPVE           -0.059142594479 Eh   ::
         :: G(RRHO) contrib.            0.412438776456 Eh   ::
         :::::::::::::::::::::::::::::::::::::::::::::::::::::

           -------------------------------------------------
          | TOTAL ENERGY              -90.846861241417 Eh   |
          | TOTAL ENTHALPY            -90.343395973572 Eh   |
          | TOTAL FREE ENERGY         -90.434422464961 Eh   |
          | GRADIENT NORM               0.000058820805 Eh/α |
           -------------------------------------------------

 * finished run on 2025/08/22 at 08:54:06.609
