   * xtb version 6.7.1 (edcfbbe) compiled by 'albert@albert-system' on 2024-07-22

   ID    Z sym.   atoms
    1    6 C      1-4, 6-34
    2    7 N      5
    3   35 Br     35
    4    1 H      36-61

          program call               : xtb data2507/gas/DPACpBr/DPACpBr.xyz --gfn 2 --ohess vtight --parallel 40 --molden --ceasefiles --namespace data2507/gas/DPACpBr/DPACpBr_gas_S0_preOpt
          :  Hamiltonian                  GFN2-xTB          :
 * total energy  :   -90.9304188 Eh     change       -0.4338716E-09 Eh
 * total energy  :   -90.9476096 Eh     change       -0.1719087E-01 Eh
 * total energy  :   -90.9539095 Eh     change       -0.6299909E-02 Eh
 * total energy  :   -90.9548524 Eh     change       -0.9428868E-03 Eh
 * total energy  :   -90.9550383 Eh     change       -0.1859071E-03 Eh
 * total energy  :   -90.9550749 Eh     change       -0.3651516E-04 Eh
 * total energy  :   -90.9550919 Eh     change       -0.1707984E-04 Eh
 * total energy  :   -90.9550889 Eh     change        0.3080307E-05 Eh
 * total energy  :   -90.9551002 Eh     change       -0.1131690E-04 Eh
 * total energy  :   -90.9551089 Eh     change       -0.8728387E-05 Eh
 * total energy  :   -90.9551160 Eh     change       -0.3202894E-05 Eh
 * total energy  :   -90.9551173 Eh     change       -0.1320996E-05 Eh
 * total energy  :   -90.9551170 Eh     change        0.3241483E-06 Eh
 * total energy  :   -90.9551178 Eh     change       -0.8016189E-06 Eh
 * total energy  :   -90.9551179 Eh     change       -0.1576386E-06 Eh
 * total energy  :   -90.9551181 Eh     change       -0.1815011E-06 Eh
 * total energy  :   -90.9551181 Eh     change       -0.1377937E-07 Eh
 * total energy  :   -90.9551183 Eh     change       -0.1112535E-06 Eh
 * total energy  :   -90.9551183 Eh     change       -0.7297277E-07 Eh
   *** GEOMETRY OPTIMIZATION CONVERGED AFTER 20 ITERATIONS ***

 final structure:
================
61
 xtb: 6.7.1 (edcfbbe)
C            5.36588691143608        2.51569662488313        0.07826449834500
C            4.61792257772713        1.22253351402736        0.03790946593121
C            3.23039204344410        1.20175233981361        0.03725418281401
C            2.53834842263505       -0.00000828620845        0.00001245538941
N            1.11674673430668        0.00002322487210        0.00000664467151
C            0.44541695237482       -0.04959461028234        1.21037415987335
C            1.16935085476155       -0.09803564477156        2.40499739557403
C            0.52435967188220       -0.12011935338320        3.62384939071896
C           -0.85796150966942       -0.08663091554035        3.67543387558872
C           -1.57779560201311       -0.04369495749609        2.49622043642676
C           -0.95149395085264       -0.03218191317709        1.25842410262441
C           -1.80439882386081        0.00003305319821       -0.00000550131295
C           -2.63103111551471        1.28023092892196       -0.03054388172736
C           -3.86821081904035        1.35230217793870       -0.66036930936453
C           -4.55916850698902        2.54943652452157       -0.72739625815194
C           -4.02263626498469        3.69898293528565       -0.17550731239762
C           -2.78348101081972        3.64262846675220        0.43769066997800
C           -2.09387316117640        2.44586968193645        0.50424697922834
C           -2.63089464882226       -1.28025520786256        0.03052737555373
C           -3.86803671163035       -1.35247196891472        0.66041107007794
C           -4.55887340709847       -2.54967614725908        0.72743011119860
C           -4.02225565630472       -3.69915050596021        0.17547390183703
C           -2.78313642149677       -3.64265155441009       -0.43778287755152
C           -2.09364919254512       -2.44582226586317       -0.50433110513954
C           -0.95148407847500        0.03233419228899       -1.25842620790142
C           -1.57777655738695        0.04393335809160       -2.49622626379775
C           -0.85793250923763        0.08691121960324       -3.67543218328733
C            0.52438916759520        0.12035368068509       -3.62383604960006
C            1.16937084705281        0.09819165571265       -2.40498042792291
C            0.44542729735985        0.04971133925395       -1.21036434327105
C            3.23033253507781       -1.20180255289878       -0.03723019884799
C            4.61786223858909       -1.22265221333863       -0.03788319125035
C            5.36576230633233       -2.51585254153903       -0.07823444498777
C            5.28291078147481       -0.00007593049497        0.00001660531663
Br           7.19415432546236       -0.00012180137101        0.00001634286273
H            6.00638334259589        2.55801336209999        0.95923627145792
H            4.67876875226322        3.35689648152293        0.10382072487147
H            6.00732317698623        2.61239856404494       -0.79770510920682
H            2.67849657681074        2.12931758357179        0.06467294848392
H            2.24826077858563       -0.11441411925888        2.37235908295994
H            1.10541638101847       -0.15788501142688        4.53322417789859
H           -1.37212024476488       -0.09350973152831        4.62402682311149
H           -2.65505077824988       -0.01167075900293        2.53704545966030
H           -4.30915339616069        0.46859841529096       -1.09789048931955
H           -5.52252533271256        2.58200411040339       -1.21567624427931
H           -4.56396999487287        4.63210940815182       -0.22691463614650
H           -2.34916080839800        4.53485259936372        0.86501185193693
H           -1.12548470668965        2.41742124437625        0.98283620348183
H           -4.30904676242515       -0.46882824230906        1.09798423078698
H           -5.52220432325461       -2.58235479118579        1.21575362044970
H           -4.56349660583636       -4.63233128576182        0.22687150375380
H           -2.34875076499588       -4.53481680328124       -0.86516088615190
H           -1.12528861126225       -2.41726409914336       -0.98296964383222
H           -2.65503252476682        0.01194421782716       -2.53706054737233
H           -1.37208413415560        0.09385368297653       -4.62402842318593
H            1.10545375507539        0.15814563457587       -4.53320469159088
H            2.24828078125866        0.11453768997859       -2.37233414122692
H            2.67839105932462       -2.12934022194469       -0.06465236613325
H            4.67860231248828       -3.35701835878303       -0.10378573374807
H            6.00719745946451       -2.61258384513675        0.79773272931908
H            6.00625289307977       -2.55820327243645       -0.95920882347651

          :  Hamiltonian                  GFN2-xTB          :
         :: gradient norm              0.000054005604 Eh/a0 ::
         :: HOMO-LUMO gap              2.662907406207 eV    ::
         :: SCC energy               -92.594357677200 Eh    ::
         :: -> dispersion             -0.089043937832 Eh    ::
         :: repulsion energy           1.639239342492 Eh    ::

    * Orbital Energies and Occupations

         #    Occupation            Energy/Eh            Energy/eV
      -------------------------------------------------------------
         1        2.0000           -0.8370293             -22.7767
       ...           ...                  ...                  ...
        73        2.0000           -0.4160794             -11.3221
        74        2.0000           -0.4152736             -11.3002
        75        2.0000           -0.4131924             -11.2435
        76        2.0000           -0.4104770             -11.1696
        77        2.0000           -0.4073846             -11.0855
        78        2.0000           -0.4049859             -11.0202
        79        2.0000           -0.4018936             -10.9361
        80        2.0000           -0.4014623             -10.9243
        81        2.0000           -0.3980343             -10.8311
        82        2.0000           -0.3925818             -10.6827
        83        2.0000           -0.3898539             -10.6085
        84        2.0000           -0.3882429             -10.5646
        85        2.0000           -0.3487693              -9.4905 (HOMO)
        86                         -0.2509092              -6.8276 (LUMO)
        87                         -0.2440055              -6.6397
        88                         -0.2325761              -6.3287
        89                         -0.2253426              -6.1319
        90                         -0.2222707              -6.0483
        91                         -0.2212301              -6.0200
        92                         -0.2197685              -5.9802
        93                         -0.2151971              -5.8558
        94                         -0.2122185              -5.7748
        95                         -0.2048268              -5.5736
        96                         -0.1909529              -5.1961
       ...                                ...                  ...
       171                          0.6793174              18.4852
      -------------------------------------------------------------
                  HL-Gap            0.0978601 Eh            2.6629 eV

     #   Z          covCN         q      C6AA      α(0)
     1   6 C        3.764    -0.106    22.561     6.770
     2   6 C        3.036     0.015    27.652     8.625
     3   6 C        2.931    -0.053    29.328     8.881
     4   6 C        2.923     0.067    26.497     8.441
     5   7 N        2.755    -0.072    22.639     7.067
     6   6 C        2.927     0.059    26.681     8.471
     7   6 C        2.924    -0.059    29.465     8.902
     8   6 C        2.920    -0.032    28.809     8.802
     9   6 C        2.918    -0.043    29.080     8.843
    10   6 C        2.927    -0.036    28.900     8.816
    11   6 C        2.987    -0.009    28.245     8.718
    12   6 C        3.921     0.010    20.353     6.412
    13   6 C        2.982     0.013    27.714     8.635
    14   6 C        2.924    -0.034    28.855     8.809
    15   6 C        2.920    -0.031    28.778     8.797
    16   6 C        2.920    -0.033    28.812     8.802
    17   6 C        2.919    -0.030    28.760     8.794
    18   6 C        2.926    -0.035    28.868     8.811
    19   6 C        2.982     0.013    27.714     8.635
    20   6 C        2.924    -0.034    28.855     8.809
    21   6 C        2.920    -0.031    28.778     8.797
    22   6 C        2.920    -0.033    28.812     8.802
    23   6 C        2.919    -0.030    28.760     8.794
    24   6 C        2.926    -0.035    28.868     8.811
    25   6 C        2.987    -0.009    28.245     8.718
    26   6 C        2.927    -0.036    28.900     8.816
    27   6 C        2.918    -0.043    29.080     8.843
    28   6 C        2.920    -0.032    28.809     8.802
    29   6 C        2.924    -0.059    29.465     8.902
    30   6 C        2.927     0.059    26.681     8.471
    31   6 C        2.931    -0.053    29.328     8.881
    32   6 C        3.036     0.015    27.652     8.625
    33   6 C        3.764    -0.106    22.561     6.770
    34   6 C        2.927     0.058    26.696     8.473
    35  35 Br       1.079    -0.177   189.945    22.222
    36   1 H        0.925     0.062     2.174     2.306
    37   1 H        0.925     0.047     2.362     2.404
    38   1 H        0.925     0.062     2.174     2.306
    39   1 H        0.926     0.048     2.347     2.396
    40   1 H        0.926     0.022     2.699     2.569
    41   1 H        0.926     0.029     2.605     2.524
    42   1 H        0.926     0.028     2.614     2.529
    43   1 H        0.926     0.033     2.545     2.495
    44   1 H        0.926     0.032     2.556     2.500
    45   1 H        0.926     0.029     2.606     2.524
    46   1 H        0.926     0.028     2.608     2.525
    47   1 H        0.926     0.028     2.618     2.530
    48   1 H        0.926     0.026     2.647     2.544
    49   1 H        0.926     0.032     2.556     2.500
    50   1 H        0.926     0.029     2.606     2.524
    51   1 H        0.926     0.028     2.608     2.525
    52   1 H        0.926     0.028     2.618     2.530
    53   1 H        0.926     0.026     2.647     2.544
    54   1 H        0.926     0.033     2.545     2.495
    55   1 H        0.926     0.028     2.614     2.529
    56   1 H        0.926     0.029     2.605     2.524
    57   1 H        0.926     0.022     2.699     2.569
    58   1 H        0.926     0.048     2.347     2.396
    59   1 H        0.925     0.047     2.362     2.404
    60   1 H        0.925     0.062     2.174     2.306
    61   1 H        0.925     0.062     2.174     2.306

molecular dipole:
                 x           y           z       tot (Debye)
 q only:       -0.064      -0.000       0.000
   full:       -0.506       0.000       0.000       1.287

 projected vibrational frequencies (cm⁻¹)
eigval :       -0.00    -0.00     0.00     0.00     0.00     0.00
eigval :       -9.29    -5.26    25.36    29.04    47.26    51.98
eigval :       58.89    75.98    77.20    93.59    98.21   119.28
eigval :      140.51   146.35   147.34   154.60   201.04   205.54
eigval :      210.68   213.00   229.07   229.17   247.65   255.49
eigval :      279.05   284.36   299.66   332.66   333.48   335.50
eigval :      375.27   390.44   395.19   405.03   429.27   438.50
eigval :      443.43   464.34   485.67   487.09   497.47   498.43
eigval :      526.14   532.66   543.23   575.72   587.39   589.18
eigval :      596.45   602.50   609.42   616.85   652.34   666.94
eigval :      669.26   682.52   688.48   690.53   693.84   752.26
eigval :      760.60   770.47   777.13   798.82   843.93   860.67
eigval :      861.08   879.57   881.20   883.40   897.09   900.37
eigval :      901.02   904.03   906.45   914.35   915.21   919.84
eigval :      920.23   930.77   931.25   935.27   946.80   961.25
eigval :      983.23   985.45   997.69  1000.40  1001.73  1026.45
eigval :     1032.08  1047.71  1053.34  1090.04  1090.06  1110.06
eigval :     1111.18  1124.27  1126.36  1128.09  1136.48  1180.29
eigval :     1182.22  1182.63  1184.03  1185.06  1187.44  1205.16
eigval :     1205.70  1214.18  1220.98  1224.17  1237.24  1266.00
eigval :     1266.32  1276.02  1289.17  1293.97  1307.04  1317.22
eigval :     1322.98  1327.29  1334.87  1345.82  1359.70  1406.46
eigval :     1406.67  1427.95  1429.19  1429.78  1436.61  1436.96
eigval :     1440.03  1472.16  1472.49  1474.71  1476.61  1480.32
eigval :     1482.00  1483.55  1494.49  1572.80  1573.63  1579.79
eigval :     1586.22  1587.44  1590.83  1591.28  1601.18  1601.36
eigval :     1604.33  3001.42  3001.73  3016.44  3017.09  3052.75
eigval :     3053.11  3070.14  3070.56  3071.69  3072.37  3079.72
eigval :     3079.77  3080.05  3080.83  3083.87  3084.98  3090.52
eigval :     3090.58  3091.48  3092.08  3092.77  3094.11  3097.34
eigval :     3098.02  3110.15  3110.57

   temp. (K)  partition function   enthalpy   heat capacity  entropy
                                   cal/mol     cal/K/mol   cal/K/mol   J/K/mol
 298.15  VIB  0.380E+14            17204.324    108.318    107.886
         ROT  0.178E+08              888.752      2.981     36.154
         INT  0.675E+21            18093.076    111.299    144.040
         TR   0.114E+29             1481.254      4.968     44.592
         TOT                       19574.3300   116.2674   188.6313   789.2335

       T/K    H(0)-H(T)+PV         H(T)/Eh          T*S/Eh         G(T)/Eh
   ------------------------------------------------------------------------
    298.15    0.311937E-01    0.509395E+00    0.896248E-01    0.419770E+00
   ------------------------------------------------------------------------

         :::::::::::::::::::::::::::::::::::::::::::::::::::::
         ::                  THERMODYNAMIC                  ::
         :::::::::::::::::::::::::::::::::::::::::::::::::::::
         :: total free energy         -90.535348108736 Eh   ::
         ::.................................................::
         :: total energy              -90.955118334709 Eh   ::
         :: zero point energy           0.478201378787 Eh   ::
         :: G(RRHO) w/o ZPVE           -0.058431152814 Eh   ::
         :: G(RRHO) contrib.            0.419770225973 Eh   ::
         :::::::::::::::::::::::::::::::::::::::::::::::::::::

           -------------------------------------------------
          | TOTAL ENERGY              -90.955118334709 Eh   |
          | TOTAL ENTHALPY            -90.445723275474 Eh   |
          | TOTAL FREE ENERGY         -90.535348108736 Eh   |
          | GRADIENT NORM               0.000053789286 Eh/α |
          | HOMO-LUMO GAP               2.662908640224 eV   |
           -------------------------------------------------

 * finished run on 2025/08/22 at 08:47:13.332
