   * xtb version 6.7.1 (edcfbbe) compiled by 'albert@albert-system' on 2024-07-22

   ID    Z sym.   atoms
    1    6 C      1-5, 7-11, 13-16, 18-34, 36-52, 54, 56-60
    2    7 N      6, 12, 17, 35, 53, 55, 61
    3    1 H      62-108

          program call               : xtb data2507/gas/DTPTCzDP-CN/DTPTCzDP-CN_gas_T1_crest.xyz --gfn 2 --spinpol --tblite --uhf 2 --ohess vtight --parallel 40 --molden --ceasefiles --namespace data2507/gas/DTPTCzDP-CN/DTPTCzDP-CN_gas_T1_finalOpt
 * total energy  :  -160.0727554 Eh     change        0.3189342E-08 Eh
 * total energy  :  -160.0727917 Eh     change       -0.3631660E-04 Eh
 * total energy  :  -160.0728070 Eh     change       -0.1531874E-04 Eh
 * total energy  :  -160.0728088 Eh     change       -0.1806308E-05 Eh
 * total energy  :  -160.0728115 Eh     change       -0.2677126E-05 Eh
 * total energy  :  -160.0728141 Eh     change       -0.2636669E-05 Eh
 * total energy  :  -160.0728158 Eh     change       -0.1708017E-05 Eh
 * total energy  :  -160.0728176 Eh     change       -0.1720915E-05 Eh
 * total energy  :  -160.0728188 Eh     change       -0.1262753E-05 Eh
 * total energy  :  -160.0728201 Eh     change       -0.1252950E-05 Eh
 * total energy  :  -160.0728390 Eh     change       -0.2674192E-06 Eh
 * total energy  :  -160.0728395 Eh     change       -0.4513164E-06 Eh
 * total energy  :  -160.0728395 Eh     change        0.2320135E-07 Eh
 * total energy  :  -160.0728397 Eh     change       -0.2852759E-06 Eh
 * total energy  :  -160.0728399 Eh     change       -0.1579432E-06 Eh
 * total energy  :  -160.0728398 Eh     change        0.1048599E-06 Eh
 * total energy  :  -160.0728398 Eh     change       -0.3043763E-07 Eh
 * total energy  :  -160.0728401 Eh     change       -0.2623122E-06 Eh
 * total energy  :  -160.0728402 Eh     change       -0.8605431E-07 Eh
   *** GEOMETRY OPTIMIZATION CONVERGED AFTER 40 ITERATIONS ***

 final structure:
================
108
 xtb: 6.7.1 (edcfbbe)
C            9.40991397345898        2.41091777414254        0.69907154238964
C            8.54083993514492        1.44854310471196        1.51507230082671
C            7.61331786222865        2.22917265134905        2.44320199950258
C            9.43405491820108        0.50482273314933        2.32657014781943
C            7.73969495116444        0.61129082328248        0.54440189082014
N            6.44428107617136        0.64343203039607        0.59096504316677
C            5.73650524520160       -0.11154605887489       -0.29590602161524
C            4.32834809391166       -0.10393430189907       -0.28008176766923
C            3.57742286860741       -0.88921091148093       -1.19837993357866
C            2.20947342861858       -0.87608654611894       -1.17872231252986
C            1.51019885044538       -0.09047841800652       -0.25588100019653
N            0.10718710248340       -0.08097364833149       -0.23385042775819
C           -0.68500305148365        1.03899497460664       -0.27262995480925
C           -0.33033561362638        2.37033091492215       -0.46090756868723
C           -1.32981315827461        3.31446868577700       -0.45321600288325
C           -2.67791011346006        2.96138792597564       -0.26262851670493
N           -3.65266705943297        3.96117939642621       -0.22279289568874
C           -3.36435606023687        5.18665877498275        0.38948191104496
C           -2.55510668659103        5.23560147435222        1.52536497391927
C           -2.27093203940533        6.44861908589764        2.12101129129176
C           -2.78952363354025        7.62470845543043        1.60300711375960
C           -3.59468243987673        7.58031251356445        0.47619355927185
C           -3.88004197287929        6.37353020088784       -0.13197023868200
C           -4.91980877149730        3.72837254521839       -0.76284761477457
C           -5.06345664587937        2.96738332287211       -1.92438472119932
C           -6.31769465462543        2.73462838123884       -2.45273709948056
C           -7.44557219155743        3.25883334611157       -1.84177092807229
C           -7.30868147199866        4.01837859066394       -0.69091832086804
C           -6.05966682592965        4.25108986694751       -0.14988073554434
C           -3.03939248543155        1.62328296292246       -0.11859146912697
C           -2.04509661398261        0.66284643219787       -0.13583732347376
C           -2.05638615619076       -0.76932979303016       -0.03082461841410
C           -3.06686639615291       -1.70184852751554        0.11407450001681
C           -2.72779824725505       -3.05107287332828        0.19559521132516
N           -3.72953053869261       -4.01762708276209        0.32607094400877
C           -4.95007884357107       -3.85224864130558       -0.33465782311807
C           -6.14127625544042       -4.26258247561972        0.26564039336822
C           -7.34421676457665       -4.09875079429031       -0.39252807765005
C           -7.38354863087172       -3.51941800394194       -1.65055070637859
C           -6.20422828203669       -3.10723390228766       -2.24991971208217
C           -4.99525405895162       -3.27329803375170       -1.60385656623117
C           -3.51558012656924       -5.14370791463517        1.12856946981037
C           -4.01209632330939       -6.38954255387408        0.74430368233749
C           -3.79950817946227       -7.49754889200811        1.54085076234689
C           -3.08688126823933       -7.38512089139790        2.72382540135958
C           -2.58864413413948       -6.15054247917646        3.10783450945134
C           -2.80090250362322       -5.03501829380324        2.32186629171953
C           -1.37903449108377       -3.44491212998748        0.15128961069971
C           -0.36239861789541       -2.52631737746006        0.01510661693336
C           -0.70112064006246       -1.18276979089452       -0.09268663530911
C            2.24488524078255        0.69029417255740        0.67485737502278
C            1.56870224924088        1.43903265297924        1.65936862827277
N            1.01891438543919        2.03740869242693        2.47171758578179
C            3.62414449755124        0.68136362024159        0.65406194831104
N            6.41334810388425       -0.87612361868711       -1.19863965880526
C            7.71015107643378       -0.86418675030610       -1.17883353840231
C            8.47760605115104       -1.71612818437258       -2.16402685522386
C            9.32904781198924       -2.70620109654337       -1.36254273630583
C            9.38711278769611       -0.79335432410701       -2.98112069710366
C            7.51850913109632       -2.46659454942169       -3.08495973477048
N            8.44266614301778       -0.13270159589668       -0.32466754096986
H            8.78592230907391        3.08655674845430        0.11749714389388
H           10.03727459712296        3.00159678991152        1.36316120434792
H           10.04450842420786        1.85133486855735        0.01672255958357
H            6.98333945323573        1.54899263788169        3.01066097325603
H            6.96860708239513        2.88938655154736        1.86872598256724
H            8.20006297130952        2.82697728651504        3.13735891683366
H           10.06992279093352       -0.07089861788206        1.65903793793068
H            8.82730913313945       -0.18547646845571        2.90911656148182
H           10.06046803958079        1.07720450737437        3.00735938961346
H            4.11851976436950       -1.48717843615185       -1.91395414954044
H            1.64471765318006       -1.45883419267892       -1.89291855371590
H            0.69642962809505        2.65892488659264       -0.62178946091433
H           -1.08324053792656        4.35456861140795       -0.60255633409605
H           -2.15590979747464        4.32057992094432        1.93657820954278
H           -1.64513035605291        6.47313559079561        3.00022747698556
H           -2.56654779861211        8.57026750923639        2.07314024627744
H           -3.99649372345159        8.49295194696133        0.06147124191921
H           -4.49642967468735        6.34155016076841       -1.01855933726257
H           -4.18426554775251        2.57007098909495       -2.40985419943341
H           -6.41454249749024        2.14703103454121       -3.35365363522857
H           -8.42390865134334        3.07719348839074       -2.25962356797065
H           -8.18276028740502        4.42583274880525       -0.20494909664282
H           -5.95703814816013        4.83104696776884        0.75535390758403
H           -4.07344669793740        1.34632259537855        0.01997078989803
H           -4.09945397279137       -1.39314957216131        0.17459740424572
H           -6.11513205947101       -4.70204795204728        1.25191349059759
H           -8.25890134778492       -4.41781096357141        0.08474432350452
H           -8.32616027618006       -3.39034649278953       -2.16002008689699
H           -6.22457368775630       -2.66058885566546       -3.23299033248385
H           -4.07609413439875       -2.96358409494138       -2.07890288894525
H           -4.55738947333561       -6.48072856730398       -0.18367554896761
H           -4.18586842151106       -8.45726873841341        1.23118936217186
H           -2.92064422597785       -8.25396185432775        3.34203930403839
H           -2.03686675208229       -6.05318246038963        4.03091471092676
H           -2.42210341898072       -4.07097824609940        2.62772807135883
H           -1.14316859792654       -4.49617466222693        0.21940587772863
H            0.66806203428665       -2.84444445690179       -0.01151807725453
H            4.18427562435982        1.27016378571687        1.36457489275609
H            9.93159322089452       -3.31159490257140       -2.03636399337525
H            8.69333426300699       -3.36624938809123       -0.77575570057509
H            9.98732777083491       -2.16751323395428       -0.68587719284182
H           10.04528792047681       -0.23830168293941       -2.31784979743639
H            9.99056396674718       -1.37909401623643       -3.67128085475000
H            8.79319841063274       -0.08379872854421       -3.55369873674050
H            8.08069523348711       -3.07622703918894       -3.78916418315983
H            6.86341442068492       -3.11188202418499       -2.50531886535218
H            6.90054338543601       -1.76610173952990       -3.64089848522664

 projected vibrational frequencies (cm⁻¹)
eigval :       -0.00    -0.00     0.00     0.00     0.00     0.00
eigval :        9.59    10.45    11.56    12.59    13.79    15.84
eigval :       20.16    23.35    32.01    38.68    40.41    48.26
eigval :       50.91    53.16    54.98    60.22    66.74    69.73
eigval :       78.41    80.46    85.16    86.68   103.54   112.42
eigval :      121.73   129.47   140.75   142.50   146.83   156.98
eigval :      168.40   182.90   185.79   196.24   204.51   221.34
eigval :      224.42   230.50   233.84   235.79   236.15   237.04
eigval :      240.49   246.28   250.39   255.63   262.02   265.01
eigval :      272.62   294.04   304.92   308.54   313.37   317.74
eigval :      327.10   339.75   341.58   345.33   368.87   374.42
eigval :      377.01   377.52   378.38   381.82   383.10   384.11
eigval :      391.92   403.12   404.48   413.01   424.70   428.76
eigval :      432.60   444.76   457.33   470.53   483.20   491.57
eigval :      494.90   498.17   507.56   521.56   538.48   542.75
eigval :      550.74   555.27   566.53   574.74   585.26   587.25
eigval :      589.21   589.77   597.89   606.37   607.58   618.07
eigval :      622.60   631.19   647.46   649.18   651.25   659.41
eigval :      661.01   664.60   668.81   676.77   701.70   705.37
eigval :      718.08   718.97   721.98   756.71   757.29   757.84
eigval :      760.38   777.63   802.03   802.20   821.45   823.32
eigval :      860.54   860.85   866.39   868.93   873.20   873.71
eigval :      875.12   875.76   879.08   893.35   894.22   895.86
eigval :      897.58   902.82   905.93   909.51   910.01   912.68
eigval :      915.45   918.98   927.35   927.54   928.01   928.42
eigval :      929.23   929.50   929.71   929.77   931.12   946.43
eigval :      964.81   965.45   965.95   965.95   966.46   967.00
eigval :      969.90   988.90   992.69  1002.69  1003.98  1010.33
eigval :     1030.02  1030.26  1032.74  1035.16  1037.57  1071.55
eigval :     1081.97  1082.21  1082.99  1083.30  1104.87  1121.87
eigval :     1122.23  1123.86  1124.30  1139.72  1149.77  1167.71
eigval :     1174.58  1178.96  1179.76  1179.84  1180.16  1180.47
eigval :     1180.76  1192.47  1193.82  1194.33  1198.27  1201.26
eigval :     1206.27  1208.10  1218.45  1228.22  1229.29  1230.21
eigval :     1239.71  1247.14  1248.02  1250.44  1273.27  1274.61
eigval :     1276.66  1277.60  1280.28  1285.30  1302.25  1311.77
eigval :     1315.78  1318.06  1319.04  1319.68  1321.43  1326.54
eigval :     1326.95  1337.97  1346.26  1357.68  1359.13  1386.16
eigval :     1391.80  1393.08  1397.32  1399.21  1409.03  1418.27
eigval :     1420.74  1424.87  1433.82  1434.35  1437.10  1442.44
eigval :     1443.62  1449.12  1451.52  1458.44  1465.69  1467.52
eigval :     1467.89  1470.06  1477.45  1478.05  1479.33  1486.52
eigval :     1490.15  1490.43  1492.28  1492.54  1493.15  1494.76
eigval :     1496.14  1497.42  1511.21  1513.22  1542.70  1548.67
eigval :     1560.40  1571.42  1573.00  1574.03  1575.95  1577.46
eigval :     1578.62  1587.99  1589.65  1591.61  1594.35  1598.92
eigval :     2348.50  3021.59  3022.32  3024.42  3025.11  3028.44
eigval :     3028.57  3028.86  3029.36  3031.61  3032.17  3040.82
eigval :     3041.29  3044.02  3045.32  3046.38  3046.90  3048.11
eigval :     3049.08  3070.91  3078.25  3079.01  3079.27  3079.46
eigval :     3080.30  3080.76  3081.35  3085.27  3088.43  3088.97
eigval :     3089.33  3089.69  3090.95  3091.84  3092.34  3092.87
eigval :     3093.10  3093.28  3094.94  3096.04  3097.03  3099.81
eigval :     3100.17  3100.51  3102.26  3103.18  3104.29  3107.80

   temp. (K)  partition function   enthalpy   heat capacity  entropy
                                   cal/mol     cal/K/mol   cal/K/mol   J/K/mol
 298.15  VIB  0.376E+28            33097.572    198.387    209.962
         ROT  0.233E+09              888.752      2.981     41.267
         INT  0.875E+36            33986.324    201.368    251.229
         TR   0.216E+29             1481.254      4.968     45.873
         TOT                       35467.5781   206.3359   297.1019  1243.0743

       T/K    H(0)-H(T)+PV         H(T)/Eh          T*S/Eh         G(T)/Eh
   ------------------------------------------------------------------------
    298.15    0.565212E-01    0.909484E+00    0.141163E+00    0.768321E+00
   ------------------------------------------------------------------------

         :::::::::::::::::::::::::::::::::::::::::::::::::::::
         ::                  THERMODYNAMIC                  ::
         :::::::::::::::::::::::::::::::::::::::::::::::::::::
         :: total free energy        -159.304518753868 Eh   ::
         ::.................................................::
         :: total energy             -160.072840158014 Eh   ::
         :: zero point energy           0.852962917930 Eh   ::
         :: G(RRHO) w/o ZPVE           -0.084641513784 Eh   ::
         :: G(RRHO) contrib.            0.768321404146 Eh   ::
         :::::::::::::::::::::::::::::::::::::::::::::::::::::

           -------------------------------------------------
          | TOTAL ENERGY             -160.072840158014 Eh   |
          | TOTAL ENTHALPY           -159.163356056647 Eh   |
          | TOTAL FREE ENERGY        -159.304518753868 Eh   |
          | GRADIENT NORM               0.000160382919 Eh/α |
           -------------------------------------------------

 * finished run on 2025/08/25 at 19:10:06.452
