   * xtb version 6.7.1 (edcfbbe) compiled by 'albert@albert-system' on 2024-07-22

   ID    Z sym.   atoms
    1    6 C      1-5, 7-11, 13-16, 18-34, 36-52, 54, 56-60
    2    7 N      6, 12, 17, 35, 53, 55, 61
    3    1 H      62-108

          program call               : xtb data2507/gas/DTPTCzDP-CN/DTPTCzDP-CN_gas_S0_crest.xyz --gfn 2 --ohess vtight --parallel 40 --molden --ceasefiles --namespace data2507/gas/DTPTCzDP-CN/DTPTCzDP-CN_gas_S0_finalOpt
          :  Hamiltonian                  GFN2-xTB          :
 * total energy  :  -160.1393552 Eh     change       -0.4683955E-08 Eh
 * total energy  :  -160.1393550 Eh     change        0.2082341E-06 Eh
 * total energy  :  -160.1393561 Eh     change       -0.1086681E-05 Eh
 * total energy  :  -160.1393566 Eh     change       -0.5040728E-06 Eh
 * total energy  :  -160.1393575 Eh     change       -0.8745957E-06 Eh
 * total energy  :  -160.1393589 Eh     change       -0.1469587E-05 Eh
 * total energy  :  -160.1393600 Eh     change       -0.1022478E-05 Eh
 * total energy  :  -160.1393608 Eh     change       -0.8162929E-06 Eh
 * total energy  :  -160.1393617 Eh     change       -0.9575463E-06 Eh
 * total energy  :  -160.1393625 Eh     change       -0.7329384E-06 Eh
 * total energy  :  -160.1393659 Eh     change       -0.1202861E-05 Eh
 * total energy  :  -160.1393668 Eh     change       -0.9169374E-06 Eh
 * total energy  :  -160.1393675 Eh     change       -0.6050523E-06 Eh
 * total energy  :  -160.1393679 Eh     change       -0.4295647E-06 Eh
 * total energy  :  -160.1393682 Eh     change       -0.3315348E-06 Eh
 * total energy  :  -160.1393685 Eh     change       -0.2967957E-06 Eh
 * total energy  :  -160.1393688 Eh     change       -0.2961384E-06 Eh
 * total energy  :  -160.1393691 Eh     change       -0.2910293E-06 Eh
 * total energy  :  -160.1393691 Eh     change       -0.5448612E-08 Eh
   *** GEOMETRY OPTIMIZATION CONVERGED AFTER 22 ITERATIONS ***

 final structure:
================
108
 xtb: 6.7.1 (edcfbbe)
C            9.41862944277955        2.49300749616403        0.55666955837262
C            8.50835811240786        1.69167063821609        1.49427796751413
C            7.56427190697969        2.62689980871197        2.24546190140819
C            9.36454584838532        0.89191833672590        2.48319310657432
C            7.73240890326294        0.70790833047053        0.65804894942449
N            6.40998479207678        0.75336368490992        0.68114776316584
C            5.78543648738207       -0.14523936793461       -0.07431938694060
C            4.32426997778727       -0.13574220882268       -0.08080088182456
C            3.61502189726028       -1.04195634352821       -0.87270723796696
C            2.23784182280893       -1.02679073514121       -0.88862026717987
C            1.52549246226552       -0.11018271322244       -0.11394462209421
N            0.13801372614327       -0.09145059451828       -0.14413363294736
C           -0.65861221407244        1.03465680144771       -0.28814359945150
C           -0.29987044039653        2.34381972125173       -0.57162153865098
C           -1.30501247544769        3.27775645298059       -0.70121796445185
C           -2.65726556524252        2.93428359040933       -0.55425816657343
N           -3.63644890098129        3.92937057039452       -0.65921722222868
C           -3.39287471682892        5.19951086445718       -0.12276549957813
C           -2.66152664449628        5.34183191128349        1.05654645695838
C           -2.41728928841779        6.59832519961131        1.57533683051413
C           -2.90180211435636        7.72877015402640        0.93774251609805
C           -3.63089699675020        7.59249227236813       -0.23219108755167
C           -3.87263646117047        6.34106995987206       -0.76462222797245
C           -4.85959275222058        3.64834815029700       -1.27540389056367
C           -4.91518678594748        2.80792906678418       -2.38770644477557
C           -6.12549617402665        2.53127287216550       -2.99258289109027
C           -7.29694145710608        3.09046507974223       -2.50878520575458
C           -7.24766317068602        3.92805123438671       -1.40648238492019
C           -6.04340817264640        4.20364964605217       -0.78905577313082
C           -3.01700948625322        1.61126498752238       -0.32116506081677
C           -2.01639742048882        0.66042758194903       -0.20592055477749
C           -2.03851564574105       -0.76343283107908       -0.00512968436262
C           -3.06800565610967       -1.67656562666602        0.15146629523799
C           -2.75054545983580       -3.01466152722559        0.35984904362154
N           -3.76512676485590       -3.96647659745127        0.52598502158630
C           -3.61807809046049       -5.24210047514558       -0.02724793501152
C           -4.09401423334878       -6.36725722751164        0.64635212203306
C           -3.94601172661444       -7.62424352225162        0.09378793225860
C           -3.31609061660644       -7.78458111985483       -1.12965453839945
C           -2.83673326442931       -6.67152926604442       -1.80059923626533
C           -2.98754083767061       -5.40943991936761       -1.26051051723188
C           -4.92133021296811       -3.63744872567749        1.24189564009848
C           -4.85046901224034       -2.80229762447467        2.35688935147431
C           -5.99557377427024       -2.47749461114137        3.05739659790128
C           -7.22500640374789       -2.98299016129647        2.66758395730322
C           -7.30081297901198       -3.81504199070425        1.56269427236310
C           -6.16279379307218       -4.13813727310821        0.84979242625614
C           -1.40794375177692       -3.41541703262101        0.42144323400757
C           -0.37364843107310       -2.51857987678311        0.25237297135385
C           -0.69243722790353       -1.18929158932774        0.01909617439380
C            2.24058829549170        0.78940797071459        0.70258473046299
C            1.56727521463127        1.66487264900284        1.58609853515179
N            1.05148975867394        2.35563003722016        2.34217294791953
C            3.63073130800986        0.77499373686220        0.70685766503579
N            6.40606269734046       -1.05127829927951       -0.82464392522890
C            7.72890748535919       -1.02022922013215       -0.78866725482024
C            8.50256983095002       -2.01240746457608       -1.61762402553031
C            9.37697960334856       -1.22204091058476       -2.59802588366688
C            7.55592203212134       -2.93741300102738       -2.37820217299630
C            9.39493451438728       -2.82352206423909       -0.67137792154729
N            8.43085976102717       -0.16033869459446       -0.06235427302034
H            8.82456954855598        3.06738085717040       -0.15131323429139
H           10.03249202091563        3.18085535139754        1.13331701067570
H           10.06667872399468        1.82006410905972        0.00138292680156
H            8.13876126437206        3.33146421724276        2.84219383562626
H            6.91116155155143        2.05978750474421        2.90336674746374
H            6.94361830611248        3.18193380236852        1.54701769868376
H           10.01191445404930        0.20458366271177        1.94486708486057
H            8.73154073177441        0.31839620107422        3.15731992122678
H            9.97835917414357        1.56770053067888        3.07398680159305
H            4.16972780552974       -1.74092936893646       -1.47849233913588
H            1.69103628924349       -1.70780977914302       -1.52315807196232
H            0.73061600292954        2.63507511421404       -0.70575413776593
H           -1.05142872811811        4.30331318869685       -0.92262975387177
H           -2.28690718582870        4.46355655972453        1.56105541103533
H           -1.85009081997152        6.69320459865333        2.48937168798881
H           -2.71198609754177        8.70882250119058        1.34858337322538
H           -4.00726078487788        8.46825123029398       -0.74055909642026
H           -4.43180567189003        6.23875190114658       -1.68333970251730
H           -4.00234197414251        2.37858333784275       -2.77426858027996
H           -6.15273421723422        1.88064749732875       -3.85455769407210
H           -8.24050508076907        2.87505793467439       -2.98678388845836
H           -8.15629213699697        4.36427410775332       -1.01795471845694
H           -6.01030368200652        4.84857669126821        0.07675177201363
H           -4.05549739922475        1.33138590508230       -0.23323820814063
H           -4.09790923055861       -1.35601593498104        0.11955887337097
H           -4.57596159720305       -6.24690593831664        1.60553783605902
H           -4.31774042319749       -8.48666023490012        0.62747633543093
H           -3.19973318689589       -8.76908993248868       -1.55663209836393
H           -2.34896251342073       -6.78578347613115       -2.75770865696872
H           -2.62226294272572       -4.54213423729277       -1.79096145282913
H           -3.89240544172758       -2.41410605561026        2.67026142408584
H           -5.92521444445964       -1.83118270802450        3.91993359363688
H           -8.11706388601030       -2.73012050919809        3.22019290460422
H           -8.25558070947033       -4.20953097344141        1.24706876162104
H           -6.22727760414801       -4.77846468820526       -0.01782150905411
H           -1.18498665238053       -4.45433430409741        0.61308340247086
H            0.65091810643936       -2.84989223691164        0.32543855036602
H            4.18181370050080        1.46200070486832        1.33057352217436
H            9.98876221265099       -1.90424398237285       -3.18361476283371
H           10.02692792915874       -0.54263745914224       -2.05291543935534
H            8.75711844726727       -0.64044571257750       -3.27747946208141
H            8.12867641003692       -3.64713461507284       -2.97058597438948
H            6.92388515931715       -3.48649089351877       -1.68525017645851
H            6.91469868525928       -2.36234904697240       -3.04093582862052
H            8.78795712101532       -3.39362901397827        0.02907172572699
H           10.00958672119583       -3.51572350861474       -1.24201743047148
H           10.04225313987978       -2.15700211623165       -0.10765177751348

          :  Hamiltonian                  GFN2-xTB          :
         :: gradient norm              0.000058593920 Eh/a0 ::
         :: HOMO-LUMO gap              1.293994036969 eV    ::
         :: SCC energy              -163.002914180870 Eh    ::
         :: -> dispersion             -0.145978062080 Eh    ::
         :: repulsion energy           2.863545075933 Eh    ::

    * Orbital Energies and Occupations

         #    Occupation            Energy/Eh            Energy/eV
      -------------------------------------------------------------
         1        2.0000           -0.6882692             -18.7288
       ...           ...                  ...                  ...
       137        2.0000           -0.4098466             -11.1525
       138        2.0000           -0.4059625             -11.0468
       139        2.0000           -0.4044504             -11.0057
       140        2.0000           -0.4028275             -10.9615
       141        2.0000           -0.4025340             -10.9535
       142        2.0000           -0.4011672             -10.9163
       143        2.0000           -0.3989958             -10.8572
       144        2.0000           -0.3865425             -10.5184
       145        2.0000           -0.3816888             -10.3863
       146        2.0000           -0.3738327             -10.1725
       147        2.0000           -0.3735967             -10.1661
       148        2.0000           -0.3480144              -9.4700
       149        2.0000           -0.3407383              -9.2720 (HOMO)
       150                         -0.2931849              -7.9780 (LUMO)
       151                         -0.2741977              -7.4613
       152                         -0.2620767              -7.1315
       153                         -0.2515100              -6.8439
       154                         -0.2329435              -6.3387
       155                         -0.2318973              -6.3102
       156                         -0.2286145              -6.2209
       157                         -0.2253883              -6.1331
       158                         -0.2236608              -6.0861
       159                         -0.2205365              -6.0011
       160                         -0.2196698              -5.9775
       ...                                ...                  ...
       291                          1.1654064              31.7123
      -------------------------------------------------------------
                  HL-Gap            0.0475534 Eh            1.2940 eV

     #   Z          covCN         q      C6AA      α(0)
     1   6 C        3.763    -0.106    22.560     6.770
     2   6 C        3.908     0.021    20.167     6.383
     3   6 C        3.760    -0.110    22.656     6.785
     4   6 C        3.763    -0.105    22.555     6.770
     5   6 C        2.996     0.207    23.610     7.971
     6   7 N        1.842    -0.292    28.426     7.901
     7   6 C        2.995     0.200    23.758     7.995
     8   6 C        2.982    -0.002    28.081     8.692
     9   6 C        2.921    -0.021    28.523     8.758
    10   6 C        2.920    -0.042    29.054     8.839
    11   6 C        2.915     0.075    26.316     8.412
    12   7 N        2.800    -0.040    22.003     6.967
    13   6 C        3.071     0.041    27.011     8.522
    14   6 C        2.909    -0.044    29.083     8.843
    15   6 C        2.928    -0.046    29.152     8.855
    16   6 C        2.925     0.060    26.659     8.467
    17   7 N        2.753    -0.075    22.689     7.075
    18   6 C        2.924     0.064    26.565     8.452
    19   6 C        2.922    -0.048    29.182     8.859
    20   6 C        2.920    -0.029    28.715     8.787
    21   6 C        2.919    -0.039    28.966     8.826
    22   6 C        2.919    -0.030    28.751     8.793
    23   6 C        2.922    -0.048    29.204     8.862
    24   6 C        2.923     0.065    26.543     8.449
    25   6 C        2.923    -0.049    29.210     8.863
    26   6 C        2.919    -0.030    28.742     8.792
    27   6 C        2.919    -0.039    28.978     8.828
    28   6 C        2.919    -0.029    28.735     8.791
    29   6 C        2.922    -0.048    29.189     8.860
    30   6 C        2.916    -0.051    29.261     8.870
    31   6 C        3.065    -0.013    28.267     8.718
    32   6 C        3.066    -0.012    28.258     8.717
    33   6 C        2.916    -0.051    29.260     8.870
    34   6 C        2.924     0.058    26.700     8.474
    35   7 N        2.753    -0.076    22.710     7.078
    36   6 C        2.924     0.065    26.545     8.449
    37   6 C        2.922    -0.048    29.194     8.861
    38   6 C        2.920    -0.029    28.734     8.790
    39   6 C        2.919    -0.039    28.974     8.827
    40   6 C        2.919    -0.030    28.742     8.792
    41   6 C        2.923    -0.049    29.208     8.863
    42   6 C        2.923     0.065    26.553     8.450
    43   6 C        2.922    -0.048    29.195     8.861
    44   6 C        2.920    -0.029    28.727     8.789
    45   6 C        2.919    -0.039    28.962     8.825
    46   6 C        2.920    -0.029    28.736     8.791
    47   6 C        2.922    -0.048    29.197     8.861
    48   6 C        2.927    -0.049    29.228     8.866
    49   6 C        2.909    -0.050    29.240     8.867
    50   6 C        3.069     0.040    27.043     8.527
    51   6 C        2.972     0.004    27.927     8.668
    52   6 C        1.912     0.117    28.219     8.579
    53   7 N        0.911    -0.234    26.126     7.393
    54   6 C        2.933    -0.018    28.452     8.748
    55   7 N        1.842    -0.293    28.436     7.903
    56   6 C        2.996     0.207    23.619     7.972
    57   6 C        3.908     0.021    20.168     6.383
    58   6 C        3.763    -0.105    22.556     6.770
    59   6 C        3.760    -0.110    22.655     6.785
    60   6 C        3.763    -0.106    22.563     6.771
    61   7 N        1.842    -0.291    28.393     7.897
    62   1 H        0.925     0.036     2.507     2.476
    63   1 H        0.925     0.044     2.390     2.418
    64   1 H        0.925     0.050     2.316     2.380
    65   1 H        0.925     0.041     2.437     2.441
    66   1 H        0.925     0.046     2.370     2.407
    67   1 H        0.925     0.046     2.377     2.411
    68   1 H        0.925     0.050     2.321     2.383
    69   1 H        0.925     0.036     2.505     2.475
    70   1 H        0.925     0.045     2.387     2.416
    71   1 H        0.926     0.069     2.097     2.264
    72   1 H        0.926     0.051     2.304     2.374
    73   1 H        0.926     0.029     2.600     2.522
    74   1 H        0.926     0.040     2.452     2.449
    75   1 H        0.926     0.038     2.481     2.463
    76   1 H        0.926     0.035     2.521     2.483
    77   1 H        0.926     0.029     2.597     2.520
    78   1 H        0.926     0.030     2.591     2.517
    79   1 H        0.926     0.030     2.585     2.514
    80   1 H        0.926     0.029     2.596     2.519
    81   1 H        0.926     0.030     2.589     2.516
    82   1 H        0.926     0.029     2.602     2.522
    83   1 H        0.926     0.031     2.575     2.509
    84   1 H        0.926     0.032     2.552     2.498
    85   1 H        0.926     0.039     2.465     2.455
    86   1 H        0.926     0.039     2.465     2.455
    87   1 H        0.926     0.032     2.560     2.502
    88   1 H        0.926     0.031     2.572     2.508
    89   1 H        0.926     0.029     2.595     2.519
    90   1 H        0.926     0.030     2.584     2.514
    91   1 H        0.926     0.030     2.593     2.518
    92   1 H        0.926     0.031     2.568     2.506
    93   1 H        0.926     0.032     2.559     2.501
    94   1 H        0.926     0.030     2.588     2.516
    95   1 H        0.926     0.031     2.574     2.509
    96   1 H        0.926     0.031     2.570     2.507
    97   1 H        0.926     0.037     2.494     2.470
    98   1 H        0.926     0.032     2.560     2.502
    99   1 H        0.926     0.071     2.073     2.252
   100   1 H        0.925     0.044     2.392     2.419
   101   1 H        0.925     0.050     2.315     2.379
   102   1 H        0.925     0.036     2.509     2.477
   103   1 H        0.925     0.040     2.445     2.445
   104   1 H        0.925     0.045     2.382     2.413
   105   1 H        0.925     0.045     2.379     2.412
   106   1 H        0.925     0.036     2.508     2.477
   107   1 H        0.925     0.044     2.395     2.420
   108   1 H        0.925     0.051     2.310     2.377

molecular dipole:
                 x           y           z       tot (Debye)
 q only:        0.544      -0.594      -0.660
   full:        0.865      -0.877      -0.936       3.933

 projected vibrational frequencies (cm⁻¹)
eigval :       -0.00    -0.00     0.00     0.00     0.00     0.00
eigval :        8.29     9.84    11.49    12.82    13.52    13.76
eigval :       18.69    22.22    31.99    36.60    41.38    48.67
eigval :       51.14    53.11    58.94    60.42    63.45    74.14
eigval :       80.85    82.70    84.97    86.13   105.14   111.18
eigval :      117.47   122.78   136.93   145.66   145.74   157.89
eigval :      171.10   180.11   185.90   194.62   209.07   217.60
eigval :      220.22   224.41   230.74   237.19   237.75   238.55
eigval :      245.07   246.30   250.29   253.39   258.74   273.60
eigval :      276.33   294.98   307.81   313.80   318.62   321.17
eigval :      329.92   343.82   348.61   355.04   361.79   369.76
eigval :      375.21   378.12   378.72   383.67   384.46   390.76
eigval :      395.61   404.31   409.68   419.37   428.72   436.24
eigval :      451.46   456.40   466.07   476.39   488.78   490.45
eigval :      503.13   509.97   544.25   545.98   551.31   555.50
eigval :      558.30   568.39   570.32   576.23   586.43   587.68
eigval :      589.40   590.22   596.72   606.86   622.64   630.86
eigval :      632.21   654.92   659.13   660.87   664.07   670.30
eigval :      674.45   676.30   678.59   698.28   700.86   713.13
eigval :      723.20   756.40   756.81   757.98   760.53   762.90
eigval :      797.76   802.79   817.60   819.35   820.53   847.50
eigval :      865.86   871.23   872.88   874.27   874.90   876.70
eigval :      877.58   881.26   890.77   891.36   893.25   894.03
eigval :      894.36   908.43   910.14   910.66   910.86   920.01
eigval :      927.04   927.10   927.95   928.08   928.66   929.75
eigval :      929.96   930.02   934.42   946.40   948.90   962.59
eigval :      965.85   966.54   966.84   966.97   967.30   968.63
eigval :      971.36   990.24  1004.13  1004.89  1013.38  1030.19
eigval :     1030.88  1036.41  1037.10  1038.55  1058.12  1083.25
eigval :     1083.36  1084.30  1084.40  1094.83  1121.62  1122.22
eigval :     1122.85  1124.51  1124.85  1143.79  1157.52  1170.43
eigval :     1180.60  1180.74  1180.84  1180.87  1183.13  1186.64
eigval :     1195.99  1196.07  1198.06  1200.02  1201.04  1206.27
eigval :     1216.91  1227.03  1228.35  1230.73  1232.88  1236.98
eigval :     1244.18  1252.10  1257.68  1265.42  1274.46  1278.46
eigval :     1279.23  1283.93  1286.91  1312.52  1318.37  1319.70
eigval :     1322.58  1322.81  1327.52  1327.71  1327.96  1331.44
eigval :     1346.92  1354.27  1363.21  1374.08  1383.32  1392.42
eigval :     1393.76  1395.90  1398.16  1403.15  1413.35  1420.43
eigval :     1423.32  1423.52  1431.65  1435.24  1436.19  1443.81
eigval :     1444.76  1468.40  1472.00  1472.30  1474.99  1477.52
eigval :     1478.12  1478.29  1479.54  1488.98  1489.66  1489.73
eigval :     1492.10  1492.71  1493.29  1494.15  1496.13  1498.23
eigval :     1510.86  1513.51  1525.67  1530.36  1548.95  1563.78
eigval :     1572.96  1576.74  1578.05  1579.08  1580.94  1581.03
eigval :     1595.10  1595.43  1598.00  1600.14  1601.80  1614.27
eigval :     2368.52  3025.52  3026.40  3029.33  3030.18  3031.01
eigval :     3031.69  3031.76  3032.22  3037.87  3038.75  3043.84
eigval :     3044.38  3045.52  3046.87  3048.90  3049.79  3050.91
eigval :     3051.54  3074.13  3074.40  3074.54  3075.57  3076.34
eigval :     3076.62  3077.29  3079.93  3085.19  3085.48  3085.79
eigval :     3086.02  3086.36  3086.66  3088.72  3089.31  3089.75
eigval :     3091.49  3094.45  3096.11  3096.73  3097.00  3097.65
eigval :     3097.85  3098.06  3099.34  3100.50  3106.89  3112.18

   temp. (K)  partition function   enthalpy   heat capacity  entropy
                                   cal/mol     cal/K/mol   cal/K/mol   J/K/mol
 298.15  VIB  0.464E+28            32847.464    196.599    209.102
         ROT  0.233E+09              888.752      2.981     41.268
         INT  0.108E+37            33736.217    199.580    250.370
         TR   0.216E+29             1481.254      4.968     45.873
         TOT                       35217.4707   204.5485   296.2430  1239.4806

       T/K    H(0)-H(T)+PV         H(T)/Eh          T*S/Eh         G(T)/Eh
   ------------------------------------------------------------------------
    298.15    0.561226E-01    0.912795E+00    0.140755E+00    0.772041E+00
   ------------------------------------------------------------------------

         :::::::::::::::::::::::::::::::::::::::::::::::::::::
         ::                  THERMODYNAMIC                  ::
         :::::::::::::::::::::::::::::::::::::::::::::::::::::
         :: total free energy        -159.367328512909 Eh   ::
         ::.................................................::
         :: total energy             -160.139369104935 Eh   ::
         :: zero point energy           0.856672581044 Eh   ::
         :: G(RRHO) w/o ZPVE           -0.084631989018 Eh   ::
         :: G(RRHO) contrib.            0.772040592026 Eh   ::
         :::::::::::::::::::::::::::::::::::::::::::::::::::::

           -------------------------------------------------
          | TOTAL ENERGY             -160.139369104935 Eh   |
          | TOTAL ENTHALPY           -159.226573911984 Eh   |
          | TOTAL FREE ENERGY        -159.367328512909 Eh   |
          | GRADIENT NORM               0.000058651275 Eh/α |
          | HOMO-LUMO GAP               1.293992961457 eV   |
           -------------------------------------------------

 * finished run on 2025/08/25 at 18:34:38.506
