   * xtb version 6.7.1 (edcfbbe) compiled by 'albert@albert-system' on 2024-07-22

   ID    Z sym.   atoms
    1    6 C      1-5, 7-11, 13-16, 18-34, 36-52, 54, 56-60
    2    7 N      6, 12, 17, 35, 53, 55, 61
    3    1 H      62-108

          program call               : xtb data2507/gas/DTPTCzDP-CN/DTPTCzDP-CN_gas_S0_finalOpt.xtbopt.xyz --gfn 2 --spinpol --tblite --uhf 2 --ohess vtight --parallel 40 --molden --ceasefiles --namespace data2507/gas/DTPTCzDP-CN/DTPTCzDP-CN_gas_T1_preOpt
 * total energy  :  -160.0661642 Eh     change       -0.2268629E-07 Eh
 * total energy  :  -160.0704807 Eh     change       -0.4316562E-02 Eh
 * total energy  :  -160.0722032 Eh     change       -0.1722515E-02 Eh
 * total energy  :  -160.0723418 Eh     change       -0.1386129E-03 Eh
 * total energy  :  -160.0724798 Eh     change       -0.1380037E-03 Eh
 * total energy  :  -160.0725073 Eh     change       -0.2749673E-04 Eh
 * total energy  :  -160.0725304 Eh     change       -0.2307623E-04 Eh
 * total energy  :  -160.0725402 Eh     change       -0.9785865E-05 Eh
 * total energy  :  -160.0725534 Eh     change       -0.1319699E-04 Eh
 * total energy  :  -160.0725614 Eh     change       -0.8010702E-05 Eh
 * total energy  :  -160.0726598 Eh     change       -0.1099337E-05 Eh
 * total energy  :  -160.0726604 Eh     change       -0.5746795E-06 Eh
 * total energy  :  -160.0726608 Eh     change       -0.4200292E-06 Eh
 * total energy  :  -160.0726613 Eh     change       -0.5347616E-06 Eh
 * total energy  :  -160.0726617 Eh     change       -0.3844465E-06 Eh
 * total energy  :  -160.0726620 Eh     change       -0.3002346E-06 Eh
 * total energy  :  -160.0726622 Eh     change       -0.1868245E-06 Eh
 * total energy  :  -160.0726626 Eh     change       -0.3700607E-06 Eh
 * total energy  :  -160.0726626 Eh     change       -0.2306030E-07 Eh
   *** GEOMETRY OPTIMIZATION CONVERGED AFTER 46 ITERATIONS ***

 final structure:
================
108
 xtb: 6.7.1 (edcfbbe)
C            9.38284432960281        2.48749609077906        0.71876500724197
C            8.48384953183528        1.62337941352586        1.60887177068897
C            7.52828309223317        2.50370530674481        2.41074768021385
C            9.34645207203689        0.77859079876388        2.55192378209555
C            7.71298268355505        0.68035467104474        0.71364724990562
N            6.41661292524101        0.70870553025316        0.72133733243687
C            5.73644103581667       -0.14061748584371       -0.09919778137379
C            4.32842884737378       -0.13655110359239       -0.12618439875324
C            3.60563850144180       -1.01278452155278       -0.98259664022211
C            2.23787462214787       -0.99780130610548       -1.00978913414510
C            1.51080680128435       -0.12256173690210       -0.19520874996563
N            0.10835519456011       -0.10819266487133       -0.22414956234102
C           -0.67624353577612        1.00480271979892       -0.39518346961780
C           -0.30724022472924        2.31381846247305       -0.68524186081738
C           -1.30058475402725        3.25836166178895       -0.79081035057379
C           -2.65637449507074        2.92695542867080       -0.61613323379738
N           -3.62457849358201        3.93147014273872       -0.68793964521836
C           -3.34773139672694        5.20074714265120       -0.16672591665571
C           -2.57331874405100        5.33761349581580        0.98623019783880
C           -2.30116906656402        6.59332382012352        1.49227459658530
C           -2.79742262196848        7.72607474255880        0.86689427640326
C           -3.56785134643226        7.59453523461700       -0.27727143118762
C           -3.84077638200581        6.34406801706852       -0.79634541483412
C           -4.87364641433839        3.66371163686481       -1.25358049201769
C           -4.98066401783626        2.82111251707614       -2.36133507572510
C           -6.21673909270979        2.55691683090295       -2.91713347917384
C           -7.36205069775569        3.12866675237573       -2.38646421179824
C           -7.26140398748714        3.96791497714401       -1.28841690953882
C           -6.03090085007907        4.23392569628060       -0.72094845685493
C           -3.03125412454131        1.60619121560518       -0.37752954443936
C           -2.04267555443422        0.64413121269534       -0.28010056793309
C           -2.06511743870630       -0.77262516426610       -0.04613856228178
C           -3.08508120322025       -1.68989859275306        0.13077209972734
C           -2.75426657540452       -3.02376980621025        0.36146978555107
N           -3.76239544570522       -3.97447802769515        0.54801572394247
C           -3.60399287376128       -5.26983914203977        0.04564677497316
C           -4.07996396643897       -6.36953858255473        0.76047070767299
C           -3.92360862611361       -7.64598936111372        0.25711748297847
C           -3.28773954099498       -7.84905165001524       -0.95712398447894
C           -2.80973068568605       -6.76070165011874       -1.66904835937577
C           -2.96673235498236       -5.47966999223031       -1.17793696465364
C           -4.92971672061854       -3.62971437578287        1.23682270515418
C           -4.87698323311786       -2.76186520456831        2.32831971131811
C           -6.03353116635353       -2.42165892542722        3.00182139527656
C           -7.25544204809384       -2.94212655810257        2.60673040868314
C           -7.31282993520323       -3.80687059695822        1.52565931543790
C           -6.16319121414854       -4.14809516133454        0.84065482686131
C           -1.40609348538104       -3.41821506395872        0.42091831242142
C           -0.38117261380887       -2.51806688251697        0.23548500488738
C           -0.71035978648572       -1.19112040158436       -0.01441378777669
C            2.21706503176769        0.74603413314820        0.67816919253637
C            1.51190517451951        1.58459068717373        1.56513659936361
N            0.93829520489255        2.25497937587795        2.30118974198807
C            3.59621282053475        0.73680184855395        0.70231084410213
N            6.44061535219876       -0.99437761986287       -0.89461495908067
C            7.73628055207342       -0.97393346948760       -0.83883880625250
C            8.53384817138996       -1.92235592106853       -1.70476407529364
C            9.43867814311562       -1.08423336318462       -2.61343968785203
C            7.60277330612883       -2.79477322850230       -2.54328589983959
C            9.39105313408861       -2.79405448801805       -0.78152339341956
N            8.44229703528440       -0.14923442283506       -0.04977816812911
H            8.78082932399016        3.09236762832571        0.04364566237545
H            9.98953197704397        3.15013425802145        1.33223908586800
H           10.03805424705964        1.85446098417060        0.12600305607459
H            8.09345398388581        3.17820045741657        3.05040359013098
H            6.87887220732472        1.89204580008889        3.03174605619169
H            6.90390391890477        3.09259126899518        1.74369358522782
H           10.00228893322615        0.13085399305605        1.97596745848647
H            8.71833379234920        0.15891767539196        3.18868844727111
H            9.95181336526761        1.42510094761475        3.18366162354054
H            4.16808365742866       -1.68053136444212       -1.61518304787288
H            1.69521229878937       -1.64961713456412       -1.68004021501859
H            0.72607706082773        2.58486320806675       -0.83407352566355
H           -1.04292827693723        4.28155798437670       -1.01789400892105
H           -2.19156977248618        4.45717548977964        1.48100242028827
H           -1.70240959673138        6.68580874271440        2.38569406023878
H           -2.58418510910049        8.70535703786295        1.26737249033129
H           -3.95205949666298        8.47244257503537       -0.77529624044596
H           -4.42956595379209        6.24373763468610       -1.69649327633610
H           -4.08724679641159        2.38597943986139       -2.78444790566653
H           -6.28534882711242        1.90681858505162       -3.77677754476487
H           -8.32595625360663        2.92195189532765       -2.82568913192702
H           -8.14959352505686        4.41270733220967       -0.86476481132493
H           -5.95627778906258        4.87756233049934        0.14306735459854
H           -4.07128805004857        1.34501876312461       -0.25339383057433
H           -4.11879945427610       -1.38207754368314        0.08737554215556
H           -4.56446680203413       -6.21425378888562        1.71324459664323
H           -4.29332016621331       -8.48913045276534        0.82158010576555
H           -3.16521781074601       -8.84845507014937       -1.34555015326448
H           -2.31775050899990       -6.90969821926735       -2.61878069660974
H           -2.60428584125229       -4.63114632193966       -1.73931018573580
H           -3.92407275961062       -2.36517936428890        2.64605092191969
H           -5.97848916392369       -1.75189733813231        3.84706380921504
H           -8.15651987753142       -2.67609488756626        3.13781147043807
H           -8.26161598526022       -4.21289239212762        1.20744409830339
H           -6.21193747583453       -4.81262624673469       -0.00949789295118
H           -1.17786179321946       -4.45229201935099        0.63089522695878
H            0.64861863090083       -2.83273330569547        0.30224728360167
H            4.13452206918519        1.39364569252863        1.36868013940984
H           10.06317197376651       -1.73506234410906       -3.22175706556432
H           10.07658786521290       -0.44186284707932       -2.01201912520755
H            8.84054624645491       -0.45916171204447       -3.27341977926814
H            8.18660794150831       -3.47354050078287       -3.16139755458578
H            6.94891471254786       -3.37840966000220       -1.90030604907765
H            6.98263596966372       -2.17696583126746       -3.18771645112546
H            8.75883213816302       -3.39373471835995       -0.12978646332925
H           10.01540548924765       -3.46168426106642       -1.37148572605458
H           10.02821922076313       -2.16631987947666       -0.16406257348017

 projected vibrational frequencies (cm⁻¹)
eigval :       -0.00    -0.00    -0.00    -0.00     0.00     0.00
eigval :        9.90    10.77    11.03    13.10    13.99    15.42
eigval :       20.14    22.61    33.46    36.63    41.04    48.94
eigval :       49.89    51.49    59.45    60.52    62.62    72.76
eigval :       78.81    81.94    84.19    85.41   103.16   112.78
eigval :      121.86   129.58   141.54   143.34   147.01   157.58
eigval :      167.78   182.94   185.87   196.04   205.44   217.60
eigval :      226.43   230.49   233.84   235.91   236.11   237.17
eigval :      241.41   245.25   252.79   253.78   262.16   264.83
eigval :      273.63   290.97   305.45   310.42   313.32   316.34
eigval :      326.02   339.96   345.33   347.40   368.45   372.70
eigval :      374.47   377.37   377.78   381.61   382.95   383.62
eigval :      389.49   402.61   408.95   414.47   425.87   427.79
eigval :      432.80   446.32   454.06   470.61   483.64   489.70
eigval :      496.14   500.22   506.38   522.68   538.55   542.52
eigval :      550.47   553.01   571.05   575.20   585.62   586.97
eigval :      588.99   589.67   595.17   605.96   608.23   616.58
eigval :      627.58   628.40   647.34   649.18   651.32   659.70
eigval :      660.52   664.60   668.99   677.35   701.47   705.77
eigval :      718.16   719.60   722.03   756.86   757.31   757.83
eigval :      760.51   777.10   801.96   802.62   821.45   823.45
eigval :      859.77   860.57   866.94   869.22   873.23   873.55
eigval :      875.31   876.20   878.96   893.60   894.27   895.84
eigval :      897.29   902.36   905.46   909.81   910.21   913.01
eigval :      915.54   918.98   927.51   927.53   928.52   928.61
eigval :      929.26   929.54   929.80   930.30   931.20   946.40
eigval :      964.87   965.48   965.95   966.00   966.51   967.04
eigval :      969.69   989.09   992.95  1002.76  1004.11  1010.06
eigval :     1030.09  1030.36  1032.57  1035.36  1037.65  1071.60
eigval :     1082.06  1082.94  1083.20  1083.46  1104.62  1121.89
eigval :     1122.13  1123.96  1124.38  1138.94  1149.71  1168.01
eigval :     1174.88  1179.43  1179.80  1180.10  1180.18  1180.26
eigval :     1180.46  1192.24  1193.90  1194.22  1198.03  1201.15
eigval :     1206.30  1208.67  1218.26  1228.10  1229.30  1230.24
eigval :     1239.59  1246.06  1248.00  1250.48  1273.30  1274.65
eigval :     1276.64  1277.57  1280.20  1285.27  1303.07  1311.97
eigval :     1315.53  1318.04  1319.01  1319.60  1321.32  1326.56
eigval :     1326.94  1337.85  1346.46  1357.30  1359.42  1385.23
eigval :     1391.89  1393.16  1397.35  1399.24  1408.30  1418.09
eigval :     1420.85  1424.72  1433.51  1434.11  1437.03  1442.37
eigval :     1443.54  1449.15  1451.36  1457.95  1465.72  1467.21
eigval :     1467.53  1469.88  1476.98  1478.15  1479.44  1486.52
eigval :     1490.22  1490.50  1492.34  1492.63  1493.27  1494.83
eigval :     1496.25  1497.66  1511.28  1512.91  1542.43  1548.50
eigval :     1560.13  1571.50  1572.92  1574.03  1575.89  1577.30
eigval :     1578.37  1587.89  1589.53  1591.54  1594.31  1597.98
eigval :     2348.41  3021.49  3022.21  3024.21  3024.94  3028.43
eigval :     3028.47  3028.77  3029.33  3031.52  3032.19  3040.83
eigval :     3041.22  3043.99  3045.38  3046.30  3047.64  3048.03
eigval :     3049.10  3070.97  3077.89  3078.63  3079.13  3079.52
eigval :     3080.16  3080.46  3081.08  3085.10  3088.25  3088.71
eigval :     3089.14  3089.36  3090.40  3091.23  3091.92  3092.28
eigval :     3092.65  3093.14  3094.36  3095.80  3096.70  3099.90
eigval :     3100.13  3100.48  3102.06  3102.39  3104.47  3107.41

   temp. (K)  partition function   enthalpy   heat capacity  entropy
                                   cal/mol     cal/K/mol   cal/K/mol   J/K/mol
 298.15  VIB  0.360E+28            33093.255    198.385    209.887
         ROT  0.233E+09              888.752      2.981     41.269
         INT  0.840E+36            33982.008    201.366    251.156
         TR   0.216E+29             1481.254      4.968     45.873
         TOT                       35463.2616   206.3344   297.0294  1242.7710

       T/K    H(0)-H(T)+PV         H(T)/Eh          T*S/Eh         G(T)/Eh
   ------------------------------------------------------------------------
    298.15    0.565143E-01    0.909464E+00    0.141128E+00    0.768336E+00
   ------------------------------------------------------------------------

         :::::::::::::::::::::::::::::::::::::::::::::::::::::
         ::                  THERMODYNAMIC                  ::
         :::::::::::::::::::::::::::::::::::::::::::::::::::::
         :: total free energy        -159.304326790260 Eh   ::
         ::.................................................::
         :: total energy             -160.072662663331 Eh   ::
         :: zero point energy           0.852949817656 Eh   ::
         :: G(RRHO) w/o ZPVE           -0.084613944585 Eh   ::
         :: G(RRHO) contrib.            0.768335873071 Eh   ::
         :::::::::::::::::::::::::::::::::::::::::::::::::::::

           -------------------------------------------------
          | TOTAL ENERGY             -160.072662663331 Eh   |
          | TOTAL ENTHALPY           -159.163198541056 Eh   |
          | TOTAL FREE ENERGY        -159.304326790260 Eh   |
          | GRADIENT NORM               0.000127699983 Eh/α |
           -------------------------------------------------

 * finished run on 2025/08/25 at 18:35:05.617
