   * xtb version 6.7.1 (edcfbbe) compiled by 'albert@albert-system' on 2024-07-22

   ID    Z sym.   atoms
    1    6 C      1-5, 7-11, 13-16, 18-34, 36-52, 54, 56-60
    2    7 N      6, 12, 17, 35, 53, 55, 61
    3    1 H      62-108

          program call               : xtb data2507/gas/DTPTCzDP-CN/DTPTCzDP-CN.xyz --gfn 2 --ohess vtight --parallel 40 --molden --ceasefiles --namespace data2507/gas/DTPTCzDP-CN/DTPTCzDP-CN_gas_S0_preOpt
          :  Hamiltonian                  GFN2-xTB          :
 * total energy  :  -160.1044320 Eh     change       -0.5101441E-08 Eh
 * total energy  :  -160.1233587 Eh     change       -0.1892672E-01 Eh
 * total energy  :  -160.1308941 Eh     change       -0.7535368E-02 Eh
 * total energy  :  -160.1317987 Eh     change       -0.9046484E-03 Eh
 * total energy  :  -160.1353638 Eh     change       -0.3565063E-02 Eh
 * total energy  :  -160.1366292 Eh     change       -0.1265418E-02 Eh
 * total energy  :  -160.1374350 Eh     change       -0.8057628E-03 Eh
 * total energy  :  -160.1378066 Eh     change       -0.3716645E-03 Eh
 * total energy  :  -160.1380052 Eh     change       -0.1986036E-03 Eh
 * total energy  :  -160.1381792 Eh     change       -0.1739641E-03 Eh
 * total energy  :  -160.1392009 Eh     change       -0.1845973E-06 Eh
 * total energy  :  -160.1392011 Eh     change       -0.1823823E-06 Eh
 * total energy  :  -160.1392013 Eh     change       -0.1804336E-06 Eh
 * total energy  :  -160.1392015 Eh     change       -0.1730872E-06 Eh
 * total energy  :  -160.1392017 Eh     change       -0.2203247E-06 Eh
 * total energy  :  -160.1392020 Eh     change       -0.3179377E-06 Eh
 * total energy  :  -160.1392025 Eh     change       -0.4955726E-06 Eh
 * total energy  :  -160.1392032 Eh     change       -0.6893673E-06 Eh
 * total energy  :  -160.1392032 Eh     change       -0.6311950E-08 Eh
   *** GEOMETRY OPTIMIZATION CONVERGED AFTER 122 ITERATIONS ***

 final structure:
================
108
 xtb: 6.7.1 (edcfbbe)
C            8.86040264842815        2.70470836292045        0.61049209017101
C            7.97937543661193        1.87211780062436        1.54902685795491
C            7.02133719465915        2.77575289502328        2.32082278734322
C            8.86614197847871        1.08172162317595        2.51817172185263
C            7.21914376862095        0.88064133992843        0.70823306855248
N            5.89837420209629        0.90146287127398        0.73001230962454
C            5.29031176976510       -0.00670957362916       -0.03148911902776
C            3.82875545159959       -0.02246727460943       -0.03540250071175
C            3.13261946819220       -0.94965671341637       -0.81425880544976
C            1.75539790242343       -0.95865866538243       -0.82670524949306
C            1.02948345262312       -0.04406413275001       -0.06247182593340
N           -0.35822020297326       -0.04895137311733       -0.09069964132582
C           -1.17397307520314        1.06052818710915       -0.25569920395844
C           -0.83785945038366        2.37134665453656       -0.55862523128806
C           -1.85930197255410        3.28439629256098       -0.70918932144317
C           -3.20580333139243        2.91828721957742       -0.56464719496686
N           -4.20384268132582        3.89130961444715       -0.69601479802240
C           -3.99244564976933        5.17579560431435       -0.18109488843454
C           -3.27310399048790        5.35579959821238        1.00044174849575
C           -3.06189657067547        6.62658191897242        1.49854100835301
C           -3.56772935908422        7.73407343884088        0.83765757546159
C           -4.28455461469002        7.56035479200417       -0.33490388595952
C           -4.49339789710642        6.29449625676383       -0.84664487066246
C           -5.41502556295944        3.57239963603975       -1.31763680037616
C           -5.44143168579942        2.71262274752239       -2.41613343887955
C           -6.63972605262313        2.39739710342248       -3.02599331765120
C           -7.82802068476231        2.93656838085216       -2.56090210663391
C           -7.80772715660911        3.79338114884056       -1.47255065448975
C           -6.61549794911505        4.10775383837540       -0.85027730435997
C           -3.54232805423432        1.59334595233957       -0.30913136365996
C           -2.52515213426130        0.66337252769723       -0.17218359371728
C           -2.52286587231475       -0.75680950618225        0.05328213786428
C           -3.53676388587688       -1.68458822185256        0.22384518314553
C           -3.19692982574316       -3.01299089353780        0.45746317213280
N           -4.19639208675802       -3.97730216339993        0.64134988521457
C           -4.03055925059064       -5.26185956489572        0.11524811842353
C           -4.49597854259700       -6.37849989048414        0.81013803101436
C           -4.33098864971306       -7.64477627366865        0.28434007552090
C           -3.69420212208559       -7.82288692754940       -0.93308089599024
C           -3.22504436158824       -6.71832842771366       -1.62493177891066
C           -3.39281806004345       -5.44717999571354       -1.11171319185263
C           -5.35941192015574       -3.64989198473654        1.34741374769168
C           -5.30233274776531       -2.79555100649682        2.44852821750305
C           -6.45388365770760       -2.47171828862171        3.13883920009737
C           -7.67603573939021       -2.99703263627978        2.75230648265527
C           -7.73805571982285       -3.84831826334033        1.66129365192443
C           -6.59346712589744       -4.17094036639733        0.95871736745138
C           -1.84775962717568       -3.38948798713637        0.52807352203645
C           -0.82867394111028       -2.47794849725149        0.34502698877113
C           -1.16969163232446       -1.15848879490922        0.08839906000850
C            1.73120583889587        0.87782450875607        0.74048065521107
C            1.04428728224825        1.75454915731265        1.61222645263852
N            0.51617166949686        2.44775778613805        2.35742281842760
C            3.12145105181354        0.88601146743018        0.74249432659326
N            5.92741574258320       -0.89422791538084       -0.78485867001833
C            7.25399981804393       -0.83627928939766       -0.74928970269564
C            8.00599650913419       -1.82494012026705       -1.60220701786058
C            9.51257736813279       -1.63828201991267       -1.44430991981349
C            7.59162445734628       -1.59672217693404       -3.06065930997412
C            7.59533287151603       -3.23547531050557       -1.16430068210485
N            7.93639840440309        0.02897816837891       -0.01911779139695
H            8.24534818260879        3.27400926450799       -0.08362034965368
H            9.46537099025623        3.39934536858263        1.18835992203728
H            9.51655084830518        2.05199854674706        0.04071787747791
H            7.58516883015227        3.48494195615103        2.92220483586309
H            6.38678604271622        2.18536422280661        2.97649206959631
H            6.38235326477533        3.32609025083682        1.63531861997262
H            9.52192555468946        0.41620156884789        1.96295848307109
H            8.25515437390202        0.48649394974093        3.19387935518754
H            9.47159105262199        1.76519188163857        3.10872347454589
H            3.69641454466536       -1.64684792476254       -1.41355299432820
H            1.21871303101541       -1.65734773287646       -1.45061264599764
H            0.18781560884282        2.67939480750284       -0.69210808227777
H           -1.62337000933474        4.31062756308265       -0.94647176603951
H           -2.88222637483496        4.49541526849529        1.52312993059232
H           -2.50401897385362        6.75073702813794        2.41480910664914
H           -3.40394556340744        8.72531871703414        1.23252401780637
H           -4.67720854378320        8.41804305463677       -0.86143255180739
H           -5.04321717235663        6.16304017892458       -1.76729307454435
H           -4.51548878732535        2.29850409806929       -2.78788158360280
H           -6.64439626001881        1.73209630676046       -3.87711284057221
H           -8.76223111053269        2.69076674404870       -3.04258771499721
H           -8.72963607308350        4.21422151811277       -1.09863040191390
H           -6.60474811153357        4.76761361110876        0.00477961243093
H           -4.57596163297128        1.29589492864143       -0.22172457028275
H           -4.57191057587531       -1.38236268967391        0.18409897664219
H           -4.98340794960755       -6.24405436693572        1.76466896646133
H           -4.69489535411525       -8.50028241909390        0.83429146881448
H           -3.56474650481835       -8.81453752898554       -1.33924656057620
H           -2.73209272364890       -6.84658569349239       -2.57760914575990
H           -3.03570003573132       -4.58678312885579       -1.65871460821215
H           -4.34987204859168       -2.39150744656505        2.75894860165852
H           -6.39432234135888       -1.81039107760927        3.99073498875118
H           -8.57320459048163       -2.74455350152486        3.29675959498952
H           -8.68714751650062       -4.25828808411519        1.34830530599944
H           -6.64701359307485       -4.82651297154977        0.10180200667393
H           -1.60729064576412       -4.42081512116986        0.73863397402875
H            0.20134679372756       -2.79019268087044        0.42559232514854
H            3.66228318767612        1.58955646311593        1.35665251837694
H           10.04210748940134       -2.35676457321566       -2.06563556120014
H            9.80663237976195       -1.78408721850064       -0.40844586038472
H            9.80375548577629       -0.63419019133297       -1.74045958454950
H            8.07722923419678       -2.32719221824834       -3.70349167073652
H            6.51408084603171       -1.69539888061076       -3.16309522860747
H            7.88169636544786       -0.59989524168655       -3.38668406062595
H            6.51767165330021       -3.35243091570463       -1.24278532857690
H            8.07939920987934       -3.97634058232659       -1.79630812266379
H            7.88974808048134       -3.41380874574261       -0.13204290996822

          :  Hamiltonian                  GFN2-xTB          :
         :: gradient norm              0.000049084432 Eh/a0 ::
         :: HOMO-LUMO gap              1.303382937838 eV    ::
         :: SCC energy              -163.002916071388 Eh    ::
         :: -> dispersion             -0.145902459010 Eh    ::
         :: repulsion energy           2.863712859509 Eh    ::

    * Orbital Energies and Occupations

         #    Occupation            Energy/Eh            Energy/eV
      -------------------------------------------------------------
         1        2.0000           -0.6883864             -18.7319
       ...           ...                  ...                  ...
       137        2.0000           -0.4099653             -11.1557
       138        2.0000           -0.4060568             -11.0494
       139        2.0000           -0.4045330             -11.0079
       140        2.0000           -0.4029241             -10.9641
       141        2.0000           -0.4026868             -10.9577
       142        2.0000           -0.4012482             -10.9185
       143        2.0000           -0.3990439             -10.8585
       144        2.0000           -0.3866421             -10.5211
       145        2.0000           -0.3818138             -10.3897
       146        2.0000           -0.3739474             -10.1756
       147        2.0000           -0.3735951             -10.1660
       148        2.0000           -0.3481104              -9.4726
       149        2.0000           -0.3408235              -9.2743 (HOMO)
       150                         -0.2929250              -7.9709 (LUMO)
       151                         -0.2743069              -7.4643
       152                         -0.2633264              -7.1655
       153                         -0.2515837              -6.8459
       154                         -0.2329011              -6.3376
       155                         -0.2318883              -6.3100
       156                         -0.2287214              -6.2238
       157                         -0.2254629              -6.1352
       158                         -0.2237466              -6.0885
       159                         -0.2206343              -6.0038
       160                         -0.2198060              -5.9812
       ...                                ...                  ...
       291                          1.1654190              31.7127
      -------------------------------------------------------------
                  HL-Gap            0.0478985 Eh            1.3034 eV

     #   Z          covCN         q      C6AA      α(0)
     1   6 C        3.763    -0.106    22.569     6.772
     2   6 C        3.908     0.021    20.164     6.383
     3   6 C        3.760    -0.110    22.656     6.786
     4   6 C        3.763    -0.106    22.569     6.772
     5   6 C        2.997     0.208    23.603     7.969
     6   7 N        1.842    -0.292    28.427     7.902
     7   6 C        2.994     0.199    23.760     7.996
     8   6 C        2.982    -0.002    28.081     8.692
     9   6 C        2.921    -0.020    28.513     8.757
    10   6 C        2.920    -0.042    29.053     8.839
    11   6 C        2.915     0.075    26.316     8.412
    12   7 N        2.800    -0.040    22.006     6.967
    13   6 C        3.070     0.041    27.011     8.522
    14   6 C        2.909    -0.044    29.084     8.843
    15   6 C        2.928    -0.046    29.152     8.855
    16   6 C        2.925     0.060    26.660     8.467
    17   7 N        2.753    -0.075    22.691     7.075
    18   6 C        2.924     0.064    26.565     8.452
    19   6 C        2.922    -0.048    29.184     8.859
    20   6 C        2.920    -0.029    28.715     8.788
    21   6 C        2.919    -0.039    28.967     8.826
    22   6 C        2.919    -0.030    28.750     8.793
    23   6 C        2.922    -0.049    29.206     8.862
    24   6 C        2.923     0.065    26.543     8.449
    25   6 C        2.923    -0.049    29.208     8.863
    26   6 C        2.919    -0.030    28.742     8.791
    27   6 C        2.919    -0.039    28.977     8.827
    28   6 C        2.919    -0.029    28.735     8.790
    29   6 C        2.922    -0.048    29.188     8.860
    30   6 C        2.916    -0.051    29.260     8.870
    31   6 C        3.065    -0.013    28.267     8.718
    32   6 C        3.066    -0.012    28.258     8.717
    33   6 C        2.916    -0.051    29.261     8.870
    34   6 C        2.924     0.058    26.700     8.474
    35   7 N        2.753    -0.076    22.711     7.078
    36   6 C        2.924     0.065    26.545     8.449
    37   6 C        2.922    -0.048    29.195     8.861
    38   6 C        2.920    -0.029    28.734     8.790
    39   6 C        2.919    -0.039    28.975     8.827
    40   6 C        2.919    -0.030    28.743     8.792
    41   6 C        2.923    -0.049    29.210     8.863
    42   6 C        2.924     0.065    26.553     8.450
    43   6 C        2.922    -0.048    29.191     8.860
    44   6 C        2.920    -0.029    28.726     8.789
    45   6 C        2.919    -0.039    28.960     8.825
    46   6 C        2.920    -0.029    28.735     8.791
    47   6 C        2.922    -0.048    29.194     8.861
    48   6 C        2.927    -0.049    29.228     8.866
    49   6 C        2.909    -0.050    29.240     8.867
    50   6 C        3.069     0.040    27.044     8.527
    51   6 C        2.972     0.004    27.924     8.668
    52   6 C        1.912     0.117    28.219     8.579
    53   7 N        0.911    -0.234    26.118     7.391
    54   6 C        2.933    -0.018    28.451     8.748
    55   7 N        1.843    -0.295    28.492     7.911
    56   6 C        2.996     0.207    23.620     7.972
    57   6 C        3.908     0.021    20.167     6.383
    58   6 C        3.760    -0.110    22.660     6.786
    59   6 C        3.763    -0.105    22.553     6.769
    60   6 C        3.763    -0.105    22.559     6.770
    61   7 N        1.840    -0.288    28.327     7.888
    62   1 H        0.925     0.035     2.512     2.479
    63   1 H        0.925     0.045     2.387     2.416
    64   1 H        0.925     0.052     2.298     2.370
    65   1 H        0.925     0.041     2.435     2.440
    66   1 H        0.925     0.046     2.374     2.409
    67   1 H        0.925     0.046     2.376     2.410
    68   1 H        0.925     0.052     2.298     2.370
    69   1 H        0.925     0.035     2.511     2.478
    70   1 H        0.925     0.045     2.386     2.416
    71   1 H        0.926     0.066     2.132     2.283
    72   1 H        0.926     0.051     2.306     2.375
    73   1 H        0.926     0.029     2.600     2.522
    74   1 H        0.926     0.040     2.451     2.448
    75   1 H        0.926     0.037     2.483     2.464
    76   1 H        0.926     0.035     2.522     2.484
    77   1 H        0.926     0.029     2.597     2.520
    78   1 H        0.926     0.030     2.591     2.517
    79   1 H        0.926     0.030     2.586     2.515
    80   1 H        0.926     0.029     2.596     2.520
    81   1 H        0.926     0.030     2.589     2.516
    82   1 H        0.926     0.029     2.601     2.522
    83   1 H        0.926     0.031     2.575     2.509
    84   1 H        0.926     0.032     2.552     2.498
    85   1 H        0.926     0.039     2.465     2.455
    86   1 H        0.926     0.039     2.466     2.456
    87   1 H        0.926     0.032     2.561     2.502
    88   1 H        0.926     0.031     2.572     2.508
    89   1 H        0.926     0.029     2.596     2.519
    90   1 H        0.926     0.030     2.585     2.514
    91   1 H        0.926     0.029     2.594     2.518
    92   1 H        0.926     0.031     2.567     2.506
    93   1 H        0.926     0.032     2.557     2.501
    94   1 H        0.926     0.030     2.587     2.515
    95   1 H        0.926     0.031     2.573     2.508
    96   1 H        0.926     0.031     2.569     2.506
    97   1 H        0.926     0.037     2.494     2.469
    98   1 H        0.926     0.032     2.563     2.504
    99   1 H        0.926     0.071     2.070     2.250
   100   1 H        0.925     0.040     2.447     2.446
   101   1 H        0.925     0.046     2.369     2.407
   102   1 H        0.925     0.046     2.366     2.405
   103   1 H        0.925     0.044     2.391     2.418
   104   1 H        0.925     0.049     2.334     2.389
   105   1 H        0.925     0.036     2.504     2.475
   106   1 H        0.925     0.049     2.329     2.387
   107   1 H        0.925     0.044     2.393     2.419
   108   1 H        0.925     0.036     2.503     2.474

molecular dipole:
                 x           y           z       tot (Debye)
 q only:        0.491      -0.619      -0.672
   full:        0.813      -0.902      -0.946       3.913

 projected vibrational frequencies (cm⁻¹)
eigval :       -0.00    -0.00    -0.00     0.00     0.00     0.00
eigval :        8.06     9.83    11.53    12.95    13.63    13.79
eigval :       17.57    22.21    31.80    36.51    40.48    48.60
eigval :       50.67    52.40    58.85    60.03    63.08    74.12
eigval :       82.47    82.98    85.18    91.74   104.81   107.83
eigval :      113.22   122.27   135.95   145.00   146.53   156.57
eigval :      169.94   180.29   185.26   194.56   209.68   217.50
eigval :      224.07   224.56   229.91   233.56   236.15   238.88
eigval :      245.89   249.17   252.47   254.06   262.39   264.07
eigval :      274.85   295.10   309.48   313.95   318.21   322.61
eigval :      330.16   343.44   347.41   355.43   361.49   370.70
eigval :      374.96   378.09   378.64   383.60   384.39   390.31
eigval :      394.88   404.01   409.19   418.51   428.68   436.05
eigval :      452.52   456.39   466.06   476.34   488.77   490.38
eigval :      503.12   509.99   544.07   545.74   551.29   555.69
eigval :      558.35   568.06   570.20   576.17   586.42   587.68
eigval :      589.39   590.24   596.70   606.91   622.63   630.89
eigval :      632.22   654.86   659.14   660.87   664.04   670.24
eigval :      674.15   675.95   680.02   697.88   700.84   713.08
eigval :      723.16   756.40   756.79   757.96   760.50   763.34
eigval :      797.81   802.87   817.17   819.29   820.46   846.15
eigval :      866.11   871.26   872.93   874.22   874.83   876.62
eigval :      877.47   881.16   890.75   891.33   893.26   894.03
eigval :      894.32   908.41   909.98   910.60   910.72   919.94
eigval :      927.05   927.08   927.93   928.06   928.68   929.71
eigval :      929.91   929.96   933.12   947.44   948.90   961.83
eigval :      965.97   966.45   966.79   967.29   967.59   968.58
eigval :      971.38   990.26  1004.13  1004.91  1013.46  1029.44
eigval :     1031.73  1036.57  1037.21  1038.20  1057.64  1083.25
eigval :     1083.35  1084.29  1084.37  1094.61  1121.36  1122.20
eigval :     1122.74  1124.43  1124.78  1143.59  1157.38  1170.51
eigval :     1180.61  1180.73  1180.84  1180.86  1183.06  1185.03
eigval :     1195.71  1195.99  1196.04  1199.98  1201.03  1210.10
eigval :     1217.09  1226.35  1228.40  1229.61  1230.80  1241.08
eigval :     1244.22  1253.65  1259.31  1261.62  1274.44  1278.46
eigval :     1279.23  1283.95  1286.87  1312.82  1318.31  1319.69
eigval :     1322.54  1322.91  1327.53  1327.76  1328.00  1331.50
eigval :     1347.10  1354.39  1363.44  1374.89  1380.83  1392.48
eigval :     1393.51  1395.97  1400.74  1401.07  1413.40  1420.41
eigval :     1422.81  1423.48  1431.70  1435.27  1436.21  1443.83
eigval :     1444.79  1468.37  1472.05  1472.28  1474.99  1477.53
eigval :     1478.12  1478.14  1479.34  1489.06  1490.03  1490.66
eigval :     1491.10  1492.03  1493.00  1493.80  1496.64  1497.94
eigval :     1511.60  1512.23  1525.29  1533.20  1549.69  1563.83
eigval :     1572.96  1576.76  1577.90  1579.07  1580.96  1581.05
eigval :     1595.13  1595.43  1598.06  1600.14  1601.89  1614.53
eigval :     2368.73  3025.61  3025.99  3029.22  3029.88  3030.95
eigval :     3031.77  3031.99  3032.32  3037.83  3038.92  3044.08
eigval :     3044.89  3045.97  3046.74  3048.78  3049.61  3051.25
eigval :     3052.69  3074.13  3074.37  3074.48  3075.61  3076.38
eigval :     3076.61  3077.33  3079.87  3084.99  3085.48  3085.78
eigval :     3085.93  3086.36  3086.61  3088.70  3089.28  3089.74
eigval :     3091.45  3094.25  3096.14  3096.74  3096.99  3097.54
eigval :     3097.81  3098.02  3099.38  3100.46  3107.11  3112.03

   temp. (K)  partition function   enthalpy   heat capacity  entropy
                                   cal/mol     cal/K/mol   cal/K/mol   J/K/mol
 298.15  VIB  0.526E+28            32859.446    196.576    209.228
         ROT  0.233E+09              888.752      2.981     41.264
         INT  0.122E+37            33748.198    199.557    250.493
         TR   0.216E+29             1481.254      4.968     45.873
         TOT                       35229.4520   204.5251   296.3659  1239.9948

       T/K    H(0)-H(T)+PV         H(T)/Eh          T*S/Eh         G(T)/Eh
   ------------------------------------------------------------------------
    298.15    0.561417E-01    0.912784E+00    0.140813E+00    0.771971E+00
   ------------------------------------------------------------------------

         :::::::::::::::::::::::::::::::::::::::::::::::::::::
         ::                  THERMODYNAMIC                  ::
         :::::::::::::::::::::::::::::::::::::::::::::::::::::
         :: total free energy        -159.367232423881 Eh   ::
         ::.................................................::
         :: total energy             -160.139203211868 Eh   ::
         :: zero point energy           0.856642067511 Eh   ::
         :: G(RRHO) w/o ZPVE           -0.084671279525 Eh   ::
         :: G(RRHO) contrib.            0.771970787987 Eh   ::
         :::::::::::::::::::::::::::::::::::::::::::::::::::::

           -------------------------------------------------
          | TOTAL ENERGY             -160.139203211868 Eh   |
          | TOTAL ENTHALPY           -159.226419439076 Eh   |
          | TOTAL FREE ENERGY        -159.367232423881 Eh   |
          | GRADIENT NORM               0.000049068791 Eh/α |
          | HOMO-LUMO GAP               1.303383917099 eV   |
           -------------------------------------------------

 * finished run on 2025/08/25 at 18:13:05.028
