   * xtb version 6.7.1 (edcfbbe) compiled by 'albert@albert-system' on 2024-07-22

   ID    Z sym.   atoms
    1    8 O      1, 10, 17
    2    6 C      2-9, 11, 13-16, 18-23, 25
    3    7 N      12, 24
    4    1 H      26-35

          program call               : xtb data2507/gas/HDP/HDP.xyz --gfn 2 --ohess vtight --parallel 40 --molden --ceasefiles --namespace data2507/gas/HDP/HDP_gas_S0_preOpt
          :  Hamiltonian                  GFN2-xTB          :
 * total energy  :   -65.9469532 Eh     change       -0.1743146E-08 Eh
 * total energy  :   -65.9566360 Eh     change       -0.9682787E-02 Eh
 * total energy  :   -65.9591015 Eh     change       -0.2465558E-02 Eh
 * total energy  :   -65.9593843 Eh     change       -0.2827520E-03 Eh
 * total energy  :   -65.9595710 Eh     change       -0.1867015E-03 Eh
 * total energy  :   -65.9596480 Eh     change       -0.7707037E-04 Eh
 * total energy  :   -65.9597272 Eh     change       -0.7917120E-04 Eh
 * total energy  :   -65.9597666 Eh     change       -0.3942026E-04 Eh
 * total energy  :   -65.9597813 Eh     change       -0.1461625E-04 Eh
 * total energy  :   -65.9597926 Eh     change       -0.1130509E-04 Eh
 * total energy  :   -65.9598053 Eh     change       -0.6077906E-06 Eh
 * total energy  :   -65.9598051 Eh     change        0.1415889E-06 Eh
 * total energy  :   -65.9598055 Eh     change       -0.4288031E-06 Eh
 * total energy  :   -65.9598055 Eh     change        0.8124159E-07 Eh
 * total energy  :   -65.9598057 Eh     change       -0.2632970E-06 Eh
 * total energy  :   -65.9598057 Eh     change        0.3044448E-08 Eh
 * total energy  :   -65.9598059 Eh     change       -0.1818700E-06 Eh
 * total energy  :   -65.9598061 Eh     change       -0.1596166E-06 Eh
 * total energy  :   -65.9598061 Eh     change       -0.2303054E-08 Eh
   *** GEOMETRY OPTIMIZATION CONVERGED AFTER 22 ITERATIONS ***

 final structure:
================
35
 xtb: 6.7.1 (edcfbbe)
O           -2.72296891573409       -2.82303143823426       -0.02869502513371
C           -2.52396692182191       -1.62840652604216       -0.01515790542187
C           -3.62821341557880       -0.64068788744134       -0.00737144632610
C           -4.93685625812066       -1.11905373087713       -0.01006494421457
C           -6.00901288193997       -0.24628110111503       -0.00181486966195
C           -5.78622245572966        1.12305890778654        0.00921442514542
C           -4.49264861954650        1.61100785022539        0.01121491118109
C           -3.40340331708259        0.74255156111288        0.00290681620808
C           -2.04219134645730        1.32712833329661        0.00410399230967
O           -1.84985395657328        2.52488379071827        0.00888614824721
C           -0.92951114191937        0.34601712824183       -0.00057721763284
N            0.29793363104175        0.83909191547933       -0.00007916010451
C            1.32045995346992       -0.00942374811757        0.00022988463578
C            1.09949083697914       -1.41656287251459        0.00442892109778
C            2.19775714550170       -2.30241932023422        0.01321222061385
C            3.47966525376301       -1.82919529691974        0.01459476344368
O            4.47929032907306       -2.73425280841826        0.02471000944868
C            3.74890467194738       -0.41115309335046        0.00462818709974
C            5.05049660382288        0.11749262317766        0.00077959589809
C            5.26333940608916        1.47561862853138       -0.00943406901734
C            4.18596672791679        2.36141165538644       -0.01558167315756
C            2.90161726805837        1.87551525469016       -0.01181676588843
C            2.66406484080545        0.49532216058882       -0.00222347628648
N           -0.14654292871120       -1.90417086628381       -0.00080615568008
C           -1.15124480997785       -1.05084236634826       -0.00501398918076
H           -5.08644793002007       -2.18865690166002       -0.01857750499964
H           -7.01776476721179       -0.63124380275795       -0.00385153366945
H           -6.62095752035506        1.80789759677395        0.01603467291888
H           -4.29531407572127        2.67285765405933        0.01918260731624
H            2.01092982901503       -3.36346298116910        0.01878318000917
H            5.34214875201811       -2.30160461171073        0.02569390182805
H            5.91478921513781       -0.53501365408831        0.00505137275211
H            6.27301389852566        1.85859730672376       -0.01273726829782
H            4.36752111956222        3.42520492853868       -0.02346626367125
H            2.04573077977394        2.53180771195203       -0.01638634180910

          :  Hamiltonian                  GFN2-xTB          :
         :: gradient norm              0.000036972122 Eh/a0 ::
         :: HOMO-LUMO gap              0.886607096809 eV    ::
         :: SCC energy               -66.980887461110 Eh    ::
         :: -> dispersion             -0.045199124299 Eh    ::
         :: repulsion energy           1.021081398440 Eh    ::

    * Orbital Energies and Occupations

         #    Occupation            Energy/Eh            Energy/eV
      -------------------------------------------------------------
         1        2.0000           -0.7365869             -20.0436
       ...           ...                  ...                  ...
        47        2.0000           -0.4596547             -12.5078
        48        2.0000           -0.4490200             -12.2185
        49        2.0000           -0.4462244             -12.1424
        50        2.0000           -0.4451035             -12.1119
        51        2.0000           -0.4386829             -11.9372
        52        2.0000           -0.4325007             -11.7689
        53        2.0000           -0.4297904             -11.6952
        54        2.0000           -0.4222573             -11.4902
        55        2.0000           -0.4220624             -11.4849
        56        2.0000           -0.4146845             -11.2841
        57        2.0000           -0.3971530             -10.8071
        58        2.0000           -0.3957229             -10.7682
        59        2.0000           -0.3603487              -9.8056 (HOMO)
        60                         -0.3277665              -8.9190 (LUMO)
        61                         -0.3116045              -8.4792
        62                         -0.2760455              -7.5116
        63                         -0.2633919              -7.1673
        64                         -0.2463837              -6.7044
        65                         -0.2326067              -6.3296
        66                         -0.2028409              -5.5196
        67                         -0.1939247              -5.2770
        68                         -0.1697501              -4.6191
        69                         -0.1320538              -3.5934
        70                         -0.0854430              -2.3250
       ...                                ...                  ...
       110                          0.7366905              20.0464
      -------------------------------------------------------------
                  HL-Gap            0.0325822 Eh            0.8866 eV

     #   Z          covCN         q      C6AA      α(0)
     1   8 O        0.858    -0.325    20.242     6.032
     2   6 C        2.829     0.221    23.356     7.919
     3   6 C        2.973    -0.015    28.374     8.737
     4   6 C        2.924    -0.015    28.380     8.736
     5   6 C        2.917    -0.019    28.487     8.752
     6   6 C        2.917    -0.019    28.484     8.752
     7   6 C        2.924    -0.015    28.385     8.737
     8   6 C        2.974    -0.014    28.366     8.736
     9   6 C        2.830     0.220    23.378     7.923
    10   8 O        0.858    -0.335    20.431     6.060
    11   6 C        2.952     0.055    26.774     8.487
    12   7 N        1.849    -0.198    26.115     7.574
    13   6 C        2.967     0.077    26.284     8.409
    14   6 C        2.964     0.088    26.045     8.371
    15   6 C        2.914    -0.071    29.780     8.949
    16   6 C        2.838     0.151    24.727     8.149
    17   8 O        1.661    -0.368    20.232     6.072
    18   6 C        2.978    -0.014    28.352     8.734
    19   6 C        2.919    -0.032    28.792     8.799
    20   6 C        2.917    -0.024    28.606     8.771
    21   6 C        2.917    -0.023    28.583     8.767
    22   6 C        2.921    -0.022    28.551     8.762
    23   6 C        2.988     0.007    27.867     8.659
    24   7 N        1.850    -0.198    26.113     7.574
    25   6 C        2.950     0.061    26.625     8.463
    26   1 H        0.926     0.071     2.076     2.253
    27   1 H        0.926     0.050     2.315     2.379
    28   1 H        0.926     0.050     2.317     2.381
    29   1 H        0.926     0.070     2.081     2.256
    30   1 H        0.926     0.082     1.963     2.191
    31   1 H        0.805     0.311     0.688     1.303
    32   1 H        0.925     0.028     2.615     2.529
    33   1 H        0.926     0.042     2.420     2.432
    34   1 H        0.926     0.047     2.352     2.399
    35   1 H        0.926     0.076     2.016     2.220

molecular dipole:
                 x           y           z       tot (Debye)
 q only:        0.992       0.579       0.008
   full:        1.168       0.699       0.009       3.461

 projected vibrational frequencies (cm⁻¹)
eigval :       -0.00    -0.00    -0.00    -0.00     0.00     0.00
eigval :       15.99    25.18    61.71    95.88   100.31   100.62
eigval :      132.82   150.39   200.41   209.91   226.48   249.43
eigval :      270.67   318.55   322.72   360.92   361.30   380.28
eigval :      391.82   408.93   414.50   420.66   437.44   444.21
eigval :      474.38   488.91   524.31   550.25   555.07   599.68
eigval :      600.74   653.42   654.89   655.82   675.68   681.33
eigval :      706.44   712.02   751.33   752.44   774.93   783.30
eigval :      792.87   804.97   859.61   870.45   879.78   896.51
eigval :      919.69   930.81   933.13   934.23   967.30  1027.04
eigval :     1067.23  1085.82  1086.97  1096.12  1130.49  1150.32
eigval :     1159.49  1174.26  1188.47  1192.10  1220.10  1237.42
eigval :     1242.63  1247.99  1272.09  1291.14  1326.35  1334.66
eigval :     1339.21  1367.31  1393.91  1417.34  1419.40  1438.71
eigval :     1455.06  1470.00  1486.69  1504.45  1546.87  1572.55
eigval :     1574.41  1588.27  1593.19  1689.81  1701.23  3039.80
eigval :     3083.59  3086.47  3090.03  3095.94  3097.75  3099.83
eigval :     3113.53  3125.93  3494.95

   temp. (K)  partition function   enthalpy   heat capacity  entropy
                                   cal/mol     cal/K/mol   cal/K/mol   J/K/mol
 298.15  VIB  0.540E+07            10000.609     66.903     59.696
         ROT  0.997E+07              888.752      2.981     35.007
         INT  0.538E+14            10889.362     69.883     94.702
         TR   0.570E+28             1481.254      4.968     43.224
         TOT                       12370.6157    74.8516   137.9259   577.0818

       T/K    H(0)-H(T)+PV         H(T)/Eh          T*S/Eh         G(T)/Eh
   ------------------------------------------------------------------------
    298.15    0.197138E-01    0.263255E+00    0.655330E-01    0.197722E+00
   ------------------------------------------------------------------------

         :::::::::::::::::::::::::::::::::::::::::::::::::::::
         ::                  THERMODYNAMIC                  ::
         :::::::::::::::::::::::::::::::::::::::::::::::::::::
         :: total free energy         -65.762083773714 Eh   ::
         ::.................................................::
         :: total energy              -65.959806062670 Eh   ::
         :: zero point energy           0.243541481641 Eh   ::
         :: G(RRHO) w/o ZPVE           -0.045819192686 Eh   ::
         :: G(RRHO) contrib.            0.197722288956 Eh   ::
         :::::::::::::::::::::::::::::::::::::::::::::::::::::

           -------------------------------------------------
          | TOTAL ENERGY              -65.959806062670 Eh   |
          | TOTAL ENTHALPY            -65.696550750089 Eh   |
          | TOTAL FREE ENERGY         -65.762083773714 Eh   |
          | GRADIENT NORM               0.000036972650 Eh/α |
          | HOMO-LUMO GAP               0.886607059213 eV   |
           -------------------------------------------------

 * finished run on 2025/07/18 at 22:00:30.663
