   * xtb version 6.7.1 (edcfbbe) compiled by 'albert@albert-system' on 2024-07-22

   ID    Z sym.   atoms
    1    8 O      1, 10, 17
    2    6 C      2-9, 11, 13-16, 18-23, 25
    3    7 N      12, 24
    4    1 H      26-35

          program call               : xtb data2507/gas/HDP/HDP_gas_S0_crest.xyz --gfn 2 --ohess vtight --parallel 40 --molden --ceasefiles --namespace data2507/gas/HDP/HDP_gas_S0_finalOpt
          :  Hamiltonian                  GFN2-xTB          :
 * total energy  :   -65.9598018 Eh     change       -0.1034778E-08 Eh
 * total energy  :   -65.9598025 Eh     change       -0.7213655E-06 Eh
 * total energy  :   -65.9598033 Eh     change       -0.7320990E-06 Eh
 * total energy  :   -65.9598039 Eh     change       -0.6621916E-06 Eh
 * total energy  :   -65.9598048 Eh     change       -0.8363603E-06 Eh
 * total energy  :   -65.9598053 Eh     change       -0.5425574E-06 Eh
 * total energy  :   -65.9598055 Eh     change       -0.2020176E-06 Eh
 * total energy  :   -65.9598057 Eh     change       -0.1397284E-06 Eh
 * total energy  :   -65.9598058 Eh     change       -0.1819630E-06 Eh
 * total energy  :   -65.9598060 Eh     change       -0.1907018E-06 Eh
 * total energy  :   -65.9598065 Eh     change       -0.1259671E-06 Eh
 * total energy  :   -65.9598066 Eh     change       -0.1062196E-06 Eh
 * total energy  :   -65.9598067 Eh     change       -0.1060997E-06 Eh
 * total energy  :   -65.9598068 Eh     change       -0.1289802E-06 Eh
 * total energy  :   -65.9598070 Eh     change       -0.1525765E-06 Eh
 * total energy  :   -65.9598071 Eh     change       -0.1571788E-06 Eh
 * total energy  :   -65.9598073 Eh     change       -0.1299317E-06 Eh
 * total energy  :   -65.9598074 Eh     change       -0.1088257E-06 Eh
 * total energy  :   -65.9598075 Eh     change       -0.8016904E-07 Eh
   *** GEOMETRY OPTIMIZATION CONVERGED AFTER 21 ITERATIONS ***

 final structure:
================
35
 xtb: 6.7.1 (edcfbbe)
O           -2.56117505926723       -2.72964573984770        0.00335872730884
C           -2.38991523190918       -1.53065528771767        0.00003344350922
C           -3.51679891609999       -0.56879258017391       -0.00373781453681
C           -4.81400020559895       -1.07737609834080       -0.00696919673465
C           -5.90610110435449       -0.22965586047000       -0.01127382163823
C           -5.71514549109127        1.14452785321248       -0.01229830492094
C           -4.43324487341256        1.66234063409574       -0.00866563442988
C           -3.32416919682837        0.81932971694031       -0.00436179297521
C           -1.97691486619290        1.43532866472054       -0.00010836781417
O           -1.81240714473540        2.63723429840592        0.00219167691278
C           -0.84177441192712        0.48030372884671        0.00079840501800
N            0.37383552523844        1.00184846489586        0.00291134409177
C            1.41584306724662        0.17738202472308        0.00166451152763
C            1.22773932131307       -1.23452030006257       -0.00324919549881
C            2.34644149402835       -2.09446289247296       -0.00788445798477
C            3.61695715029061       -1.59142196003542       -0.00695044478659
O            4.63746843099351       -2.47290622804578       -0.01232527939980
C            3.85300875061827       -0.16746395818215       -0.00011050582535
C            5.14187175082229        0.39151117806636        0.00254904183231
C            5.32284392512749        1.75427388916613        0.00951030824098
C            4.22504353729076        2.61462587875182        0.01394280054707
C            2.95242662949304        2.09878808631029        0.01129471605716
C            2.74727125836519        0.71339283237137        0.00434985779542
N           -0.00661434932136       -1.75104523168539       -0.00337616576177
C           -1.03093900918188       -0.92133885237645       -0.00089303403933
H           -4.93878536104587       -2.15018686932420       -0.00612903838723
H           -6.90564745504743       -0.63791304988355       -0.01391642877249
H           -6.56552731278806        1.80985781229545       -0.01585995425748
H           -4.26056788505630        2.72850663501915       -0.00909979065014
H            2.18454948644108       -3.15959900570899       -0.01233530826653
H            5.48996181678826       -2.02018707932610       -0.01179210502945
H            6.02121204558377       -0.24057079891715       -0.00063870549551
H            6.32326874923522        2.16080235296431        0.01150815390304
H            4.38162511379386        3.68239553310160        0.01943623789074
H            2.08139211878856        2.73484223608367        0.01448759797018

          :  Hamiltonian                  GFN2-xTB          :
         :: gradient norm              0.000015561213 Eh/a0 ::
         :: HOMO-LUMO gap              0.886578746180 eV    ::
         :: SCC energy               -66.980892147430 Eh    ::
         :: -> dispersion             -0.045199342056 Eh    ::
         :: repulsion energy           1.021084696770 Eh    ::

    * Orbital Energies and Occupations

         #    Occupation            Energy/Eh            Energy/eV
      -------------------------------------------------------------
         1        2.0000           -0.7365881             -20.0436
       ...           ...                  ...                  ...
        47        2.0000           -0.4596554             -12.5079
        48        2.0000           -0.4490194             -12.2184
        49        2.0000           -0.4462239             -12.1424
        50        2.0000           -0.4451039             -12.1119
        51        2.0000           -0.4386830             -11.9372
        52        2.0000           -0.4325014             -11.7690
        53        2.0000           -0.4297908             -11.6952
        54        2.0000           -0.4222448             -11.4899
        55        2.0000           -0.4220749             -11.4852
        56        2.0000           -0.4146844             -11.2841
        57        2.0000           -0.3971524             -10.8071
        58        2.0000           -0.3957236             -10.7682
        59        2.0000           -0.3603491              -9.8056 (HOMO)
        60                         -0.3277679              -8.9190 (LUMO)
        61                         -0.3116060              -8.4792
        62                         -0.2760460              -7.5116
        63                         -0.2633927              -7.1673
        64                         -0.2463832              -6.7044
        65                         -0.2326073              -6.3296
        66                         -0.2028395              -5.5195
        67                         -0.1939259              -5.2770
        68                         -0.1697496              -4.6191
        69                         -0.1320526              -3.5933
        70                         -0.0854403              -2.3249
       ...                                ...                  ...
       110                          0.7366861              20.0462
      -------------------------------------------------------------
                  HL-Gap            0.0325812 Eh            0.8866 eV

     #   Z          covCN         q      C6AA      α(0)
     1   8 O        0.858    -0.325    20.242     6.032
     2   6 C        2.829     0.221    23.356     7.919
     3   6 C        2.973    -0.015    28.374     8.737
     4   6 C        2.924    -0.015    28.380     8.736
     5   6 C        2.917    -0.019    28.487     8.752
     6   6 C        2.917    -0.019    28.484     8.752
     7   6 C        2.924    -0.015    28.385     8.737
     8   6 C        2.974    -0.014    28.366     8.736
     9   6 C        2.830     0.220    23.378     7.923
    10   8 O        0.858    -0.335    20.431     6.060
    11   6 C        2.952     0.055    26.774     8.487
    12   7 N        1.849    -0.198    26.115     7.574
    13   6 C        2.967     0.077    26.284     8.409
    14   6 C        2.964     0.088    26.045     8.371
    15   6 C        2.914    -0.071    29.780     8.949
    16   6 C        2.838     0.151    24.727     8.149
    17   8 O        1.661    -0.368    20.232     6.072
    18   6 C        2.978    -0.014    28.352     8.734
    19   6 C        2.919    -0.032    28.792     8.799
    20   6 C        2.917    -0.024    28.606     8.771
    21   6 C        2.917    -0.023    28.583     8.767
    22   6 C        2.921    -0.022    28.551     8.762
    23   6 C        2.988     0.007    27.867     8.659
    24   7 N        1.850    -0.198    26.113     7.574
    25   6 C        2.950     0.061    26.625     8.463
    26   1 H        0.926     0.071     2.076     2.253
    27   1 H        0.926     0.050     2.315     2.379
    28   1 H        0.926     0.050     2.317     2.381
    29   1 H        0.926     0.070     2.081     2.256
    30   1 H        0.926     0.082     1.963     2.191
    31   1 H        0.805     0.311     0.688     1.303
    32   1 H        0.925     0.028     2.615     2.529
    33   1 H        0.926     0.042     2.420     2.432
    34   1 H        0.926     0.047     2.352     2.399
    35   1 H        0.926     0.076     2.016     2.220

molecular dipole:
                 x           y           z       tot (Debye)
 q only:        0.978       0.602      -0.005
   full:        1.152       0.727      -0.005       3.461

 projected vibrational frequencies (cm⁻¹)
eigval :       -0.00    -0.00    -0.00     0.00     0.00     0.00
eigval :       15.74    25.08    61.66    95.75   100.31   100.61
eigval :      132.79   150.29   200.40   209.89   226.45   249.43
eigval :      270.67   318.54   322.73   360.91   360.99   380.23
eigval :      391.83   408.88   414.50   420.61   437.44   444.21
eigval :      474.38   488.88   524.30   550.26   555.06   599.68
eigval :      600.75   653.44   654.90   655.79   675.69   681.31
eigval :      706.45   712.02   751.34   752.44   774.93   783.31
eigval :      792.86   804.98   859.60   870.45   879.79   896.51
eigval :      919.69   930.82   933.14   934.24   967.31  1027.04
eigval :     1067.23  1085.82  1086.97  1096.12  1130.49  1150.30
eigval :     1159.50  1174.25  1188.47  1192.10  1220.11  1237.42
eigval :     1242.62  1247.99  1272.08  1291.14  1326.36  1334.66
eigval :     1339.22  1367.33  1393.91  1417.33  1419.40  1438.72
eigval :     1455.07  1470.00  1486.67  1504.45  1546.89  1572.56
eigval :     1574.41  1588.25  1593.20  1689.79  1701.21  3039.83
eigval :     3083.63  3086.49  3090.05  3095.96  3097.76  3099.86
eigval :     3113.57  3125.96  3495.02

   temp. (K)  partition function   enthalpy   heat capacity  entropy
                                   cal/mol     cal/K/mol   cal/K/mol   J/K/mol
 298.15  VIB  0.552E+07            10001.830     66.901     59.720
         ROT  0.997E+07              888.752      2.981     35.007
         INT  0.550E+14            10890.583     69.882     94.726
         TR   0.570E+28             1481.254      4.968     43.224
         TOT                       12371.8367    74.8503   137.9498   577.1821

       T/K    H(0)-H(T)+PV         H(T)/Eh          T*S/Eh         G(T)/Eh
   ------------------------------------------------------------------------
    298.15    0.197158E-01    0.263255E+00    0.655444E-01    0.197711E+00
   ------------------------------------------------------------------------

         :::::::::::::::::::::::::::::::::::::::::::::::::::::
         ::                  THERMODYNAMIC                  ::
         :::::::::::::::::::::::::::::::::::::::::::::::::::::
         :: total free energy         -65.762096586095 Eh   ::
         ::.................................................::
         :: total energy              -65.959807450660 Eh   ::
         :: zero point energy           0.243539509968 Eh   ::
         :: G(RRHO) w/o ZPVE           -0.045828645403 Eh   ::
         :: G(RRHO) contrib.            0.197710864565 Eh   ::
         :::::::::::::::::::::::::::::::::::::::::::::::::::::

           -------------------------------------------------
          | TOTAL ENERGY              -65.959807450660 Eh   |
          | TOTAL ENTHALPY            -65.696552163921 Eh   |
          | TOTAL FREE ENERGY         -65.762096586095 Eh   |
          | GRADIENT NORM               0.000016510101 Eh/α |
          | HOMO-LUMO GAP               0.886579117502 eV   |
           -------------------------------------------------

 * finished run on 2025/07/18 at 22:01:29.784
