   * xtb version 6.7.1 (edcfbbe) compiled by 'albert@albert-system' on 2024-07-22

   ID    Z sym.   atoms
    1    8 O      1, 10, 17
    2    6 C      2-9, 11, 13-16, 18-23, 25
    3    7 N      12, 24
    4    1 H      26-35

          program call               : xtb data2507/gas/HDP/HDP_gas_T1_crest.xyz --gfn 2 --spinpol --tblite --uhf 2 --ohess vtight --parallel 40 --molden --ceasefiles --namespace data2507/gas/HDP/HDP_gas_T1_finalOpt
 * total energy  :   -65.9223722 Eh     change       -0.1828215E-07 Eh
 * total energy  :   -65.9223876 Eh     change       -0.1534964E-04 Eh
 * total energy  :   -65.9224005 Eh     change       -0.1292108E-04 Eh
 * total energy  :   -65.9224040 Eh     change       -0.3469960E-05 Eh
 * total energy  :   -65.9224063 Eh     change       -0.2376647E-05 Eh
 * total energy  :   -65.9224075 Eh     change       -0.1123279E-05 Eh
 * total energy  :   -65.9224086 Eh     change       -0.1132165E-05 Eh
 * total energy  :   -65.9224101 Eh     change       -0.1503636E-05 Eh
 * total energy  :   -65.9224118 Eh     change       -0.1675690E-05 Eh
 * total energy  :   -65.9224132 Eh     change       -0.1399999E-05 Eh
 * total energy  :   -65.9224141 Eh     change       -0.9556047E-06 Eh
 * total energy  :   -65.9224146 Eh     change       -0.4850698E-06 Eh
 * total energy  :   -65.9224148 Eh     change       -0.1624182E-06 Eh
 * total energy  :   -65.9224148 Eh     change       -0.3509115E-07 Eh
   *** GEOMETRY OPTIMIZATION CONVERGED AFTER 14 ITERATIONS ***

 final structure:
================
35
 xtb: 6.7.1 (edcfbbe)
O           -2.56082691977256       -2.74782838343951       -0.00778191139541
C           -2.40765761965784       -1.52310700719446       -0.00202312764415
C           -3.50759634961917       -0.57071658191708        0.00282922328141
C           -4.81544160222855       -1.07424093490768        0.00158250280560
C           -5.90048993832489       -0.22951999018856        0.00608575293537
C           -5.70953934158839        1.15222386900817        0.01191406989582
C           -4.43503629162441        1.66822963161013        0.01318043778458
C           -3.31486128454998        0.82633186317810        0.00875366574325
C           -1.99525990236410        1.43674089344244        0.01055700945985
O           -1.79437609754826        2.65020530278712        0.01520369148452
C           -0.86602484717980        0.50051988846128        0.00667966160449
N            0.35750101879531        0.93569234804953        0.00876216441081
C            1.42308672307420        0.18038209094292        0.00584489620225
C            1.23016651607015       -1.26010812573055       -0.00019620816100
C            2.35948962042975       -2.10274538785361       -0.00308489016516
C            3.62603068795704       -1.59209227729852       -0.00053725639952
O            4.64846746166397       -2.46892442838511       -0.00326610148672
C            3.85919911627065       -0.16393242989177        0.00487392165572
C            5.14429645705250        0.39607037676518        0.00685126801142
C            5.32397678755876        1.76181125996601        0.01221228301488
C            4.22495619608139        2.61727242612336        0.01590018133994
C            2.95155125395543        2.09966020201920        0.01389784032088
C            2.74966962622273        0.71286964911177        0.00827759014676
N           -0.00008020682057       -1.70016627822594       -0.00239667911147
C           -1.06823977632846       -0.94734865071664        0.00052499805032
H           -4.94048876603011       -2.14670134132138       -0.00300955484431
H           -6.90151304883702       -0.63446799043740        0.00509936220599
H           -6.56269075931380        1.81401882590406        0.01542338444130
H           -4.26173827722868        2.73401473032988        0.01762662084475
H            2.21173028237496       -3.17016184695770       -0.00726155501438
H            5.50038419803733       -2.01498598916951       -0.00037508950904
H            6.02480456244618       -0.23378552594998        0.00408617232463
H            6.32344061321613        2.16948418943538        0.01361937274001
H            4.37600670689720        3.68564509458687        0.02019849346664
H            2.08387417811293        2.74078173216402        0.01646761756005

 projected vibrational frequencies (cm⁻¹)
eigval :       -0.00    -0.00    -0.00     0.00     0.00     0.00
eigval :       28.45    34.10    71.25   100.23   100.98   116.43
eigval :      142.53   156.58   205.28   207.36   248.71   262.12
eigval :      272.78   316.81   332.87   353.91   356.85   387.06
eigval :      405.58   408.54   412.32   421.65   440.31   441.63
eigval :      473.45   489.31   524.00   536.51   549.23   594.31
eigval :      600.21   629.02   632.01   638.90   650.03   674.75
eigval :      675.71   701.44   722.09   727.15   741.69   770.54
eigval :      782.58   799.72   839.34   857.65   866.71   889.43
eigval :      913.17   925.71   928.62   929.05   951.72   970.01
eigval :     1012.35  1067.11  1081.50  1090.21  1101.15  1137.87
eigval :     1145.02  1167.76  1170.20  1188.80  1198.62  1200.54
eigval :     1208.88  1224.06  1245.79  1258.60  1294.51  1317.12
eigval :     1333.63  1353.87  1361.50  1393.08  1414.84  1420.02
eigval :     1442.71  1447.55  1457.30  1502.40  1533.79  1545.98
eigval :     1551.77  1578.23  1581.36  1585.04  1603.28  3044.92
eigval :     3081.44  3089.39  3091.34  3098.16  3100.20  3100.50
eigval :     3109.43  3121.38  3493.72

   temp. (K)  partition function   enthalpy   heat capacity  entropy
                                   cal/mol     cal/K/mol   cal/K/mol   J/K/mol
 298.15  VIB  0.161E+07             9985.667     68.217     58.610
         ROT  0.999E+07              888.752      2.981     35.010
         INT  0.161E+14            10874.420     71.197     93.620
         TR   0.570E+28             1481.254      4.968     43.224
         TOT                       12355.6737    76.1656   136.8439   572.5547

       T/K    H(0)-H(T)+PV         H(T)/Eh          T*S/Eh         G(T)/Eh
   ------------------------------------------------------------------------
    298.15    0.196900E-01    0.260618E+00    0.650189E-01    0.195599E+00
   ------------------------------------------------------------------------

         :::::::::::::::::::::::::::::::::::::::::::::::::::::
         ::                  THERMODYNAMIC                  ::
         :::::::::::::::::::::::::::::::::::::::::::::::::::::
         :: total free energy         -65.726815390106 Eh   ::
         ::.................................................::
         :: total energy              -65.922414804365 Eh   ::
         :: zero point energy           0.240928330818 Eh   ::
         :: G(RRHO) w/o ZPVE           -0.045328916559 Eh   ::
         :: G(RRHO) contrib.            0.195599414258 Eh   ::
         :::::::::::::::::::::::::::::::::::::::::::::::::::::

           -------------------------------------------------
          | TOTAL ENERGY              -65.922414804365 Eh   |
          | TOTAL ENTHALPY            -65.661796454164 Eh   |
          | TOTAL FREE ENERGY         -65.726815390106 Eh   |
          | GRADIENT NORM               0.000070591837 Eh/α |
           -------------------------------------------------

 * finished run on 2025/07/18 at 22:02:43.569
