   * xtb version 6.7.1 (edcfbbe) compiled by 'albert@albert-system' on 2024-07-22

   ID    Z sym.   atoms
    1    8 O      1, 10, 17
    2    6 C      2-9, 11, 13-16, 18-23, 25
    3    7 N      12, 24
    4    1 H      26-35

          program call               : xtb data2507/gas/HDP/HDP_gas_S0_finalOpt.xtbopt.xyz --gfn 2 --spinpol --tblite --uhf 2 --ohess vtight --parallel 40 --molden --ceasefiles --namespace data2507/gas/HDP/HDP_gas_T1_preOpt
 * total energy  :   -65.9146744 Eh     change       -0.3226916E-08 Eh
 * total energy  :   -65.9189583 Eh     change       -0.4283913E-02 Eh
 * total energy  :   -65.9218913 Eh     change       -0.2932950E-02 Eh
 * total energy  :   -65.9222620 Eh     change       -0.3706728E-03 Eh
 * total energy  :   -65.9224040 Eh     change       -0.1420300E-03 Eh
 * total energy  :   -65.9224113 Eh     change       -0.7326574E-05 Eh
 * total energy  :   -65.9224139 Eh     change       -0.2589142E-05 Eh
 * total energy  :   -65.9224144 Eh     change       -0.4875391E-06 Eh
 * total energy  :   -65.9224145 Eh     change       -0.9869790E-07 Eh
   *** GEOMETRY OPTIMIZATION CONVERGED AFTER 9 ITERATIONS ***

 final structure:
================
35
 xtb: 6.7.1 (edcfbbe)
O           -2.56228273073118       -2.74823111531861       -0.00218912247441
C           -2.40887303598696       -1.52349752133116       -0.00272704058527
C           -3.50869228222715       -0.57092406012360       -0.00460966713388
C           -4.81657562414127       -1.07431344966528       -0.00792064692648
C           -5.90153500681880       -0.22945992040443       -0.01086981545189
C           -5.71042532051645        1.15225852703147       -0.01049263684311
C           -4.43586293982094        1.66813349436878       -0.00681052547950
C           -3.31576752315075        0.82610257219127       -0.00377285289798
C           -1.99607811852857        1.43631895486666        0.00022953753870
O           -1.79496466025356        2.64971779943089        0.00279560111935
C           -0.86693288980413        0.49980604366267        0.00065214902162
N            0.35661079311886        0.93479756549412        0.00259782730800
C            1.42214374172162        0.17936232449545        0.00136183414713
C            1.22891935897663       -1.26114660510949       -0.00305306441149
C            2.35809885215713       -2.10400998499481       -0.00668241696511
C            3.62472934634413       -1.59360573139676       -0.00563109582009
O            4.64696176631921       -2.47063553880419       -0.01018060495106
C            3.85817185386881       -0.16549444777897        0.00035726055294
C            5.14339307038048        0.39418972489896        0.00309476341371
C            5.32342675813228        1.75989081434604        0.00914848080520
C            4.22459212023488        2.61558588232811        0.01253875191722
C            2.95106922052485        2.09829769302998        0.00983503943826
C            2.74880128448751        0.71154414075998        0.00383626472945
N           -0.00135118479883       -1.70095553728711       -0.00390685657956
C           -1.06947850114924       -0.94793624793469       -0.00199907018196
H           -4.94174503202915       -2.14676223204276       -0.00824572203407
H           -6.90259040906931       -0.63432233564942       -0.01356851298179
H           -6.56348964016689        1.81417392634829       -0.01306761426347
H           -4.26252303674008        2.73391571087197       -0.00628996838234
H            2.21010497490310       -3.17139717876323       -0.01063217119405
H            5.49898926335448       -2.01688417797904       -0.00952334096003
H            6.02374584748858       -0.23588729147306        0.00072824689558
H            6.32299555121178        2.16730517000749        0.01130825613815
H            4.37589719916060        3.68392690998793        0.01735739804368
H            2.08357768126439        2.73966855103761        0.01237159529920

 projected vibrational frequencies (cm⁻¹)
eigval :       -0.00    -0.00    -0.00     0.00     0.00     0.00
eigval :       28.44    34.07    71.25   100.24   100.94   116.41
eigval :      142.53   156.61   205.27   207.37   248.65   262.07
eigval :      272.79   316.77   332.88   353.90   356.88   387.07
eigval :      405.58   408.53   412.35   421.74   440.40   441.61
eigval :      473.37   489.37   524.05   536.53   549.25   594.31
eigval :      600.14   629.00   631.94   638.95   649.99   674.73
eigval :      675.74   701.45   722.10   727.17   741.68   770.51
eigval :      782.55   799.88   839.28   857.70   866.67   889.38
eigval :      913.12   925.67   928.59   929.01   951.78   970.45
eigval :     1012.28  1067.12  1081.51  1090.18  1100.96  1137.36
eigval :     1144.68  1167.61  1169.95  1188.51  1198.78  1200.24
eigval :     1208.79  1224.10  1245.66  1258.49  1294.34  1317.05
eigval :     1333.98  1353.88  1361.70  1393.03  1414.70  1419.98
eigval :     1442.38  1447.56  1457.29  1502.49  1533.69  1545.99
eigval :     1551.47  1578.15  1581.53  1585.07  1603.58  3044.93
eigval :     3081.43  3089.36  3091.25  3098.22  3100.21  3100.51
eigval :     3109.43  3121.37  3493.64

   temp. (K)  partition function   enthalpy   heat capacity  entropy
                                   cal/mol     cal/K/mol   cal/K/mol   J/K/mol
 298.15  VIB  0.161E+07             9985.851     68.217     58.612
         ROT  0.999E+07              888.752      2.981     35.010
         INT  0.161E+14            10874.603     71.198     93.622
         TR   0.570E+28             1481.254      4.968     43.224
         TOT                       12355.8568    76.1660   136.8454   572.5613

       T/K    H(0)-H(T)+PV         H(T)/Eh          T*S/Eh         G(T)/Eh
   ------------------------------------------------------------------------
    298.15    0.196903E-01    0.260614E+00    0.650197E-01    0.195594E+00
   ------------------------------------------------------------------------

         :::::::::::::::::::::::::::::::::::::::::::::::::::::
         ::                  THERMODYNAMIC                  ::
         :::::::::::::::::::::::::::::::::::::::::::::::::::::
         :: total free energy         -65.726820509908 Eh   ::
         ::.................................................::
         :: total energy              -65.922414496419 Eh   ::
         :: zero point energy           0.240923356759 Eh   ::
         :: G(RRHO) w/o ZPVE           -0.045329370247 Eh   ::
         :: G(RRHO) contrib.            0.195593986511 Eh   ::
         :::::::::::::::::::::::::::::::::::::::::::::::::::::

           -------------------------------------------------
          | TOTAL ENERGY              -65.922414496419 Eh   |
          | TOTAL ENTHALPY            -65.661800828496 Eh   |
          | TOTAL FREE ENERGY         -65.726820509908 Eh   |
          | GRADIENT NORM               0.000084842492 Eh/α |
           -------------------------------------------------

 * finished run on 2025/07/18 at 22:01:31.416
