   * xtb version 6.7.1 (edcfbbe) compiled by 'albert@albert-system' on 2024-07-22

   ID    Z sym.   atoms
    1    6 C      1, 2, 4-9, 11-21, 23-37, 41-44
    2    7 N      3, 22, 38, 40
    3   16 S      10, 39
    4    1 H      45-72

          program call               : xtb data2507/gas/PBTPA/PBTPA_gas_S0_crest.xyz --gfn 2 --ohess vtight --parallel 40 --molden --ceasefiles --namespace data2507/gas/PBTPA/PBTPA_gas_S0_finalOpt
          :  Hamiltonian                  GFN2-xTB          :
 * total energy  :  -113.8663547 Eh     change       -0.2137725E-08 Eh
 * total energy  :  -113.8663563 Eh     change       -0.1672366E-05 Eh
 * total energy  :  -113.8663589 Eh     change       -0.2552582E-05 Eh
 * total energy  :  -113.8663612 Eh     change       -0.2312625E-05 Eh
 * total energy  :  -113.8663628 Eh     change       -0.1572276E-05 Eh
 * total energy  :  -113.8663644 Eh     change       -0.1667788E-05 Eh
 * total energy  :  -113.8663669 Eh     change       -0.2432508E-05 Eh
 * total energy  :  -113.8663693 Eh     change       -0.2469579E-05 Eh
 * total energy  :  -113.8663707 Eh     change       -0.1335415E-05 Eh
 * total energy  :  -113.8663714 Eh     change       -0.6829306E-06 Eh
 * total energy  :  -113.8663764 Eh     change       -0.5310018E-06 Eh
 * total energy  :  -113.8663765 Eh     change       -0.1519132E-06 Eh
 * total energy  :  -113.8663770 Eh     change       -0.5036754E-06 Eh
 * total energy  :  -113.8663773 Eh     change       -0.2602120E-06 Eh
 * total energy  :  -113.8663775 Eh     change       -0.1983255E-06 Eh
 * total energy  :  -113.8663778 Eh     change       -0.2598890E-06 Eh
 * total energy  :  -113.8663780 Eh     change       -0.2628197E-06 Eh
 * total energy  :  -113.8663782 Eh     change       -0.1741356E-06 Eh
 * total energy  :  -113.8663783 Eh     change       -0.9705202E-07 Eh
   *** GEOMETRY OPTIMIZATION CONVERGED AFTER 29 ITERATIONS ***

 final structure:
================
72
 xtb: 6.7.1 (edcfbbe)
C           -7.73724034772771        2.77677709400515       -1.00757756074770
C           -8.19830107306183        1.88742809081580        0.14577665440385
N           -7.54639283777558        0.59525077497044        0.09269402719386
C           -8.29216342224053       -0.57328615606086        0.24269613679732
C           -9.46648601454253       -0.60009830424209        0.99474240545048
C          -10.21373236386944       -1.75908894496562        1.11018430101656
C           -9.79283275966107       -2.92926010137178        0.50503194038900
C           -8.60880632759348       -2.93349771394967       -0.21127748540436
C           -7.87293924236621       -1.76955741466792       -0.34637427027624
S           -6.39664897851445       -1.81003286593472       -1.32544253697477
C           -5.48325137849369       -0.55171583972785       -0.47078493170467
C           -4.10691839658440       -0.64033004162017       -0.45101735453611
C           -3.33316511266703        0.36019488853399        0.13843474727428
C           -1.87551377985545        0.27279973200737        0.13532605955449
C           -1.20917515876099       -0.93483633374481        0.18529872757932
C            0.18622569106137       -1.03790978137336        0.17414294371778
C            1.02164019347099        0.05818415034480        0.09910598270992
C            2.47637107704266       -0.06926802171214        0.08240390772749
C            3.11216015043582       -1.08971892762263        0.79306055546658
C            4.48281956291211       -1.22192008234396        0.77725673126886
C            5.27177879489723       -0.34142557311619        0.03428351168962
N            6.66023690549491       -0.47783861961132        0.01011057729981
C            7.24185434390773       -1.75083454566392        0.04689470885007
C            8.41811697999401       -1.96965190771018        0.76359571517874
C            8.99167738758569       -3.22581670914590        0.79285268640761
C            8.40216146334489       -4.28277785437739        0.11878349188215
C            7.23200290925498       -4.07150548688144       -0.59195990108573
C            6.65523083376276       -2.81720053330331       -0.63430782268090
C            7.47764893555300        0.65770075787471       -0.05034499084219
C            8.64982036191689        0.64405572311138       -0.80575172318995
C            9.45711010820914        1.76369036645497       -0.85747257525161
C            9.10810368036432        2.91322472203762       -0.16778279097577
C            7.94260129597391        2.93306040951410        0.58078613661312
C            7.13296947831340        1.81594225940896        0.64588737021209
C            4.64148755909681        0.68020955284756       -0.67870754216016
C            3.27149727532167        0.81628855309171       -0.64698107678929
C            0.38072448623642        1.32067006970294        0.03985795818397
N            0.96555596719253        2.51688696981258       -0.02537315763143
S           -0.16893981320801        3.65431359495838       -0.05598079685010
N           -1.45977094823788        2.69877020551027        0.01762786353528
C           -1.05784905977683        1.42864102312504        0.07416249317273
C           -3.99874252353187        1.43397377062963        0.72669832586471
C           -5.37638229324336        1.50588693913491        0.72828171546174
C           -6.15683604078612        0.52308370283108        0.11720164079934
H           -7.92909565683160        2.28015607817400       -1.95584899664684
H           -8.28600971962565        3.71480009448040       -0.98729800240466
H           -6.67434242096676        2.99227129969630       -0.94333562969112
H           -9.27054159329899        1.71808597964455        0.03673485528238
H           -8.02977652107405        2.38981630261965        1.10735420731757
H           -9.79977302100133        0.29163424881456        1.50270956184681
H          -11.12653444687840       -1.74347730713004        1.68659273584028
H          -10.37464815108853       -3.83342464798248        0.59265230583920
H           -8.25352713295719       -3.83288835309236       -0.69043377364845
H           -3.63918215236530       -1.47504195445448       -0.95011133680268
H           -1.78413690909211       -1.84621626847681        0.25357335130129
H            0.62185838039869       -2.02563868189499        0.20377837782003
H            2.52632490868162       -1.76664971642300        1.39721733438076
H            4.95735285161987       -2.00484380081279        1.35081678982334
H            8.87456629892608       -1.14917725517066        1.29780895242230
H            9.90161225116939       -3.38204968328925        1.35348810677634
H            8.85157066412037       -5.26378481599292        0.14679407470947
H            6.76861215933496       -4.88823468377849       -1.12579723566374
H            5.74889397650683       -2.65236362601365       -1.19843486510683
H            8.91923662373288       -0.24802843577501       -1.35219126375041
H           10.36136489208602        1.74050832168657       -1.44783097897304
H            9.73988137313514        3.78726509903763       -0.21338546099681
H            7.66496902619035        3.82319872718644        1.12591144918289
H            6.22975227360975        1.83087597829002        1.23799195826524
H            5.23814101598194        1.36354358088074       -1.26497737063507
H            2.80200945268161        1.60861783520338       -1.20738683081475
H           -3.42753746514978        2.21750190134467        1.19720332367331
H           -5.85180747059044        2.34033752395118        1.21841891405348

          :  Hamiltonian                  GFN2-xTB          :
         :: gradient norm              0.000094284545 Eh/a0 ::
         :: HOMO-LUMO gap              1.074467677099 eV    ::
         :: SCC energy              -115.824568552089 Eh    ::
         :: -> dispersion             -0.101454171295 Eh    ::
         :: repulsion energy           1.958190249486 Eh    ::

    * Orbital Energies and Occupations

         #    Occupation            Energy/Eh            Energy/eV
      -------------------------------------------------------------
         1        2.0000           -0.7545525             -20.5324
       ...           ...                  ...                  ...
        94        2.0000           -0.4090906             -11.1319
        95        2.0000           -0.4074189             -11.0864
        96        2.0000           -0.4066927             -11.0667
        97        2.0000           -0.4056349             -11.0379
        98        2.0000           -0.4048818             -11.0174
        99        2.0000           -0.4037977             -10.9879
       100        2.0000           -0.4030097             -10.9665
       101        2.0000           -0.4002762             -10.8921
       102        2.0000           -0.4000019             -10.8846
       103        2.0000           -0.3837809             -10.4432
       104        2.0000           -0.3718770             -10.1193
       105        2.0000           -0.3476770              -9.4608
       106        2.0000           -0.3387396              -9.2176 (HOMO)
       107                         -0.2992536              -8.1431 (LUMO)
       108                         -0.2470739              -6.7232
       109                         -0.2343206              -6.3762
       110                         -0.2298627              -6.2549
       111                         -0.2287532              -6.2247
       112                         -0.2261564              -6.1540
       113                         -0.2254282              -6.1342
       114                         -0.2210483              -6.0150
       115                         -0.2190763              -5.9614
       116                         -0.2169932              -5.9047
       117                         -0.2113862              -5.7521
       ...                                ...                  ...
       214                          0.7362496              20.0344
      -------------------------------------------------------------
                  HL-Gap            0.0394860 Eh            1.0745 eV

     #   Z          covCN         q      C6AA      α(0)
     1   6 C        3.752    -0.111    22.678     6.791
     2   6 C        3.745     0.007    20.523     6.462
     3   7 N        2.744    -0.081    22.817     7.094
     4   6 C        2.955     0.057    26.727     8.479
     5   6 C        2.925    -0.058    29.430     8.896
     6   6 C        2.919    -0.034    28.853     8.808
     7   6 C        2.919    -0.039    28.967     8.826
     8   6 C        2.970    -0.039    28.962     8.827
     9   6 C        2.973     0.034    27.230     8.559
    10  16 S        2.126    -0.159   147.771    20.460
    11   6 C        2.971     0.032    27.273     8.566
    12   6 C        2.977    -0.045    29.120     8.852
    13   6 C        2.974     0.006    27.884     8.662
    14   6 C        2.965    -0.004    28.115     8.697
    15   6 C        2.924    -0.040    28.983     8.829
    16   6 C        2.924    -0.040    28.998     8.831
    17   6 C        2.965    -0.004    28.110     8.696
    18   6 C        2.974     0.006    27.884     8.662
    19   6 C        2.924    -0.035    28.860     8.810
    20   6 C        2.920    -0.049    29.217     8.864
    21   6 C        2.924     0.065    26.554     8.451
    22   7 N        2.752    -0.072    22.644     7.067
    23   6 C        2.925     0.065    26.542     8.449
    24   6 C        2.922    -0.047    29.171     8.857
    25   6 C        2.920    -0.029    28.729     8.790
    26   6 C        2.919    -0.038    28.947     8.823
    27   6 C        2.920    -0.029    28.730     8.790
    28   6 C        2.922    -0.047    29.170     8.857
    29   6 C        2.925     0.065    26.545     8.449
    30   6 C        2.922    -0.047    29.172     8.857
    31   6 C        2.920    -0.029    28.731     8.790
    32   6 C        2.919    -0.038    28.944     8.822
    33   6 C        2.920    -0.029    28.723     8.789
    34   6 C        2.922    -0.047    29.162     8.856
    35   6 C        2.920    -0.048    29.190     8.860
    36   6 C        2.924    -0.030    28.753     8.793
    37   6 C        3.346     0.072    23.870     7.711
    38   7 N        1.853    -0.268    27.818     7.817
    39  16 S        2.666     0.307   129.161    19.128
    40   7 N        1.853    -0.270    27.868     7.824
    41   6 C        3.344     0.072    23.902     7.720
    42   6 C        2.923    -0.036    28.904     8.817
    43   6 C        2.924    -0.056    29.392     8.891
    44   6 C        2.955     0.060    26.656     8.468
    45   1 H        0.925     0.047     2.360     2.402
    46   1 H        0.925     0.044     2.401     2.423
    47   1 H        0.925     0.050     2.325     2.385
    48   1 H        0.924     0.050     2.315     2.379
    49   1 H        0.923     0.032     2.560     2.502
    50   1 H        0.926     0.032     2.554     2.499
    51   1 H        0.926     0.034     2.531     2.488
    52   1 H        0.926     0.036     2.509     2.477
    53   1 H        0.926     0.044     2.395     2.420
    54   1 H        0.926     0.045     2.385     2.415
    55   1 H        0.926     0.040     2.445     2.445
    56   1 H        0.926     0.039     2.462     2.454
    57   1 H        0.926     0.034     2.536     2.490
    58   1 H        0.926     0.032     2.554     2.499
    59   1 H        0.926     0.032     2.559     2.501
    60   1 H        0.926     0.032     2.562     2.503
    61   1 H        0.926     0.030     2.579     2.512
    62   1 H        0.926     0.032     2.560     2.502
    63   1 H        0.926     0.032     2.552     2.498
    64   1 H        0.926     0.032     2.563     2.504
    65   1 H        0.926     0.032     2.564     2.504
    66   1 H        0.926     0.030     2.579     2.511
    67   1 H        0.926     0.033     2.551     2.498
    68   1 H        0.926     0.034     2.529     2.487
    69   1 H        0.926     0.034     2.527     2.486
    70   1 H        0.926     0.050     2.324     2.384
    71   1 H        0.926     0.052     2.290     2.366
    72   1 H        0.926     0.038     2.475     2.460

molecular dipole:
                 x           y           z       tot (Debye)
 q only:       -0.190       0.591       0.286
   full:       -0.315       0.449       0.567       2.004

 projected vibrational frequencies (cm⁻¹)
eigval :       -0.00    -0.00     0.00     0.00     0.00     0.00
eigval :        9.88    12.56    14.94    24.73    30.54    40.03
eigval :       44.59    51.16    56.46    69.43    74.96    78.04
eigval :       85.51   101.82   105.31   121.54   131.46   155.81
eigval :      162.30   171.88   174.71   188.20   194.64   203.64
eigval :      226.71   232.37   247.08   250.28   281.85   292.41
eigval :      308.36   313.99   324.41   342.09   358.89   366.95
eigval :      378.27   379.75   386.42   387.57   401.19   404.73
eigval :      415.09   425.48   429.31   446.01   463.09   481.33
eigval :      489.29   494.78   501.11   503.81   513.27   536.16
eigval :      546.16   560.93   579.88   586.12   587.26   593.06
eigval :      602.52   603.86   616.01   630.83   642.64   655.87
eigval :      659.99   665.86   669.74   678.65   687.23   694.06
eigval :      711.95   737.74   744.50   757.32   761.84   772.86
eigval :      784.11   811.96   815.46   827.31   840.06   864.64
eigval :      864.98   868.92   872.76   874.83   876.32   886.54
eigval :      892.53   892.81   895.26   901.84   905.43   906.54
eigval :      908.68   910.66   915.32   916.80   924.37   927.65
eigval :      929.27   929.51   929.76   951.16   968.71   984.97
eigval :      994.11  1005.09  1028.28  1036.57  1043.35  1083.13
eigval :     1084.13  1087.60  1098.88  1121.92  1124.12  1130.06
eigval :     1134.58  1141.01  1144.44  1149.14  1159.13  1178.19
eigval :     1180.69  1180.80  1185.75  1187.39  1195.53  1198.56
eigval :     1216.09  1232.32  1244.30  1255.65  1263.04  1271.25
eigval :     1276.74  1278.96  1282.28  1293.22  1307.29  1311.50
eigval :     1312.81  1316.79  1319.50  1324.78  1327.20  1327.58
eigval :     1329.30  1337.70  1353.42  1365.12  1369.73  1399.67
eigval :     1410.22  1416.72  1420.34  1436.47  1443.08  1459.69
eigval :     1471.25  1475.17  1475.97  1483.83  1486.07  1488.28
eigval :     1499.78  1504.30  1526.87  1534.41  1550.27  1562.67
eigval :     1564.44  1573.72  1577.19  1581.16  1590.50  1592.92
eigval :     1594.64  1600.84  2890.08  2994.78  3042.66  3045.37
eigval :     3055.45  3075.71  3076.07  3076.80  3077.37  3077.87
eigval :     3082.55  3083.21  3084.75  3086.18  3087.06  3089.05
eigval :     3089.86  3090.39  3091.41  3093.82  3097.00  3097.32
eigval :     3097.66  3097.77  3101.56  3104.40  3112.57  3117.45

   temp. (K)  partition function   enthalpy   heat capacity  entropy
                                   cal/mol     cal/K/mol   cal/K/mol   J/K/mol
 298.15  VIB  0.512E+17            21255.653    132.896    132.822
         ROT  0.103E+09              888.752      2.981     39.654
         INT  0.529E+25            22144.405    135.877    172.476
         TR   0.144E+29             1481.254      4.968     45.062
         TOT                       23625.6591   140.8455   217.5380   910.1789

       T/K    H(0)-H(T)+PV         H(T)/Eh          T*S/Eh         G(T)/Eh
   ------------------------------------------------------------------------
    298.15    0.376499E-01    0.584496E+00    0.103359E+00    0.481137E+00
   ------------------------------------------------------------------------

         :::::::::::::::::::::::::::::::::::::::::::::::::::::
         ::                  THERMODYNAMIC                  ::
         :::::::::::::::::::::::::::::::::::::::::::::::::::::
         :: total free energy        -113.385241159220 Eh   ::
         ::.................................................::
         :: total energy             -113.866378302596 Eh   ::
         :: zero point energy           0.546846573430 Eh   ::
         :: G(RRHO) w/o ZPVE           -0.065709430053 Eh   ::
         :: G(RRHO) contrib.            0.481137143377 Eh   ::
         :::::::::::::::::::::::::::::::::::::::::::::::::::::

           -------------------------------------------------
          | TOTAL ENERGY             -113.866378302596 Eh   |
          | TOTAL ENTHALPY           -113.281881844889 Eh   |
          | TOTAL FREE ENERGY        -113.385241159220 Eh   |
          | GRADIENT NORM               0.000094256606 Eh/α |
          | HOMO-LUMO GAP               1.074467716829 eV   |
           -------------------------------------------------

 * finished run on 2025/07/18 at 21:34:37.968
