   * xtb version 6.7.1 (edcfbbe) compiled by 'albert@albert-system' on 2024-07-22

   ID    Z sym.   atoms
    1    6 C      1, 2, 4-9, 11-21, 23-37, 41-44
    2    7 N      3, 22, 38, 40
    3   16 S      10, 39
    4    1 H      45-72

          program call               : xtb data2507/gas/PBTPA/PBTPA_gas_T1_crest.xyz --gfn 2 --spinpol --tblite --uhf 2 --ohess vtight --parallel 40 --molden --ceasefiles --namespace data2507/gas/PBTPA/PBTPA_gas_T1_finalOpt
 * total energy  :  -113.8142283 Eh     change        0.2984189E-07 Eh
 * total energy  :  -113.8142382 Eh     change       -0.9845642E-05 Eh
 * total energy  :  -113.8142429 Eh     change       -0.4716818E-05 Eh
 * total energy  :  -113.8142452 Eh     change       -0.2332781E-05 Eh
 * total energy  :  -113.8142493 Eh     change       -0.4081328E-05 Eh
 * total energy  :  -113.8142531 Eh     change       -0.3799478E-05 Eh
 * total energy  :  -113.8142569 Eh     change       -0.3821410E-05 Eh
 * total energy  :  -113.8142609 Eh     change       -0.3958047E-05 Eh
 * total energy  :  -113.8142649 Eh     change       -0.3993915E-05 Eh
 * total energy  :  -113.8142689 Eh     change       -0.4005317E-05 Eh
 * total energy  :  -113.8143518 Eh     change       -0.8467443E-06 Eh
 * total energy  :  -113.8143530 Eh     change       -0.1200509E-05 Eh
 * total energy  :  -113.8143547 Eh     change       -0.1775608E-05 Eh
 * total energy  :  -113.8143568 Eh     change       -0.2065344E-05 Eh
 * total energy  :  -113.8143586 Eh     change       -0.1826424E-05 Eh
 * total energy  :  -113.8143600 Eh     change       -0.1402210E-05 Eh
 * total energy  :  -113.8143612 Eh     change       -0.1176504E-05 Eh
 * total energy  :  -113.8143612 Eh     change        0.5468991E-08 Eh
 * total energy  :  -113.8143612 Eh     change       -0.2225359E-07 Eh
   *** GEOMETRY OPTIMIZATION CONVERGED AFTER 45 ITERATIONS ***

 final structure:
================
72
 xtb: 6.7.1 (edcfbbe)
C           -8.38174397299746       -2.37284961999545        1.49959470039215
C           -8.16339347527560       -1.87591267944864        0.06841265224135
N           -7.53491213580570       -0.57007067291205       -0.01612315836274
C           -8.34873406419552        0.55768457127450       -0.01886268107889
C           -9.68759437759492        0.48511166479541        0.38758261296221
C          -10.51716241696358        1.58954983015535        0.37045710213751
C          -10.04303063351953        2.82218508755020       -0.04379694304924
C           -8.72537414793537        2.92511185957369       -0.44243940123237
C           -7.89165135762552        1.81619508849259       -0.43737051576377
S           -6.26214275926496        2.07337361950213       -1.05008448423601
C           -5.43809914682515        0.64770640153063       -0.40814649218206
C           -4.06543403768847        0.70803314778228       -0.38557708470372
C           -3.27546925681413       -0.38943632526018        0.00460240297803
C           -1.84813487490566       -0.32997310696713        0.03958017214654
C           -1.15116904854747        0.91318686778516       -0.00216612459623
C            0.20581944194136        1.01108770951872       -0.00181137122462
C            1.07469070350526       -0.11709832213386        0.04120860804068
C            2.50018058874284        0.03296437128101        0.01779245057089
C            3.11347358151012        1.22342672827053       -0.42789193739723
C            4.47655637985159        1.37150374191560       -0.43973606933689
C            5.31425917325602        0.33680893179991       -0.00493283971802
N            6.69745691601726        0.49264474136286       -0.00974175752126
C            7.52769906856213       -0.59636726362162       -0.29737970606251
C            7.15435837513581       -1.53358583808101       -1.26122494012972
C            7.97831905783827       -2.60559023933710       -1.54204735129029
C            9.18387396105561       -2.75807190628120       -0.87607050904492
C            9.55975783609525       -1.82867338302256        0.08043500041649
C            8.74048349079249       -0.75628327235496        0.37364690585672
C            7.26243790542122        1.74081512094050        0.27281769316954
C            6.69488081852742        2.56931848071648        1.24169712976408
C            7.25375432103007        3.80210421577119        1.51503421737448
C            8.38503816712346        4.22615092480227        0.83641092996062
C            8.95452914518435        3.40547578270874       -0.12392406212395
C            8.40018188140576        2.17327792397138       -0.40944200381752
C            4.72327399085588       -0.85674097524592        0.42972583824513
C            3.36038273114306       -1.00252466959948        0.43909186701939
C            0.42322668419645       -1.37628477768878        0.12458567487760
N            1.01496478098820       -2.56431786677238        0.16886379648106
S           -0.12732922680076       -3.73645475621110        0.22106113702514
N           -1.43106443210801       -2.74413844174255        0.17629588862773
C           -1.02038951704817       -1.48267577960329        0.12670184008526
C           -3.98699828508506       -1.55581480377583        0.35648999505822
C           -5.35706877350033       -1.60407352395598        0.34943903290577
C           -6.14958897186383       -0.50396906100559       -0.02236804224106
H           -9.02052987891287       -1.69622932834931        2.06072427907541
H           -8.85154656799237       -3.35295599975366        1.47330545816807
H           -7.43973245822532       -2.45359903053937        2.03466898436163
H           -9.11957409666612       -1.82352870996214       -0.45860545970325
H           -7.53778324994866       -2.58552236781001       -0.47848586365356
H          -10.10508057613574       -0.44490815560212        0.73168909440159
H          -11.54257221647324        1.48042144504749        0.68952559293103
H          -10.68622990732553        3.68744870399231       -0.05717396696950
H           -8.32052678400938        3.86735352153126       -0.77886238868967
H           -3.60829372928232        1.62178532487725       -0.73048500098620
H           -1.72774427685477        1.82473538111316        0.00547436802661
H            0.64481796067530        1.99660093740108        0.00837686471777
H            2.50974297455378        2.02905448696991       -0.81518886188875
H            4.91728004065062        2.28627970204356       -0.81013387657108
H            6.22054311186899       -1.40917753573496       -1.78910886864863
H            7.68019113474431       -3.32273201187815       -2.29224010093148
H            9.82619356418838       -3.59585599677902       -1.10062156216903
H           10.49471715593816       -1.94375012055132        0.60863601976138
H            9.02914454036363       -0.03914843749749        1.12816367432446
H            5.82088612091909        2.23365624729307        1.78014485384728
H            6.80754549967798        4.43279460922256        2.26963623732859
H            8.82015451470567        5.18943193932476        1.05471892198584
H            9.83302154141029        3.73085840122061       -0.66126182464139
H            8.83821547082667        1.53979592746676       -1.16680289058534
H            5.35449907076324       -1.66028238528931        0.78081062442944
H            2.92225507363526       -1.92259622728493        0.78911319274527
H           -3.42638006463879       -2.42863553171806        0.64784385691056
H           -5.81733822876616       -2.52731333513716        0.65608666200104

 projected vibrational frequencies (cm⁻¹)
eigval :       -0.00    -0.00    -0.00     0.00     0.00     0.00
eigval :        8.31    11.05    19.30    22.98    24.05    39.64
eigval :       47.81    49.45    59.88    62.84    72.97    79.03
eigval :       90.23    99.39   102.06   120.23   130.59   143.99
eigval :      147.05   170.06   173.97   191.35   194.22   208.25
eigval :      231.10   234.63   249.55   257.18   275.78   290.51
eigval :      303.31   313.91   325.95   349.32   359.48   376.84
eigval :      377.78   379.83   386.68   390.23   405.02   408.46
eigval :      421.57   426.03   433.77   436.20   456.81   471.08
eigval :      475.42   485.57   496.03   502.73   511.36   526.10
eigval :      534.17   565.62   574.90   583.08   584.44   586.12
eigval :      592.33   599.26   600.83   616.64   640.36   653.37
eigval :      656.80   659.32   662.83   665.76   678.94   689.31
eigval :      713.64   719.89   735.64   757.13   760.51   769.48
eigval :      772.26   783.91   801.64   812.44   813.34   821.27
eigval :      845.03   847.28   847.91   860.98   873.27   874.90
eigval :      884.47   888.60   892.83   893.90   901.25   902.83
eigval :      905.23   909.00   911.80   915.67   920.51   927.46
eigval :      929.06   929.17   929.47   942.30   958.04   980.12
eigval :      988.55  1004.13  1018.64  1035.86  1037.04  1076.08
eigval :     1082.31  1083.28  1106.69  1107.78  1121.96  1124.12
eigval :     1127.34  1139.74  1147.65  1151.67  1161.56  1180.07
eigval :     1180.20  1181.66  1183.65  1191.48  1193.63  1196.13
eigval :     1214.75  1235.69  1244.92  1254.76  1262.53  1267.66
eigval :     1274.78  1277.35  1280.36  1282.80  1293.35  1307.72
eigval :     1314.80  1318.02  1320.38  1325.89  1327.02  1331.86
eigval :     1333.05  1343.63  1362.32  1369.10  1404.36  1408.72
eigval :     1411.93  1414.69  1418.53  1432.71  1437.48  1441.83
eigval :     1441.97  1451.37  1465.63  1468.87  1469.48  1471.98
eigval :     1478.06  1483.86  1500.49  1505.81  1508.02  1540.30
eigval :     1551.44  1554.84  1573.18  1574.31  1576.40  1578.23
eigval :     1588.70  1594.17  2960.69  2977.36  3044.38  3047.63
eigval :     3059.05  3073.72  3077.75  3078.58  3079.74  3079.90
eigval :     3081.73  3085.71  3087.79  3088.32  3088.85  3091.67
eigval :     3092.94  3093.73  3096.41  3099.24  3099.90  3101.97
eigval :     3106.71  3107.49  3114.81  3118.45  3128.68  3133.12

   temp. (K)  partition function   enthalpy   heat capacity  entropy
                                   cal/mol     cal/K/mol   cal/K/mol   J/K/mol
 298.15  VIB  0.868E+17            21398.179    133.789    133.910
         ROT  0.105E+09              888.752      2.981     39.682
         INT  0.910E+25            22286.932    136.770    173.592
         TR   0.144E+29             1481.254      4.968     45.062
         TOT                       23768.1858   141.7384   218.6541   914.8487

       T/K    H(0)-H(T)+PV         H(T)/Eh          T*S/Eh         G(T)/Eh
   ------------------------------------------------------------------------
    298.15    0.378770E-01    0.583067E+00    0.103890E+00    0.479178E+00
   ------------------------------------------------------------------------

         :::::::::::::::::::::::::::::::::::::::::::::::::::::
         ::                  THERMODYNAMIC                  ::
         :::::::::::::::::::::::::::::::::::::::::::::::::::::
         :: total free energy        -113.335183564046 Eh   ::
         ::.................................................::
         :: total energy             -113.814361230103 Eh   ::
         :: zero point energy           0.545190262862 Eh   ::
         :: G(RRHO) w/o ZPVE           -0.066012596805 Eh   ::
         :: G(RRHO) contrib.            0.479177666058 Eh   ::
         :::::::::::::::::::::::::::::::::::::::::::::::::::::

           -------------------------------------------------
          | TOTAL ENERGY             -113.814361230103 Eh   |
          | TOTAL ENTHALPY           -113.231293952240 Eh   |
          | TOTAL FREE ENERGY        -113.335183564046 Eh   |
          | GRADIENT NORM               0.000091619630 Eh/α |
           -------------------------------------------------

 * finished run on 2025/07/18 at 21:43:13.259
