   * xtb version 6.7.1 (edcfbbe) compiled by 'albert@albert-system' on 2024-07-22

   ID    Z sym.   atoms
    1    6 C      1, 2, 4-9, 11-21, 23-37, 41-44
    2    7 N      3, 22, 38, 40
    3   16 S      10, 39
    4    1 H      45-72

          program call               : xtb data2507/gas/PBTPA/PBTPA_gas_S0_finalOpt.xtbopt.xyz --gfn 2 --spinpol --tblite --uhf 2 --ohess vtight --parallel 40 --molden --ceasefiles --namespace data2507/gas/PBTPA/PBTPA_gas_T1_preOpt
 * total energy  :  -113.8053470 Eh     change       -0.3992797E-07 Eh
 * total energy  :  -113.8099888 Eh     change       -0.4641818E-02 Eh
 * total energy  :  -113.8117519 Eh     change       -0.1763056E-02 Eh
 * total energy  :  -113.8119752 Eh     change       -0.2233185E-03 Eh
 * total energy  :  -113.8121679 Eh     change       -0.1926645E-03 Eh
 * total energy  :  -113.8122882 Eh     change       -0.1203492E-03 Eh
 * total energy  :  -113.8124119 Eh     change       -0.1236650E-03 Eh
 * total energy  :  -113.8125173 Eh     change       -0.1054009E-03 Eh
 * total energy  :  -113.8126045 Eh     change       -0.8721925E-04 Eh
 * total energy  :  -113.8126700 Eh     change       -0.6550808E-04 Eh
 * total energy  :  -113.8137129 Eh     change       -0.1117572E-05 Eh
 * total energy  :  -113.8137138 Eh     change       -0.8379092E-06 Eh
 * total energy  :  -113.8137144 Eh     change       -0.6583167E-06 Eh
 * total energy  :  -113.8137151 Eh     change       -0.6441193E-06 Eh
 * total energy  :  -113.8137157 Eh     change       -0.6515384E-06 Eh
 * total energy  :  -113.8137163 Eh     change       -0.5538351E-06 Eh
 * total energy  :  -113.8137167 Eh     change       -0.4320620E-06 Eh
 * total energy  :  -113.8137170 Eh     change       -0.3210749E-06 Eh
 * total energy  :  -113.8137170 Eh     change       -0.4367891E-08 Eh
   *** GEOMETRY OPTIMIZATION CONVERGED AFTER 68 ITERATIONS ***

 final structure:
================
72
 xtb: 6.7.1 (edcfbbe)
C           -7.79146024177270        2.28616669836644       -1.69203528730286
C           -8.20047523694585        1.83776036425109       -0.28986154438274
N           -7.54413013577946        0.59551787534227        0.07019582742554
C           -8.29698550274654       -0.48859619473636        0.50712757336655
C           -9.48826023800136       -0.30232517410975        1.21420095677803
C          -10.25215335389842       -1.37750848727686        1.62498891461539
C           -9.84046453814180       -2.67368483679641        1.36145911423825
C           -8.64565892063341       -2.88185144348983        0.69927467529893
C           -7.88058396564877       -1.80560247429884        0.27741441176968
S           -6.39090756251455       -2.14349913758993       -0.60636031360745
C           -5.48070291707115       -0.67611151908829       -0.20578018542385
C           -4.10916767770929       -0.74815992128911       -0.22683018206919
C           -3.30596748180757        0.38870186581384       -0.00922740259273
C           -1.87694542296566        0.32633676991176       -0.02219108138584
C           -1.18127477663166       -0.91654904752624        0.05791445522464
C            0.17518670708212       -1.01585677294295        0.07720465353291
C            1.04608757971739        0.10799034274352       -0.01854767559415
C            2.47123405327514       -0.04354560818719       -0.00147513958350
C            3.08842777644377       -1.20659647136622        0.50670094647759
C            4.45178513396132       -1.35172635618026        0.52100335652066
C            5.28598872317517       -0.34380390559619        0.02051464150283
N            6.66897531371950       -0.49336763775815        0.03243405925934
C            7.24197808784741       -1.75719284690294       -0.14710643485843
C            8.37958623913278       -2.12499682566709        0.57227200564326
C            8.94308856869221       -3.37253082059441        0.38999544745804
C            8.38308334574752       -4.27203492374899       -0.50296885266700
C            7.25256276858760       -3.91182455612823       -1.21876620418931
C            6.68440381917195       -2.66475199785783       -1.04845527930483
C            7.49675292515750        0.61863367928804        0.22694585975752
C            8.70149018773937        0.73012369391624       -0.46778615636669
C            9.51795834066219        1.82619677473824       -0.26965028905596
C            9.14717837262472        2.82658930133510        0.61449218364000
C            7.95042407607387        2.72109058277355        1.30500049528562
C            7.12939476238114        1.62636205976012        1.11915582911282
C            4.69003716729940        0.81972276572377       -0.48442881244147
C            3.32735647596478        0.96527345101648       -0.49049924325416
C            0.39702321516886        1.36589043985034       -0.13182309147234
N            0.99204123164117        2.54854063561326       -0.23241867639969
S           -0.14769117960093        3.72318368748233       -0.29841843878910
N           -1.45368410403002        2.73751885900094       -0.19529246014428
C           -1.04612516832757        1.47726025807578       -0.10509451794723
C           -3.99484458862834        1.59707306551189        0.23647650004377
C           -5.36339095882919        1.66052498983786        0.26492177651209
C           -6.16032752680517        0.52771721431659        0.04107854299148
H           -8.02477070371179        1.50647979108006       -2.41369418854278
H           -8.34113199487296        3.18445328172906       -1.96043385684128
H           -6.72752006407042        2.49854147968228       -1.74766280005944
H           -9.27586877480086        1.65863342330724       -0.29072296275719
H           -7.98618229504995        2.62571811211954        0.44137867242083
H           -9.81275002612735        0.69577232305058        1.46399847962136
H          -11.17055737697513       -1.19856159904702        2.16308129216067
H          -10.43752181699313       -3.51429499154879        1.67776023011519
H           -8.29454291356976       -3.88047980944166        0.48960782863850
H           -3.66663067507041       -1.70118711129452       -0.46759625424071
H           -1.75759201513219       -1.82429232225498        0.14025947197015
H            0.61319514208279       -2.00041097134665        0.13106190797771
H            2.48755290038942       -1.98882400461807        0.94346666483090
H            4.89523582450819       -2.24165736200177        0.94472139149181
H            8.81016782361457       -1.42895141994899        1.27718998193679
H            9.82108888762000       -3.64744023179626        0.95555367084367
H            8.82509807621194       -5.24701875039397       -0.64045367521623
H            6.81422548685682       -4.60447851473103       -1.92186210302218
H            5.81109505131244       -2.37938928751144       -1.61620898310331
H            8.98574347996218       -0.04331052358926       -1.16629427321543
H           10.44625529469925        1.90371388463742       -0.81608248084373
H            9.78675648559144        3.68298218787840        0.76413181435741
H            7.65684601816192        3.49362272521531        1.99993780894918
H            6.20248130786128        1.53933463392586        1.66632950976173
H            5.31740323488318        1.60011320153921       -0.89022695815781
H            2.88616212609149        1.86279821212526       -0.89116985018914
H           -3.41526878301408        2.48757571155379        0.41559645906436
H           -5.83289715903772        2.60468059735995        0.49059447620549

 projected vibrational frequencies (cm⁻¹)
eigval :       -0.00    -0.00    -0.00    -0.00     0.00     0.00
eigval :        8.20    10.92    17.43    20.72    30.40    40.96
eigval :       45.65    49.19    57.84    67.20    73.82    76.06
eigval :       88.70   101.87   105.98   122.67   133.05   146.10
eigval :      149.28   164.07   174.13   191.22   195.35   207.29
eigval :      226.10   232.60   247.70   251.50   280.42   288.75
eigval :      303.63   311.23   329.16   333.21   347.29   360.44
eigval :      377.78   378.17   382.70   386.46   401.71   403.23
eigval :      406.87   412.94   423.24   431.60   445.31   473.36
eigval :      479.48   492.15   502.05   503.24   506.45   525.88
eigval :      537.06   559.55   566.84   582.34   584.91   588.09
eigval :      592.46   598.11   601.14   616.47   638.27   653.92
eigval :      659.55   662.20   665.15   671.77   678.59   688.86
eigval :      711.55   719.57   735.63   757.39   760.61   771.26
eigval :      772.70   781.87   800.73   812.01   814.84   822.76
eigval :      844.84   846.36   847.65   865.90   873.61   874.85
eigval :      882.72   890.18   893.00   894.36   901.23   903.98
eigval :      908.98   909.20   911.93   917.23   920.44   927.68
eigval :      929.10   929.44   929.87   941.91   965.58   979.39
eigval :      987.81  1004.15  1018.16  1033.90  1039.01  1082.16
eigval :     1083.11  1085.93  1098.53  1103.90  1121.74  1123.88
eigval :     1128.93  1131.54  1148.21  1151.29  1159.00  1174.83
eigval :     1180.04  1180.27  1183.16  1184.65  1193.48  1196.22
eigval :     1214.25  1231.49  1241.08  1256.99  1261.84  1268.21
eigval :     1272.87  1277.20  1280.85  1287.18  1296.17  1306.80
eigval :     1313.76  1317.89  1320.46  1322.20  1324.71  1326.83
eigval :     1331.86  1347.23  1363.54  1368.78  1404.60  1408.66
eigval :     1410.19  1416.61  1418.70  1432.36  1436.97  1441.56
eigval :     1442.76  1449.67  1465.10  1467.76  1468.64  1471.26
eigval :     1473.79  1482.10  1487.23  1497.08  1504.99  1542.25
eigval :     1553.53  1556.67  1573.04  1574.08  1576.89  1578.09
eigval :     1588.43  1593.63  2915.44  3004.78  3041.08  3049.02
eigval :     3057.51  3074.32  3078.34  3079.22  3080.40  3080.62
eigval :     3082.28  3086.60  3086.99  3088.17  3089.37  3092.31
eigval :     3093.61  3094.35  3097.65  3099.66  3099.78  3100.34
eigval :     3100.52  3102.81  3107.34  3110.54  3118.25  3120.71

   temp. (K)  partition function   enthalpy   heat capacity  entropy
                                   cal/mol     cal/K/mol   cal/K/mol   J/K/mol
 298.15  VIB  0.933E+17            21463.098    134.071    134.328
         ROT  0.104E+09              888.752      2.981     39.670
         INT  0.973E+25            22351.851    137.052    173.999
         TR   0.144E+29             1481.254      4.968     45.062
         TOT                       23833.1045   142.0198   219.0607   916.5501

       T/K    H(0)-H(T)+PV         H(T)/Eh          T*S/Eh         G(T)/Eh
   ------------------------------------------------------------------------
    298.15    0.379805E-01    0.582675E+00    0.104083E+00    0.478592E+00
   ------------------------------------------------------------------------

         :::::::::::::::::::::::::::::::::::::::::::::::::::::
         ::                  THERMODYNAMIC                  ::
         :::::::::::::::::::::::::::::::::::::::::::::::::::::
         :: total free energy        -113.335125253257 Eh   ::
         ::.................................................::
         :: total energy             -113.813717036947 Eh   ::
         :: zero point energy           0.544694136292 Eh   ::
         :: G(RRHO) w/o ZPVE           -0.066102352601 Eh   ::
         :: G(RRHO) contrib.            0.478591783690 Eh   ::
         :::::::::::::::::::::::::::::::::::::::::::::::::::::

           -------------------------------------------------
          | TOTAL ENERGY             -113.813717036947 Eh   |
          | TOTAL ENTHALPY           -113.231042431102 Eh   |
          | TOTAL FREE ENERGY        -113.335125253257 Eh   |
          | GRADIENT NORM               0.000047487239 Eh/α |
           -------------------------------------------------

 * finished run on 2025/07/18 at 21:34:48.793
