   * xtb version 6.7.1 (edcfbbe) compiled by 'albert@albert-system' on 2024-07-22

   ID    Z sym.   atoms
    1    6 C      1, 2, 4-9, 11-21, 23-37, 41-44
    2    7 N      3, 22, 38, 40
    3   16 S      10, 39
    4    1 H      45-72

          program call               : xtb data2507/gas/PBTPA/PBTPA.xyz --gfn 2 --ohess vtight --parallel 40 --molden --ceasefiles --namespace data2507/gas/PBTPA/PBTPA_gas_S0_preOpt
          :  Hamiltonian                  GFN2-xTB          :
 * total energy  :  -113.8329329 Eh     change       -0.2587683E-08 Eh
 * total energy  :  -113.8510391 Eh     change       -0.1810616E-01 Eh
 * total energy  :  -113.8574645 Eh     change       -0.6425426E-02 Eh
 * total energy  :  -113.8600505 Eh     change       -0.2586054E-02 Eh
 * total energy  :  -113.8621757 Eh     change       -0.2125117E-02 Eh
 * total energy  :  -113.8632883 Eh     change       -0.1112676E-02 Eh
 * total energy  :  -113.8638373 Eh     change       -0.5489614E-03 Eh
 * total energy  :  -113.8641674 Eh     change       -0.3301551E-03 Eh
 * total energy  :  -113.8644246 Eh     change       -0.2571568E-03 Eh
 * total energy  :  -113.8646384 Eh     change       -0.2138319E-03 Eh
 * total energy  :  -113.8660700 Eh     change       -0.4539350E-06 Eh
 * total energy  :  -113.8660706 Eh     change       -0.5876838E-06 Eh
 * total energy  :  -113.8660714 Eh     change       -0.7170927E-06 Eh
 * total energy  :  -113.8660719 Eh     change       -0.5870664E-06 Eh
 * total energy  :  -113.8660724 Eh     change       -0.4797146E-06 Eh
 * total energy  :  -113.8660730 Eh     change       -0.5563267E-06 Eh
 * total energy  :  -113.8660736 Eh     change       -0.5796407E-06 Eh
 * total energy  :  -113.8660741 Eh     change       -0.5117444E-06 Eh
 * total energy  :  -113.8660741 Eh     change       -0.1203696E-07 Eh
   *** GEOMETRY OPTIMIZATION CONVERGED AFTER 68 ITERATIONS ***

 final structure:
================
72
 xtb: 6.7.1 (edcfbbe)
C           -8.64566389824356        2.50191869674725        0.60248295678295
C           -8.36283596157165        1.20462714579354        1.36668596201686
N           -7.72433342167216        0.16414582607833        0.58489057157135
C           -8.52697882456364       -0.70572672933465       -0.15449989240154
C           -9.86774927315890       -0.41047055519865       -0.41573831512984
C          -10.67827195727285       -1.26808063426728       -1.13958366460362
C          -10.17573982791379       -2.44880121456262       -1.64985538114555
C           -8.85149388442857       -2.76446822537398       -1.40758357033615
C           -8.04726175760157       -1.91892662682543       -0.66221409908572
S           -6.41127829876739       -2.49525667433478       -0.32292016042311
C           -5.61413143103435       -0.96263906749924        0.06021022218205
C           -4.23713458422992       -0.95411514318006       -0.03511651208810
C           -3.48961034170664        0.16662505295488        0.32517574655415
C           -2.03196933723107        0.15486055195595        0.25235105265217
C           -1.29309991185730       -0.99523302960329        0.44504072065443
C            0.10428054083012       -1.02477604073942        0.38412560500744
C            0.87108066233130        0.09100995845310        0.11462310965271
C            2.32987922612956        0.04259103631976        0.06555440346143
C            3.04235347261212       -0.83270545177826        0.88858105726231
C            4.41787069397485       -0.88632191253521        0.85102258011773
C            5.13578821841816       -0.06978768967913       -0.02495477601243
N            6.52958209410465       -0.12440352428571       -0.06756595082356
C            7.19084478065490       -1.34360783618671        0.12262699466186
C            8.39018699490720       -1.39397785779794        0.83270572341213
C            9.04223571183042       -2.59823000610920        1.01260525945311
C            8.50956669775348       -3.76890587763216        0.49797454214064
C            7.31670625308652       -3.72488160379839       -0.20504302676221
C            6.66126465335928       -2.52443555558525       -0.39747351708454
C            7.27269298559999        1.04064332999456       -0.29433468683435
C            8.43144329564554        0.99854388218665       -1.06924402432251
C            9.16699199953212        2.14779922687681       -1.28379488369086
C            8.75841538046363        3.35448154509679       -0.73977959266779
C            7.60552338305456        3.40235129997717        0.02680190210831
C            6.86751930009987        2.25717860505096        0.25418311232977
C            4.42915095048852        0.80562471358802       -0.85171724533978
C            3.05415702714660        0.86375498885988       -0.80043756165444
C            0.15408226527413        1.29392084017497       -0.10355623858555
N            0.66375047580378        2.49588325785487       -0.37307820405540
S           -0.53654648886016        3.55395342051337       -0.52060020265022
N           -1.76446739134853        2.55325719757826       -0.24570425133263
C           -1.28636789932880        1.32936367045939       -0.01979258882552
C           -4.19390146756878        1.28015013251526        0.77273095424437
C           -5.57213155305216        1.27429444679059        0.84915009903106
C           -6.33457888874087        0.15668286656147        0.49474736327916
H           -9.30650247256602        2.32846260718771       -0.24210598982933
H           -9.11759619376990        3.21792211160392        1.27128584277476
H           -7.73015391722320        2.93968941954173        0.21498785300859
H           -9.29805452624612        0.79789705329834        1.76183409216734
H           -7.71987292462267        1.41696998759566        2.22547281602928
H          -10.30982826963706        0.49968847528814       -0.04977065978484
H          -11.71047372937293       -0.99786879549812       -1.30492148533698
H          -10.79990246445337       -3.11818525638079       -2.22032330223497
H           -8.42600659386511       -3.68602851665499       -1.77476499734396
H           -3.75071727002985       -1.84516873946197       -0.40142382769855
H           -1.80891280721357       -1.91560249064200        0.67440370528561
H            0.59752361025259       -1.97302885941028        0.53821202115642
H            2.51267002284720       -1.45338656678771        1.59606728090469
H            4.95130253646824       -1.55498278149556        1.51095034203647
H            8.80267506107547       -0.48386210966431        1.24315577594668
H            9.96921058826885       -2.62353844791540        1.56650190404687
H            9.02050823491354       -4.70854823864260        0.64340783516637
H            6.89701051116576       -4.63171401561648       -0.61525371285486
H            5.73693425629819       -2.49078088787193       -0.95544944379984
H            8.74692398154063        0.06047783052264       -1.50225151926421
H           10.06143599521568        2.10179727740520       -1.88760980889669
H            9.33438845555441        4.25100726517246       -0.91203296862047
H            7.28213804104667        4.33769843922882        0.45940650202945
H            5.97444563099515        2.29540116387956        0.86046022931864
H            4.97067262010702        1.43684740883665       -1.54094312210298
H            2.52557378868560        1.54297170345371       -1.44960925809524
H           -3.65626198318279        2.16654579225265        1.06699458653901
H           -6.04894984518380        2.17140873469034        1.20363871670349

          :  Hamiltonian                  GFN2-xTB          :
         :: gradient norm              0.000056141137 Eh/a0 ::
         :: HOMO-LUMO gap              1.039155173179 eV    ::
         :: SCC energy              -115.823711856963 Eh    ::
         :: -> dispersion             -0.101358726590 Eh    ::
         :: repulsion energy           1.957637779490 Eh    ::

    * Orbital Energies and Occupations

         #    Occupation            Energy/Eh            Energy/eV
      -------------------------------------------------------------
         1        2.0000           -0.7539533             -20.5161
       ...           ...                  ...                  ...
        94        2.0000           -0.4078433             -11.0980
        95        2.0000           -0.4071196             -11.0783
        96        2.0000           -0.4063683             -11.0578
        97        2.0000           -0.4060221             -11.0484
        98        2.0000           -0.4042623             -11.0005
        99        2.0000           -0.4036211             -10.9831
       100        2.0000           -0.4025779             -10.9547
       101        2.0000           -0.3996869             -10.8760
       102        2.0000           -0.3993960             -10.8681
       103        2.0000           -0.3841596             -10.4535
       104        2.0000           -0.3724368             -10.1345
       105        2.0000           -0.3473652              -9.4523
       106        2.0000           -0.3368820              -9.1670 (HOMO)
       107                         -0.2986938              -8.1279 (LUMO)
       108                         -0.2476141              -6.7379
       109                         -0.2352845              -6.4024
       110                         -0.2295665              -6.2468
       111                         -0.2283538              -6.2138
       112                         -0.2258267              -6.1451
       113                         -0.2229085              -6.0656
       114                         -0.2207431              -6.0067
       115                         -0.2186550              -5.9499
       116                         -0.2137065              -5.8152
       117                         -0.2104476              -5.7266
       ...                                ...                  ...
       214                          0.7367739              20.0486
      -------------------------------------------------------------
                  HL-Gap            0.0381882 Eh            1.0392 eV

     #   Z          covCN         q      C6AA      α(0)
     1   6 C        3.750    -0.112    22.699     6.795
     2   6 C        3.748     0.002    20.610     6.475
     3   7 N        2.740    -0.072    22.637     7.066
     4   6 C        2.939     0.058    26.706     8.476
     5   6 C        2.929    -0.061    29.520     8.910
     6   6 C        2.920    -0.036    28.889     8.814
     7   6 C        2.918    -0.039    28.978     8.827
     8   6 C        2.991    -0.040    28.980     8.831
     9   6 C        2.974     0.034    27.234     8.560
    10  16 S        2.149    -0.157   147.690    20.454
    11   6 C        2.972     0.033    27.264     8.565
    12   6 C        2.998    -0.046    29.140     8.855
    13   6 C        2.973     0.006    27.886     8.662
    14   6 C        2.964    -0.004    28.114     8.697
    15   6 C        2.924    -0.040    28.988     8.829
    16   6 C        2.924    -0.040    28.998     8.831
    17   6 C        2.965    -0.004    28.119     8.698
    18   6 C        2.974     0.006    27.885     8.662
    19   6 C        2.924    -0.035    28.862     8.810
    20   6 C        2.920    -0.049    29.217     8.864
    21   6 C        2.924     0.064    26.557     8.451
    22   7 N        2.752    -0.073    22.646     7.068
    23   6 C        2.925     0.065    26.542     8.449
    24   6 C        2.922    -0.047    29.172     8.857
    25   6 C        2.920    -0.029    28.729     8.790
    26   6 C        2.919    -0.038    28.948     8.823
    27   6 C        2.920    -0.029    28.730     8.790
    28   6 C        2.922    -0.047    29.170     8.857
    29   6 C        2.925     0.065    26.544     8.449
    30   6 C        2.922    -0.047    29.172     8.857
    31   6 C        2.920    -0.029    28.731     8.790
    32   6 C        2.919    -0.038    28.945     8.823
    33   6 C        2.920    -0.029    28.723     8.789
    34   6 C        2.922    -0.047    29.163     8.856
    35   6 C        2.920    -0.048    29.189     8.860
    36   6 C        2.924    -0.030    28.759     8.794
    37   6 C        3.345     0.072    23.880     7.714
    38   7 N        1.853    -0.268    27.821     7.818
    39  16 S        2.665     0.305   129.218    19.132
    40   7 N        1.853    -0.270    27.860     7.823
    41   6 C        3.344     0.072    23.910     7.723
    42   6 C        2.924    -0.037    28.918     8.819
    43   6 C        2.927    -0.061    29.521     8.910
    44   6 C        2.939     0.057    26.711     8.476
    45   1 H        0.925     0.045     2.378     2.411
    46   1 H        0.925     0.042     2.425     2.435
    47   1 H        0.925     0.047     2.356     2.400
    48   1 H        0.924     0.047     2.352     2.398
    49   1 H        0.924     0.048     2.346     2.395
    50   1 H        0.926     0.039     2.459     2.452
    51   1 H        0.926     0.032     2.555     2.499
    52   1 H        0.926     0.034     2.524     2.484
    53   1 H        0.926     0.043     2.411     2.428
    54   1 H        0.926     0.044     2.392     2.419
    55   1 H        0.926     0.040     2.445     2.445
    56   1 H        0.926     0.039     2.464     2.455
    57   1 H        0.926     0.034     2.536     2.490
    58   1 H        0.926     0.032     2.556     2.500
    59   1 H        0.926     0.032     2.560     2.502
    60   1 H        0.926     0.032     2.563     2.504
    61   1 H        0.926     0.030     2.581     2.512
    62   1 H        0.926     0.032     2.561     2.502
    63   1 H        0.926     0.032     2.552     2.498
    64   1 H        0.926     0.032     2.564     2.504
    65   1 H        0.926     0.031     2.565     2.505
    66   1 H        0.926     0.030     2.581     2.512
    67   1 H        0.926     0.032     2.552     2.498
    68   1 H        0.926     0.034     2.530     2.487
    69   1 H        0.926     0.034     2.529     2.487
    70   1 H        0.926     0.050     2.316     2.380
    71   1 H        0.926     0.052     2.294     2.369
    72   1 H        0.926     0.042     2.428     2.437

molecular dipole:
                 x           y           z       tot (Debye)
 q only:       -0.334       0.715       0.320
   full:       -0.455       0.637       0.409       2.246

 projected vibrational frequencies (cm⁻¹)
eigval :       -0.00    -0.00     0.00     0.00     0.00     0.00
eigval :        9.80    11.37    16.40    23.80    30.66    39.81
eigval :       43.77    50.23    55.56    67.50    73.91    77.23
eigval :       83.74    99.72   105.72   107.99   126.58   142.15
eigval :      165.02   173.59   180.43   189.36   196.94   203.73
eigval :      231.87   239.34   243.90   252.31   272.14   300.29
eigval :      307.68   319.71   333.67   356.27   375.66   377.63
eigval :      379.26   380.19   386.81   391.80   404.88   418.98
eigval :      426.99   432.29   436.16   451.23   463.93   473.61
eigval :      485.77   490.10   500.82   504.44   513.52   536.30
eigval :      545.05   574.18   579.10   584.66   586.31   593.27
eigval :      602.83   607.89   612.23   628.63   645.21   653.59
eigval :      659.87   663.42   666.20   669.92   686.87   694.24
eigval :      713.66   737.72   744.32   757.26   761.77   770.79
eigval :      781.61   811.06   814.87   820.89   839.24   859.46
eigval :      864.70   868.58   869.92   874.77   876.22   887.00
eigval :      892.08   892.57   894.03   900.07   900.95   906.23
eigval :      908.46   910.64   915.13   915.36   924.27   927.62
eigval :      929.19   929.49   929.62   950.22   959.28   984.96
eigval :      994.55  1005.08  1028.16  1032.95  1045.36  1074.34
eigval :     1083.08  1084.11  1109.77  1121.91  1124.10  1132.18
eigval :     1139.92  1141.92  1145.89  1150.62  1161.14  1180.70
eigval :     1180.80  1186.53  1187.38  1193.58  1195.50  1198.74
eigval :     1216.48  1238.11  1250.89  1258.57  1262.76  1271.73
eigval :     1277.29  1279.10  1281.96  1285.32  1307.19  1310.75
eigval :     1313.74  1317.71  1319.62  1326.88  1328.19  1330.28
eigval :     1334.31  1339.55  1352.11  1363.63  1368.67  1395.70
eigval :     1412.70  1416.16  1417.74  1436.45  1443.09  1464.62
eigval :     1471.36  1476.00  1476.36  1485.89  1487.23  1498.54
eigval :     1504.46  1510.79  1526.08  1532.50  1549.93  1562.14
eigval :     1564.44  1575.83  1577.15  1581.14  1590.88  1593.07
eigval :     1594.65  1600.83  2951.09  2966.84  3039.91  3048.91
eigval :     3060.87  3075.66  3076.07  3076.79  3077.41  3077.84
eigval :     3083.42  3084.17  3084.49  3086.13  3087.05  3089.10
eigval :     3089.94  3090.37  3091.66  3093.81  3097.27  3097.55
eigval :     3097.74  3104.49  3113.22  3114.79  3132.31  3132.84

   temp. (K)  partition function   enthalpy   heat capacity  entropy
                                   cal/mol     cal/K/mol   cal/K/mol   J/K/mol
 298.15  VIB  0.619E+17            21224.372    132.613    132.872
         ROT  0.103E+09              888.752      2.981     39.648
         INT  0.638E+25            22113.124    135.594    172.520
         TR   0.144E+29             1481.254      4.968     45.062
         TOT                       23594.3779   140.5617   217.5824   910.3649

       T/K    H(0)-H(T)+PV         H(T)/Eh          T*S/Eh         G(T)/Eh
   ------------------------------------------------------------------------
    298.15    0.376000E-01    0.584909E+00    0.103380E+00    0.481528E+00
   ------------------------------------------------------------------------

         :::::::::::::::::::::::::::::::::::::::::::::::::::::
         ::                  THERMODYNAMIC                  ::
         :::::::::::::::::::::::::::::::::::::::::::::::::::::
         :: total free energy        -113.384545855068 Eh   ::
         ::.................................................::
         :: total energy             -113.866074077469 Eh   ::
         :: zero point energy           0.547308622419 Eh   ::
         :: G(RRHO) w/o ZPVE           -0.065780400018 Eh   ::
         :: G(RRHO) contrib.            0.481528222401 Eh   ::
         :::::::::::::::::::::::::::::::::::::::::::::::::::::

           -------------------------------------------------
          | TOTAL ENERGY             -113.866074077469 Eh   |
          | TOTAL ENTHALPY           -113.281165420442 Eh   |
          | TOTAL FREE ENERGY        -113.384545855068 Eh   |
          | GRADIENT NORM               0.000056264258 Eh/α |
          | HOMO-LUMO GAP               1.039154956377 eV   |
           -------------------------------------------------

 * finished run on 2025/07/18 at 21:27:22.355
