   * xtb version 6.7.1 (edcfbbe) compiled by 'albert@albert-system' on 2024-07-22

   ID    Z sym.   atoms
    1    6 C      1-20, 22-41, 43-69
    2    7 N      21, 42
    3    1 H      70-137

          program call               : xtb data2507/toluene/F-2CzB/F-2CzB_toluene_S0_finalOpt.xtbopt.xyz --gfn 2 --uhf 2 --gbsa toluene --ohess vtight --parallel 40 --molden --ceasefiles --namespace data2507/toluene/F-2CzB/F-2CzB_toluene_T1_preOpt
      * Solvation model:               GBSA
        Solvent                        toluene
        Solvent mass                       9.2140E+01 g/mol
          :  Hamiltonian                  GFN2-xTB          :
 * total energy  :  -184.1523920 Eh     change       -0.2749357E-07 Eh
 * total energy  :  -184.1581062 Eh     change       -0.5714167E-02 Eh
 * total energy  :  -184.1605852 Eh     change       -0.2479049E-02 Eh
 * total energy  :  -184.1610231 Eh     change       -0.4378903E-03 Eh
 * total energy  :  -184.1618183 Eh     change       -0.7951646E-03 Eh
 * total energy  :  -184.1621489 Eh     change       -0.3306639E-03 Eh
 * total energy  :  -184.1622978 Eh     change       -0.1488489E-03 Eh
 * total energy  :  -184.1623678 Eh     change       -0.7004600E-04 Eh
 * total energy  :  -184.1624500 Eh     change       -0.8210802E-04 Eh
 * total energy  :  -184.1625143 Eh     change       -0.6430787E-04 Eh
 * total energy  :  -184.1632422 Eh     change       -0.4726719E-06 Eh
 * total energy  :  -184.1632428 Eh     change       -0.5733113E-06 Eh
 * total energy  :  -184.1632433 Eh     change       -0.4977436E-06 Eh
 * total energy  :  -184.1632437 Eh     change       -0.4341174E-06 Eh
 * total energy  :  -184.1632442 Eh     change       -0.4233014E-06 Eh
 * total energy  :  -184.1632445 Eh     change       -0.3466027E-06 Eh
 * total energy  :  -184.1632447 Eh     change       -0.2058187E-06 Eh
 * total energy  :  -184.1632448 Eh     change       -0.1047685E-06 Eh
 * total energy  :  -184.1632449 Eh     change       -0.8746275E-07 Eh
   *** GEOMETRY OPTIMIZATION CONVERGED AFTER 61 ITERATIONS ***

 final structure:
================
137
 xtb: 6.7.1 (edcfbbe)
C           11.68348031084484       -5.44293105251851        1.69659562736310
C           12.12568312980400       -4.67400203748481        0.44223729490278
C           13.62119014323746       -4.36952586528508        0.57429715256563
C           11.92656434037461       -5.55173616532958       -0.80258978194720
C           11.28117674738738       -3.41471580574427        0.30883130831169
C            9.89131599390464       -3.54095533653561        0.17715183174807
C            9.04556229591463       -2.45566900092518        0.06570539309702
C            9.60385862816448       -1.18587849658207        0.09927284968883
C           11.00417976467189       -1.03264588488266        0.19513519620947
C           11.83158877970459       -2.14137101330524        0.30342678257219
C           11.26358953961829        0.38127604563805        0.13976854756513
C           12.42949703672903        1.13112486347250        0.20131113446873
C           12.36240653416611        2.51575117782626        0.14917037563797
C           13.60019084511804        3.40032553072263        0.19744634837877
C           14.89901839535727        2.59238917377595        0.28217506964878
C           13.52320516772085        4.31003031565138        1.43299965334557
C           13.65532776157197        4.25732026313258       -1.07643608118823
C           11.10030978194093        3.11941123595863        0.06158463781834
C            9.92504711595533        2.39805350719114       -0.00036887033489
C           10.00721962461256        1.01307863511810        0.01364663989664
N            9.00866188146090        0.05712347398132       -0.01196479463480
C            7.64184201915133        0.30472450827253       -0.12888252917853
C            6.72322372845383       -0.35002514848021        0.70059345513495
C            5.37876642505202       -0.10634783906284        0.58286615996625
C            4.87039984612431        0.81760265413137       -0.35634980470206
C            3.46259334373758        1.08189149776649       -0.46221783795155
C            2.98301302199367        2.33565956835345       -0.92734422272650
C            1.65167414073795        2.62415127968608       -1.00729519690976
C            0.70556016649940        1.63952488738865       -0.64564061278907
C            1.17373821589434        0.36361273448380       -0.19908912243352
C            2.50195461058418        0.09875102112801       -0.09633572443721
C           -0.00144658957897       -0.54279629086692        0.10204775671999
C           -0.00432712664559       -0.97915602978979        1.57154619244890
C           -0.00115196440264       -1.76936216588013       -0.81789556948564
C           -1.17301019452515        0.36829576136931       -0.20039650890459
C           -2.50077938247377        0.10416642921534       -0.10728142891207
C           -3.46565437270091        1.09741049482277       -0.44822542651144
C           -4.87053614211600        0.83586115041798       -0.35240548603817
C           -5.38139841146729       -0.21125329855030        0.45252065021377
C           -6.72458136584379       -0.46420079956655        0.54792996917112
C           -7.65077470394653        0.31949307901785       -0.15215216506062
N           -9.01801198045106        0.06830900576396       -0.04828902000666
C           -9.62714382533598       -1.16667463939896       -0.16012347252013
C           -9.08636655661200       -2.40659933835611       -0.46815893819755
C           -9.94326202691317       -3.48550591826481       -0.55123732203510
C          -11.32606623916974       -3.37831609971136       -0.34648083000015
C          -12.18477913167878       -4.63070874809993       -0.45180776026665
C          -12.05948528066221       -5.20902475074819       -1.86950858732215
C          -11.69773094299474       -5.66361854954388        0.57577164968127
C          -13.66686603999614       -4.35421561256988       -0.18000393878169
C          -11.85867450342571       -2.12744366214331       -0.06922471965573
C          -11.02061913175140       -1.02501179988519        0.01840407894348
C          -11.25932440713923        0.37388157491624        0.25680787631431
C          -12.40736909622598        1.10653857357948        0.52232013107288
C          -12.31728556448358        2.47306924811135        0.74505715077752
C          -13.53459227672233        3.33875625624701        1.03799257882216
C          -13.64263093267966        4.43616855322811       -0.03158299095441
C          -13.37501774569496        3.97949796421260        2.42517952579230
C          -14.84167688868149        2.53979022119081        1.03110817752890
C          -11.05072923457904        3.07321061123949        0.71243666201614
C           -9.89273931766569        2.36919237920653        0.45057706729777
C           -9.99913760882213        1.00853958347821        0.20174614197662
C           -7.17209957120153        1.36224943296841       -0.95559599930567
C           -5.82766564832936        1.60835323418297       -1.05416249194560
C           -2.97377697098072        2.36304321462777       -0.87964661667988
C           -1.64253414448659        2.64178775475261       -0.97125362629442
C           -0.69791151408880        1.64515149064690       -0.63812320139967
C            5.81444180091309        1.46894189943168       -1.18013315525893
C            7.15844412626267        1.21548153777084       -1.07647014572509
H           12.28754832674993       -6.33977956622850        1.81838615845550
H           10.64077159755931       -5.74158091152917        1.63251609942104
H           11.80604312842360       -4.82113075416716        2.58147960066870
H           13.99494943058195       -3.85254824232809       -0.30669869323702
H           14.17260242326574       -5.30242309212218        0.67453149325766
H           13.82149413048983       -3.76529676785908        1.45630666921381
H           12.21023204801645       -5.00311765035245       -1.69879732739915
H           12.54500803022693       -6.44439031574221       -0.73361424639948
H           10.89119544898276       -5.86364808483468       -0.90832891355951
H            9.44912573617144       -4.52533302241539        0.15636161693557
H            7.98305937681354       -2.60080507423945       -0.05715122793638
H           12.89491044443633       -1.98671752211417        0.37777425963425
H           13.37070225951121        0.61572544147950        0.29356863806442
H           15.74775289747945        3.27330764886846        0.30329020253375
H           15.01236133681855        1.94160569969758       -0.58200987044547
H           14.92868492771631        1.99227454635625        1.18884286917028
H           14.41235798112407        4.93436541936149        1.49373592024189
H           12.65360493307268        4.96033990113604        1.39472433909872
H           13.46004712751058        3.70991275876579        2.33883655475010
H           14.54599104483550        4.88238192939227       -1.06857991205481
H           12.78685802318420        4.90513317514753       -1.15799792202309
H           13.68890371945310        3.61969072934245       -1.95792803035253
H           11.02924022437235        4.19627653515309        0.04561458756939
H            8.97322653313197        2.90527385175991       -0.04383855540798
H            7.08720109388169       -1.02311392865730        1.46298398621593
H            4.69992248995529       -0.59487923524452        1.26508466426457
H            3.70092576305788        3.10179278420784       -1.18177211265334
H            1.31654523404532        3.59640914378708       -1.33923929141207
H            2.84071707864977       -0.87621470576278        0.22133912816232
H            0.87722621164942       -1.57767740439191        1.78984204856650
H           -0.00251228816343       -0.10687598713381        2.22267640760961
H           -0.89006476938743       -1.57211863103210        1.78809612231110
H            0.88264564530726       -2.37708536637469       -0.63731441120507
H           -0.00050910286808       -1.45646164744561       -1.86046048447415
H           -0.88533159518265       -2.37682303437760       -0.63844196813690
H           -2.83365316298418       -0.87754240385237        0.19330160986595
H           -4.70434508498146       -0.80263673067918        1.04870881655594
H           -7.08427502093829       -1.24840330877483        1.19842566961346
H           -8.02952191301004       -2.52828075542433       -0.65176997708242
H           -9.51683913891917       -4.44778670233883       -0.79025288963561
H          -12.68043030587819       -6.09722699139130       -1.96731304630887
H          -12.38640567181155       -4.47632403512642       -2.60497610484713
H          -11.03337616065297       -5.48446790969001       -2.09715637882605
H          -10.66640131853554       -5.95183693768941        0.39233719890820
H          -11.76327462744151       -5.25305831541468        1.58166917344943
H          -12.31415767817611       -6.55897490377622        0.52746110466939
H          -14.07585259243999       -3.65745910885123       -0.90826865474225
H          -14.22783583442041       -5.28383819304981       -0.25479955724635
H          -13.81297042083320       -3.95347858038667        0.82061463857126
H          -12.91651065379640       -1.98522671043063        0.07501499126742
H          -13.35261006055748        0.59130709276046        0.55633815657431
H          -14.51743618549910        5.05554777622336        0.15578273398199
H          -12.76618947599927        5.07833204253058       -0.03300366429707
H          -13.74033549540927        3.99051419794322       -1.01974425573812
H          -13.26538499015862        3.20833705320773        3.18545382883045
H          -14.25194634837565        4.57785711780305        2.66391426149204
H          -12.50197996254751        4.62497795770623        2.46710455654368
H          -14.83429359488820        1.76955694729408        1.79904029133564
H          -15.01264042089804        2.07755633929615        0.06141710396523
H          -15.67517705089467        3.20895450619061        1.23591357164666
H          -10.96218384554804        4.13161118114963        0.90431082227489
H           -8.93435563481507        2.86622097005123        0.45517832822965
H           -7.87461562277968        1.94874429492335       -1.53005155598384
H           -5.49590379830704        2.38746138945360       -1.72257848594812
H           -3.68196433087902        3.14580484581415       -1.10674306469106
H           -1.30477024038219        3.61869123780886       -1.28687940806385
H            5.47004327131369        2.14623989105394       -1.94679457630556
H            7.85372081891551        1.69237751995837       -1.75192064306353

          :  Hamiltonian                  GFN2-xTB          :
         :: gradient norm              0.000068086532 Eh/a0 ::
         :: HOMO-LUMO gap              0.655999589557 eV    ::
         :: SCC energy              -187.436429345674 Eh    ::
         :: -> dispersion             -0.173330977113 Eh    ::
         :: -> Gsolv                  -0.071798429958 Eh    ::
         :: repulsion energy           3.273184348907 Eh    ::

    * Orbital Energies and Occupations

         #    Occupation            Energy/Eh            Energy/eV
      -------------------------------------------------------------
         1        2.0000           -0.6756762             -18.3861
       ...           ...                  ...                  ...
       162        2.0000           -0.4024059             -10.9500
       163        2.0000           -0.3981129             -10.8332
       164        2.0000           -0.3979274             -10.8282
       165        2.0000           -0.3972401             -10.8095
       166        2.0000           -0.3960304             -10.7765
       167        2.0000           -0.3910724             -10.6416
       168        2.0000           -0.3869852             -10.5304
       169        2.0000           -0.3751290             -10.2078
       170        2.0000           -0.3749569             -10.2031
       171        2.0000           -0.3647684              -9.9259
       172        1.9939           -0.3566688              -9.7055
       173        1.0061           -0.3469904              -9.4421
       174        1.0000           -0.2698133              -7.3420 (HOMO)
       175        0.0000           -0.2457056              -6.6860 (LUMO)
       176                         -0.2423051              -6.5935
       177                         -0.2378816              -6.4731
       178                         -0.2213253              -6.0226
       179                         -0.2203110              -5.9950
       180                         -0.2198005              -5.9811
       181                         -0.2196912              -5.9781
       182                         -0.2128896              -5.7930
       183                         -0.2094818              -5.7003
       184                         -0.2048717              -5.5748
       185                         -0.1938525              -5.2750
       ...                                ...                  ...
       344                          0.7534839              20.5033
      -------------------------------------------------------------
                  HL-Gap            0.0241078 Eh            0.6560 eV

     #   Z          covCN         q      C6AA      α(0)
     1   6 C        3.761    -0.105    22.552     6.770
     2   6 C        3.902     0.025    20.093     6.372
     3   6 C        3.761    -0.107    22.595     6.776
     4   6 C        3.761    -0.105    22.552     6.770
     5   6 C        2.972     0.001    27.994     8.679
     6   6 C        2.930    -0.040    29.000     8.832
     7   6 C        2.908    -0.051    29.255     8.869
     8   6 C        3.077     0.043    26.955     8.512
     9   6 C        3.065    -0.019    28.413     8.741
    10   6 C        2.917    -0.044    29.085     8.844
    11   6 C        3.065    -0.019    28.413     8.741
    12   6 C        2.917    -0.044    29.086     8.844
    13   6 C        2.972     0.001    27.995     8.679
    14   6 C        3.902     0.025    20.093     6.372
    15   6 C        3.761    -0.107    22.595     6.776
    16   6 C        3.761    -0.105    22.551     6.770
    17   6 C        3.761    -0.105    22.552     6.770
    18   6 C        2.930    -0.040    28.999     8.831
    19   6 C        2.908    -0.050    29.253     8.869
    20   6 C        3.077     0.043    26.954     8.512
    21   7 N        2.799    -0.032    21.853     6.943
    22   6 C        2.911     0.052    26.833     8.494
    23   6 C        2.916    -0.045    29.119     8.849
    24   6 C        2.922    -0.039    28.958     8.825
    25   6 C        2.970     0.004    27.927     8.668
    26   6 C        2.972    -0.005    28.140     8.701
    27   6 C        2.918    -0.040    28.983     8.828
    28   6 C        2.905    -0.042    29.037     8.836
    29   6 C        3.031    -0.008    28.195     8.710
    30   6 C        3.046    -0.005    28.110     8.696
    31   6 C        2.913    -0.045    29.116     8.848
    32   6 C        3.930     0.016    20.237     6.393
    33   6 C        3.758    -0.097    22.408     6.749
    34   6 C        3.758    -0.097    22.411     6.749
    35   6 C        3.045    -0.006    28.117     8.697
    36   6 C        2.913    -0.046    29.134     8.851
    37   6 C        2.970    -0.005    28.147     8.702
    38   6 C        2.968     0.003    27.945     8.671
    39   6 C        2.922    -0.039    28.980     8.828
    40   6 C        2.915    -0.045    29.110     8.847
    41   6 C        2.911     0.050    26.874     8.501
    42   7 N        2.799    -0.031    21.838     6.941
    43   6 C        3.079     0.043    26.949     8.511
    44   6 C        2.908    -0.050    29.242     8.867
    45   6 C        2.930    -0.040    28.997     8.831
    46   6 C        2.972     0.002    27.989     8.678
    47   6 C        3.902     0.025    20.092     6.372
    48   6 C        3.761    -0.105    22.551     6.770
    49   6 C        3.761    -0.105    22.554     6.770
    50   6 C        3.761    -0.107    22.596     6.776
    51   6 C        2.917    -0.044    29.082     8.843
    52   6 C        3.065    -0.019    28.412     8.741
    53   6 C        3.065    -0.019    28.412     8.741
    54   6 C        2.917    -0.044    29.082     8.843
    55   6 C        2.972     0.001    27.990     8.678
    56   6 C        3.902     0.025    20.093     6.372
    57   6 C        3.761    -0.105    22.553     6.770
    58   6 C        3.761    -0.105    22.551     6.770
    59   6 C        3.761    -0.107    22.597     6.776
    60   6 C        2.930    -0.040    28.996     8.831
    61   6 C        2.908    -0.050    29.243     8.867
    62   6 C        3.079     0.043    26.949     8.511
    63   6 C        2.915    -0.045    29.107     8.847
    64   6 C        2.921    -0.040    28.987     8.829
    65   6 C        2.918    -0.040    28.997     8.830
    66   6 C        2.905    -0.042    29.032     8.835
    67   6 C        3.032    -0.009    28.215     8.713
    68   6 C        2.921    -0.039    28.964     8.826
    69   6 C        2.916    -0.045    29.114     8.848
    70   1 H        0.925     0.039     2.468     2.457
    71   1 H        0.925     0.036     2.500     2.472
    72   1 H        0.925     0.033     2.548     2.496
    73   1 H        0.925     0.036     2.500     2.473
    74   1 H        0.925     0.037     2.485     2.465
    75   1 H        0.925     0.036     2.499     2.472
    76   1 H        0.925     0.033     2.549     2.497
    77   1 H        0.925     0.039     2.467     2.456
    78   1 H        0.925     0.036     2.501     2.473
    79   1 H        0.926     0.033     2.548     2.496
    80   1 H        0.926     0.031     2.577     2.510
    81   1 H        0.926     0.042     2.428     2.437
    82   1 H        0.926     0.042     2.427     2.436
    83   1 H        0.925     0.037     2.485     2.465
    84   1 H        0.925     0.036     2.498     2.472
    85   1 H        0.925     0.036     2.499     2.472
    86   1 H        0.925     0.039     2.466     2.456
    87   1 H        0.925     0.036     2.503     2.474
    88   1 H        0.925     0.033     2.549     2.497
    89   1 H        0.925     0.039     2.468     2.457
    90   1 H        0.925     0.036     2.501     2.473
    91   1 H        0.925     0.033     2.548     2.496
    92   1 H        0.926     0.033     2.550     2.497
    93   1 H        0.926     0.030     2.581     2.512
    94   1 H        0.926     0.036     2.501     2.473
    95   1 H        0.926     0.035     2.519     2.482
    96   1 H        0.926     0.025     2.661     2.551
    97   1 H        0.926     0.021     2.721     2.580
    98   1 H        0.926     0.025     2.657     2.549
    99   1 H        0.925     0.040     2.450     2.448
   100   1 H        0.925     0.032     2.564     2.504
   101   1 H        0.925     0.040     2.452     2.449
   102   1 H        0.925     0.040     2.446     2.446
   103   1 H        0.925     0.031     2.568     2.506
   104   1 H        0.925     0.040     2.447     2.446
   105   1 H        0.926     0.025     2.658     2.549
   106   1 H        0.926     0.034     2.526     2.486
   107   1 H        0.926     0.035     2.523     2.484
   108   1 H        0.926     0.030     2.582     2.513
   109   1 H        0.926     0.033     2.545     2.495
   110   1 H        0.925     0.039     2.464     2.455
   111   1 H        0.925     0.033     2.548     2.496
   112   1 H        0.925     0.036     2.501     2.473
   113   1 H        0.925     0.036     2.498     2.472
   114   1 H        0.925     0.033     2.547     2.495
   115   1 H        0.925     0.039     2.468     2.457
   116   1 H        0.925     0.036     2.499     2.472
   117   1 H        0.925     0.037     2.484     2.465
   118   1 H        0.925     0.036     2.498     2.472
   119   1 H        0.926     0.042     2.424     2.435
   120   1 H        0.926     0.042     2.423     2.434
   121   1 H        0.925     0.039     2.467     2.456
   122   1 H        0.925     0.036     2.501     2.473
   123   1 H        0.925     0.033     2.546     2.495
   124   1 H        0.925     0.033     2.549     2.497
   125   1 H        0.925     0.039     2.464     2.455
   126   1 H        0.925     0.036     2.502     2.474
   127   1 H        0.925     0.036     2.498     2.471
   128   1 H        0.925     0.036     2.498     2.471
   129   1 H        0.925     0.037     2.484     2.465
   130   1 H        0.926     0.033     2.547     2.496
   131   1 H        0.926     0.030     2.584     2.514
   132   1 H        0.926     0.034     2.526     2.485
   133   1 H        0.926     0.033     2.542     2.493
   134   1 H        0.926     0.025     2.662     2.551
   135   1 H        0.926     0.020     2.728     2.583
   136   1 H        0.926     0.034     2.536     2.490
   137   1 H        0.926     0.036     2.507     2.476

molecular dipole:
                 x           y           z       tot (Debye)
 q only:        0.010      -0.771       0.307
   full:        0.014      -0.659       0.265       1.807

 projected vibrational frequencies (cm⁻¹)
eigval :       -0.00    -0.00    -0.00     0.00     0.00     0.00
eigval :        4.04     4.29     9.16    11.48    19.61    23.76
eigval :       26.37    31.52    33.06    35.65    37.16    41.76
eigval :       43.68    52.62    54.84    57.60    69.41    73.04
eigval :       79.39    85.22    87.22    90.84    99.38   104.09
eigval :      114.40   117.25   124.36   127.84   144.43   156.88
eigval :      158.92   161.62   162.63   174.84   178.71   182.02
eigval :      188.70   189.22   201.78   202.42   203.60   211.53
eigval :      218.81   219.38   223.27   224.09   227.42   228.22
eigval :      229.20   235.83   250.05   257.61   258.73   259.33
eigval :      267.03   273.98   276.57   293.04   295.66   305.55
eigval :      312.66   314.95   315.73   319.32   319.54   320.92
eigval :      323.87   336.82   339.01   343.19   347.80   354.01
eigval :      358.81   358.93   362.73   369.91   381.88   382.67
eigval :      385.26   387.46   395.38   399.87   406.06   408.59
eigval :      408.92   409.76   423.51   435.00   438.17   441.88
eigval :      442.01   443.07   444.03   461.21   463.30   464.92
eigval :      465.55   466.25   468.39   492.87   498.99   517.24
eigval :      517.98   529.05   541.36   562.41   563.78   567.52
eigval :      569.63   575.20   581.38   584.46   585.80   593.61
eigval :      593.84   604.32   604.75   614.60   627.68   628.88
eigval :      640.69   641.03   668.38   670.42   672.12   678.44
eigval :      689.26   690.55   692.45   700.06   706.71   710.26
eigval :      717.35   717.84   723.77   730.12   735.31   788.64
eigval :      797.23   807.12   809.32   821.01   822.18   823.69
eigval :      824.34   825.22   829.26   831.50   835.53   844.68
eigval :      855.82   860.76   869.22   869.80   870.20   871.25
eigval :      871.90   872.28   872.40   894.25   903.39   906.83
eigval :      907.86   911.22   911.40   914.73   918.36   921.44
eigval :      921.54   924.63   924.67   925.79   926.54   935.93
eigval :      938.29   950.10   958.27   958.60   959.02   959.12
eigval :      959.35   961.06   961.51   961.99   962.36   962.72
eigval :      963.05   963.88   964.07   965.72   998.04   999.20
eigval :     1010.02  1029.25  1029.51  1033.05  1033.91  1034.38
eigval :     1034.61  1034.91  1035.13  1035.46  1039.59  1039.97
eigval :     1040.29  1060.60  1091.42  1106.21  1112.21  1127.23
eigval :     1127.55  1134.80  1135.62  1139.22  1140.49  1155.19
eigval :     1164.79  1168.94  1169.48  1170.70  1171.28  1190.92
eigval :     1209.46  1211.29  1215.13  1224.42  1224.52  1224.56
eigval :     1224.78  1228.44  1228.71  1229.41  1229.55  1230.39
eigval :     1232.79  1233.14  1240.20  1240.72  1241.72  1245.42
eigval :     1256.06  1256.72  1263.67  1266.49  1273.54  1281.21
eigval :     1282.22  1290.20  1296.56  1297.24  1299.21  1299.85
eigval :     1312.04  1318.72  1332.96  1333.46  1345.46  1346.68
eigval :     1347.85  1348.40  1358.45  1362.47  1372.07  1380.86
eigval :     1392.47  1398.70  1399.07  1400.74  1401.22  1401.89
eigval :     1402.66  1402.84  1403.13  1404.02  1409.28  1409.36
eigval :     1409.68  1422.26  1426.24  1426.39  1426.68  1426.87
eigval :     1428.12  1429.06  1437.73  1439.72  1459.62  1468.07
eigval :     1469.44  1474.41  1476.94  1479.43  1479.79  1482.51
eigval :     1484.39  1488.06  1488.64  1489.13  1489.23  1489.35
eigval :     1491.37  1491.56  1492.11  1492.23  1492.30  1492.93
eigval :     1494.88  1498.20  1498.29  1498.60  1498.63  1501.52
eigval :     1502.12  1502.43  1502.69  1502.76  1508.87  1511.17
eigval :     1511.29  1511.46  1511.64  1516.65  1516.69  1517.66
eigval :     1517.91  1535.50  1562.72  1562.98  1573.14  1574.38
eigval :     1581.22  1587.78  1588.80  1598.21  1600.48  1603.41
eigval :     1609.74  3018.86  3019.20  3019.29  3019.59  3020.05
eigval :     3020.16  3020.27  3020.36  3022.29  3023.30  3023.42
eigval :     3023.54  3023.75  3024.73  3024.89  3024.90  3025.02
eigval :     3025.27  3026.28  3027.24  3027.31  3027.34  3027.50
eigval :     3027.77  3030.29  3030.64  3030.76  3030.79  3032.92
eigval :     3035.55  3035.68  3035.77  3035.86  3036.02  3044.21
eigval :     3044.22  3044.49  3045.24  3047.42  3047.75  3047.90
eigval :     3048.47  3063.12  3065.55  3073.67  3074.42  3075.93
eigval :     3077.04  3078.33  3079.93  3079.96  3081.42  3081.60
eigval :     3082.04  3082.41  3084.92  3090.88  3091.40  3093.03
eigval :     3093.14  3093.51  3094.31  3095.56  3098.26  3115.63
eigval :     3116.38  3118.60  3119.58

   temp. (K)  partition function   enthalpy   heat capacity  entropy
                                   cal/mol     cal/K/mol   cal/K/mol   J/K/mol
 298.15  VIB  0.147E+32            39514.571    243.716    246.671
         ROT  0.575E+09              888.752      2.981     43.063
         INT  0.842E+40            40403.323    246.697    289.734
         TR   0.262E+29             1481.254      4.968     46.251
         TOT                       41884.5769   251.6647   335.9849  1405.7606

       T/K    H(0)-H(T)+PV         H(T)/Eh          T*S/Eh         G(T)/Eh
   ------------------------------------------------------------------------
    298.15    0.667473E-01    0.120497E+01    0.159637E+00    0.104533E+01
   ------------------------------------------------------------------------

         :::::::::::::::::::::::::::::::::::::::::::::::::::::
         ::                  THERMODYNAMIC                  ::
         :::::::::::::::::::::::::::::::::::::::::::::::::::::
         :: total free energy        -183.117912058892 Eh   ::
         ::.................................................::
         :: total energy             -184.163244998395 Eh   ::
         :: zero point energy           1.138222864004 Eh   ::
         :: G(RRHO) w/o ZPVE           -0.092889924501 Eh   ::
         :: G(RRHO) contrib.            1.045332939503 Eh   ::
         :::::::::::::::::::::::::::::::::::::::::::::::::::::

           -------------------------------------------------
          | TOTAL ENERGY             -184.163244998395 Eh   |
          | TOTAL ENTHALPY           -182.958274812424 Eh   |
          | TOTAL FREE ENERGY        -183.117912058892 Eh   |
          | GRADIENT NORM               0.000067213891 Eh/α |
          | HOMO-LUMO GAP               0.656005986469 eV   |
           -------------------------------------------------

 * finished run on 2025/08/26 at 10:39:08.577
