   * xtb version 6.7.1 (edcfbbe) compiled by 'albert@albert-system' on 2024-07-22

   ID    Z sym.   atoms
    1    6 C      1-20, 22-41, 43-69
    2    7 N      21, 42
    3    1 H      70-137

          program call               : xtb data2507/toluene/F-2CzB/F-2CzB_toluene_T1_crest.xyz --gfn 2 --uhf 2 --gbsa toluene --ohess vtight --parallel 40 --molden --ceasefiles --namespace data2507/toluene/F-2CzB/F-2CzB_toluene_T1_finalOpt
      * Solvation model:               GBSA
        Solvent                        toluene
        Solvent mass                       9.2140E+01 g/mol
          :  Hamiltonian                  GFN2-xTB          :
 * total energy  :  -184.1632512 Eh     change       -0.1244342E-07 Eh
 * total energy  :  -184.1632826 Eh     change       -0.3139498E-04 Eh
 * total energy  :  -184.1632989 Eh     change       -0.1629080E-04 Eh
 * total energy  :  -184.1633065 Eh     change       -0.7681225E-05 Eh
 * total energy  :  -184.1633131 Eh     change       -0.6529053E-05 Eh
 * total energy  :  -184.1633151 Eh     change       -0.2069354E-05 Eh
 * total energy  :  -184.1633186 Eh     change       -0.3451724E-05 Eh
 * total energy  :  -184.1633219 Eh     change       -0.3273022E-05 Eh
 * total energy  :  -184.1633250 Eh     change       -0.3100842E-05 Eh
 * total energy  :  -184.1633280 Eh     change       -0.3067627E-05 Eh
 * total energy  :  -184.1633717 Eh     change       -0.6245546E-06 Eh
 * total energy  :  -184.1633723 Eh     change       -0.6010365E-06 Eh
 * total energy  :  -184.1633729 Eh     change       -0.5369546E-06 Eh
 * total energy  :  -184.1633733 Eh     change       -0.4393290E-06 Eh
 * total energy  :  -184.1633737 Eh     change       -0.3831574E-06 Eh
 * total energy  :  -184.1633741 Eh     change       -0.3752461E-06 Eh
 * total energy  :  -184.1633745 Eh     change       -0.4281797E-06 Eh
 * total energy  :  -184.1633750 Eh     change       -0.5536219E-06 Eh
 * total energy  :  -184.1633750 Eh     change       -0.5402484E-08 Eh
   *** GEOMETRY OPTIMIZATION CONVERGED AFTER 68 ITERATIONS ***

 final structure:
================
137
 xtb: 6.7.1 (edcfbbe)
C           11.69316092776383       -5.55369533279060        1.38732448195361
C           12.12126258595082       -4.72056217372951        0.16967360710158
C           13.61900696517197       -4.42555549803802        0.29774782731339
C           11.90451043012698       -5.53127148014186       -1.11706220771175
C           11.27789299134011       -3.45476854272282        0.11334205992154
C            9.88711926977934       -3.57179438365414       -0.01802368949901
C            9.04308430073755       -2.48085691153124       -0.06951419622222
C            9.60431398827876       -1.21570999367227        0.02775145594295
C           11.00482934339031       -1.06947945603051        0.13176140279579
C           11.83041247288420       -2.18380278829837        0.17755009513145
C           11.26544971995046        0.34529715431060        0.15360480016917
C           12.43078686481413        1.09046691918463        0.26387236954098
C           12.36366620055628        2.47591930547273        0.28963531291248
C           13.60074286560380        3.35580347843361        0.40138964329253
C           14.89721086856635        2.54315397455131        0.47659273453089
C           13.50067984582067        4.21032602442874        1.67419485919069
C           13.68094297167849        4.26815144689468       -0.83202151068029
C           11.10258362025656        3.08433212470291        0.22147388381565
C            9.92773041198275        2.36781516827096        0.11261413247586
C           10.00997619413402        0.98396015508984        0.05586536597495
N            9.01087227069875        0.03174222441694       -0.02052093351748
C            7.64443819431871        0.28584762864207       -0.12717080874047
C            6.72454270678414       -0.39825631943287        0.67718138188845
C            5.38092566643707       -0.14764435877502        0.56980533337369
C            4.87137430088525        0.80773550981902       -0.33868543912362
C            3.46509444925655        1.07393258769678       -0.43948837220939
C            2.98394578490959        2.32904067064417       -0.90345117126009
C            1.65321663492053        2.61659108116039       -0.98758340614428
C            0.70597511733275        1.63267126517795       -0.62618917676242
C            1.17404214068561        0.35906837152958       -0.17234978536153
C            2.50162872714956        0.09250768581003       -0.07177071885484
C           -0.00176592364813       -0.54423989102404        0.13611065076201
C           -0.00266123225818       -0.97235141681453        1.60794976233354
C           -0.00479488339345       -1.77600129579637       -0.77697641369291
C           -1.17279692103398        0.36580710428830       -0.17117490869308
C           -2.50136257190404        0.10567848842575       -0.07152049059377
C           -3.46199068107291        1.09490856550483       -0.42988339767091
C           -4.86851509920559        0.83631214211415       -0.33002810640152
C           -5.38216875383341       -0.15410008103959        0.53958913161373
C           -6.72639630757425       -0.40175476027322        0.64103992962681
C           -7.64633137657488        0.32620292730550       -0.12411535868614
N           -9.01371267890623        0.07557476091236       -0.02015118115491
C           -9.61361280383386       -1.16913809481042       -0.04074856315769
C           -9.06058621416426       -2.42690759536017       -0.23277711797272
C           -9.90972666457902       -3.51501347249158       -0.24060071474074
C          -11.29702516927462       -3.40089686433937       -0.07393842497110
C          -12.14664053002893       -4.66383320228753       -0.08766318264598
C          -11.97989751146267       -5.37002742928126       -1.44173597091186
C          -11.68321534855498       -5.59391100099508        1.04387920509582
C          -13.63685929941158       -4.37385183220959        0.11704315049938
C          -11.84166576581331       -2.13472255131997        0.08486762255523
C          -11.01127615541393       -1.02317031520218        0.09671855056266
C          -11.26279816356142        0.38888770353983        0.21220308751841
C          -12.42081650461449        1.13196100286018        0.39147159584194
C          -12.34423255198698        2.51302969634892        0.50034728562411
C          -13.57237497171733        3.39008417830036        0.69774722479745
C          -13.66356133897389        4.39871888811095       -0.45724854636092
C          -13.44521769107438        4.13831842282768        2.03345618719097
C          -14.87436079577265        2.58338085083228        0.72681691890851
C          -11.08106309013624        3.11829592369145        0.44339691031472
C           -9.91330845307839        2.40391257379593        0.26649616623370
C          -10.00537606864234        1.02619907376804        0.13084109023925
C           -7.16214292961408        1.31108638604233       -0.99421691347677
C           -5.81721744450743        1.55708619666752       -1.09244470001544
C           -2.97197281478206        2.35159402930828       -0.88391907892640
C           -1.64007210030812        2.62984826417963       -0.97373152040785
C           -0.69739898527491        1.63762113256373       -0.62283662385383
C            5.81841909162333        1.48692379971299       -1.13834113416284
C            7.16206655727400        1.23213620398209       -1.04007112463694
H           12.29741242728623       -6.45613158551126        1.45464771884656
H           10.64931040078084       -5.84768333409496        1.31991169865921
H           11.82707149792080       -4.97921260169190        2.30206861761139
H           13.98085164679955       -3.85931728756744       -0.55759674626873
H           14.17026768937052       -5.36311889499217        0.33670140250096
H           13.83293283033601       -3.87281976821988        1.20980408195016
H           12.17719191750940       -4.93643066015413       -1.98677198964727
H           12.52241519152868       -6.42686708572624       -1.10341255421531
H           10.86754919660102       -5.83673648173147       -1.22562267120880
H            9.44305807691309       -4.55302919146138       -0.08824785418990
H            7.97971906383193       -2.61668572373865       -0.19572552593762
H           12.89417442552240       -2.03519163326647        0.25765573153434
H           13.37135875426487        0.57059255673834        0.33499523737732
H           15.74524901918324        3.22124940947616        0.55063805302346
H           15.03102910058645        1.93523347104037       -0.41538882802194
H           14.90531670279407        1.89948919536394        1.35341309901125
H           14.39156301011617        4.82575581189706        1.78211837604455
H           12.63599216807081        4.86758845761441        1.64597202470563
H           13.41417427356915        3.57117106005592        2.55089880890771
H           14.56850549248465        4.89517788462775       -0.77656032709085
H           12.81139947185798        4.91568697233869       -0.90443231366726
H           13.73691790307956        3.66985794953770       -1.73958304625134
H           11.03201513406716        4.16061543457230        0.26085608707556
H            8.97589884426331        2.87645806669772        0.08669503911616
H            7.08790007500689       -1.10053077019409        1.41323394727270
H            4.70337095805929       -0.65872445898258        1.23635779435665
H            3.70046069197667        3.09694850814266       -1.15572657701661
H            1.31877557385058        3.58846360538419       -1.32144129444450
H            2.83735776752793       -0.88283585987014        0.24740252527698
H            0.87986957527645       -1.56855603480993        1.82863767826173
H           -0.00111399671767       -0.09651122651382        2.25426189202272
H           -0.88740237244909       -1.56528569190102        1.82860543435947
H            0.87739270319190       -2.38504214264811       -0.59303037932958
H           -0.00327938482893       -1.46883869444428       -1.82125724365220
H           -0.89063192035030       -2.38003925548926       -0.59414708474199
H           -2.83954704380861       -0.87026242676964        0.24261439563761
H           -4.70671525552259       -0.69910927935300        1.18062866059003
H           -7.09116760645309       -1.13694548083394        1.34365892353248
H           -7.99991741953613       -2.55712572443170       -0.38568271898500
H           -9.47305459520382       -4.49103033105987       -0.38767428760974
H          -12.59632338338107       -6.26614039738207       -1.47459788724813
H          -12.28667919766258       -4.70997256942629       -2.25098057210380
H          -10.94741920507497       -5.66153591393946       -1.61355833122067
H          -10.64656811553605       -5.89217666787945        0.91411695908070
H          -11.77590410889927       -5.09180760231431        2.00513522305527
H          -12.29546262240819       -6.49327248262278        1.06348708633794
H          -14.02700307664786       -3.74527873814211       -0.68028736547495
H          -14.19205864743375       -5.30984684692018        0.10758454864223
H          -13.81316606265874       -3.88874883410067        1.07454475121359
H          -12.90299456302053       -1.98766623107355        0.19449714605935
H          -13.36321848005344        0.61367476385445        0.44905552698619
H          -14.54873266853725        5.02088998439311       -0.34135921705049
H          -12.79361237566434        5.04891637135401       -0.48774224051545
H          -13.73140813305678        3.87499944178874       -1.40897143364295
H          -13.35134092186140        3.42916191715602        2.85378739096020
H          -14.32827228311903        4.75051407905826        2.20499496577330
H          -12.57414753870465        4.78771993700990        2.04410915032750
H          -14.87933242883259        1.87726918689713        1.55412718015418
H          -15.02121136933344        2.04366507571449       -0.20609100128807
H          -15.71612785147880        3.26036151232872        0.85923954124407
H          -11.00308849443538        4.18974821845280        0.54723575283118
H           -8.95861361705601        2.90773306416065        0.25045248715596
H           -7.85889409116352        1.85146912007858       -1.61840581313699
H           -5.47714837976181        2.28940943426738       -1.80827683775497
H           -3.68231440547027        3.12819580624772       -1.12611995055132
H           -1.30075956365016        3.60181444198916       -1.30250468954241
H            5.47698200005092        2.18990255529521       -1.88265398825037
H            7.85864502974028        1.73525665737067       -1.69487504274835

          :  Hamiltonian                  GFN2-xTB          :
         :: gradient norm              0.000052180860 Eh/a0 ::
         :: HOMO-LUMO gap              0.654081764756 eV    ::
         :: SCC energy              -187.436718218258 Eh    ::
         :: -> dispersion             -0.173337018766 Eh    ::
         :: -> Gsolv                  -0.071776035152 Eh    ::
         :: repulsion energy           3.273343176847 Eh    ::

    * Orbital Energies and Occupations

         #    Occupation            Energy/Eh            Energy/eV
      -------------------------------------------------------------
         1        2.0000           -0.6755887             -18.3837
       ...           ...                  ...                  ...
       162        2.0000           -0.4024849             -10.9522
       163        2.0000           -0.3980447             -10.8313
       164        2.0000           -0.3980107             -10.8304
       165        2.0000           -0.3973042             -10.8112
       166        2.0000           -0.3960472             -10.7770
       167        2.0000           -0.3910819             -10.6419
       168        2.0000           -0.3869981             -10.5308
       169        2.0000           -0.3750715             -10.2062
       170        2.0000           -0.3750369             -10.2053
       171        2.0000           -0.3647565              -9.9255
       172        1.9939           -0.3566693              -9.7055
       173        1.0061           -0.3470014              -9.4424
       174        1.0000           -0.2697089              -7.3392 (HOMO)
       175        0.0000           -0.2456718              -6.6851 (LUMO)
       176                         -0.2422953              -6.5932
       177                         -0.2378628              -6.4726
       178                         -0.2209728              -6.0130
       179                         -0.2206634              -6.0046
       180                         -0.2197634              -5.9801
       181                         -0.2197413              -5.9795
       182                         -0.2129135              -5.7937
       183                         -0.2094384              -5.6991
       184                         -0.2049119              -5.5759
       185                         -0.1938303              -5.2744
       ...                                ...                  ...
       344                          0.7534970              20.5037
      -------------------------------------------------------------
                  HL-Gap            0.0240371 Eh            0.6541 eV

     #   Z          covCN         q      C6AA      α(0)
     1   6 C        3.761    -0.105    22.551     6.770
     2   6 C        3.902     0.025    20.093     6.372
     3   6 C        3.761    -0.107    22.595     6.776
     4   6 C        3.761    -0.105    22.553     6.770
     5   6 C        2.972     0.001    27.992     8.679
     6   6 C        2.930    -0.040    28.999     8.831
     7   6 C        2.908    -0.050    29.252     8.868
     8   6 C        3.078     0.043    26.953     8.512
     9   6 C        3.065    -0.019    28.412     8.741
    10   6 C        2.917    -0.044    29.084     8.844
    11   6 C        3.065    -0.019    28.413     8.741
    12   6 C        2.917    -0.044    29.084     8.844
    13   6 C        2.972     0.001    27.992     8.679
    14   6 C        3.902     0.025    20.093     6.372
    15   6 C        3.761    -0.107    22.596     6.776
    16   6 C        3.761    -0.105    22.552     6.770
    17   6 C        3.761    -0.105    22.551     6.770
    18   6 C        2.930    -0.040    28.998     8.831
    19   6 C        2.908    -0.050    29.249     8.868
    20   6 C        3.078     0.043    26.953     8.512
    21   7 N        2.799    -0.031    21.846     6.942
    22   6 C        2.911     0.051    26.847     8.496
    23   6 C        2.916    -0.045    29.116     8.848
    24   6 C        2.922    -0.039    28.966     8.826
    25   6 C        2.970     0.004    27.933     8.669
    26   6 C        2.972    -0.005    28.144     8.702
    27   6 C        2.918    -0.040    28.988     8.829
    28   6 C        2.905    -0.042    29.035     8.835
    29   6 C        3.032    -0.009    28.203     8.711
    30   6 C        3.046    -0.005    28.113     8.696
    31   6 C        2.913    -0.045    29.122     8.849
    32   6 C        3.930     0.016    20.237     6.393
    33   6 C        3.758    -0.097    22.408     6.749
    34   6 C        3.758    -0.097    22.411     6.749
    35   6 C        3.045    -0.005    28.115     8.697
    36   6 C        2.913    -0.045    29.127     8.850
    37   6 C        2.971    -0.005    28.146     8.702
    38   6 C        2.969     0.004    27.939     8.670
    39   6 C        2.922    -0.039    28.972     8.827
    40   6 C        2.915    -0.045    29.112     8.848
    41   6 C        2.911     0.051    26.859     8.498
    42   7 N        2.799    -0.031    21.843     6.941
    43   6 C        3.078     0.043    26.951     8.511
    44   6 C        2.908    -0.050    29.247     8.868
    45   6 C        2.930    -0.040    28.997     8.831
    46   6 C        2.972     0.001    27.991     8.678
    47   6 C        3.902     0.025    20.093     6.372
    48   6 C        3.761    -0.105    22.552     6.770
    49   6 C        3.761    -0.105    22.553     6.770
    50   6 C        3.761    -0.107    22.596     6.776
    51   6 C        2.917    -0.044    29.083     8.843
    52   6 C        3.065    -0.019    28.413     8.741
    53   6 C        3.065    -0.019    28.413     8.741
    54   6 C        2.917    -0.044    29.084     8.844
    55   6 C        2.972     0.001    27.992     8.678
    56   6 C        3.902     0.025    20.093     6.372
    57   6 C        3.761    -0.105    22.553     6.770
    58   6 C        3.761    -0.105    22.551     6.770
    59   6 C        3.761    -0.107    22.596     6.776
    60   6 C        2.930    -0.040    28.997     8.831
    61   6 C        2.908    -0.050    29.247     8.868
    62   6 C        3.078     0.043    26.951     8.511
    63   6 C        2.915    -0.045    29.109     8.847
    64   6 C        2.921    -0.039    28.979     8.828
    65   6 C        2.918    -0.040    28.992     8.830
    66   6 C        2.905    -0.042    29.034     8.835
    67   6 C        3.032    -0.009    28.209     8.712
    68   6 C        2.921    -0.039    28.971     8.827
    69   6 C        2.916    -0.045    29.112     8.848
    70   1 H        0.925     0.039     2.467     2.456
    71   1 H        0.925     0.036     2.500     2.472
    72   1 H        0.925     0.033     2.547     2.496
    73   1 H        0.925     0.036     2.500     2.472
    74   1 H        0.925     0.037     2.485     2.465
    75   1 H        0.925     0.036     2.498     2.472
    76   1 H        0.925     0.033     2.549     2.497
    77   1 H        0.925     0.039     2.467     2.456
    78   1 H        0.925     0.036     2.500     2.473
    79   1 H        0.926     0.033     2.547     2.496
    80   1 H        0.926     0.031     2.578     2.511
    81   1 H        0.926     0.042     2.426     2.436
    82   1 H        0.926     0.042     2.425     2.435
    83   1 H        0.925     0.037     2.485     2.465
    84   1 H        0.925     0.036     2.498     2.472
    85   1 H        0.925     0.036     2.499     2.472
    86   1 H        0.925     0.039     2.466     2.456
    87   1 H        0.925     0.036     2.502     2.473
    88   1 H        0.925     0.033     2.549     2.497
    89   1 H        0.925     0.039     2.467     2.456
    90   1 H        0.925     0.036     2.501     2.473
    91   1 H        0.925     0.033     2.547     2.496
    92   1 H        0.926     0.033     2.549     2.497
    93   1 H        0.926     0.030     2.582     2.513
    94   1 H        0.926     0.036     2.508     2.476
    95   1 H        0.926     0.035     2.522     2.483
    96   1 H        0.926     0.025     2.662     2.551
    97   1 H        0.926     0.021     2.724     2.581
    98   1 H        0.926     0.025     2.657     2.549
    99   1 H        0.925     0.040     2.451     2.448
   100   1 H        0.925     0.032     2.564     2.504
   101   1 H        0.925     0.040     2.452     2.449
   102   1 H        0.925     0.040     2.446     2.446
   103   1 H        0.925     0.031     2.568     2.506
   104   1 H        0.925     0.040     2.447     2.446
   105   1 H        0.926     0.025     2.658     2.549
   106   1 H        0.926     0.034     2.524     2.484
   107   1 H        0.926     0.035     2.515     2.480
   108   1 H        0.926     0.030     2.581     2.512
   109   1 H        0.926     0.033     2.546     2.495
   110   1 H        0.925     0.039     2.465     2.455
   111   1 H        0.925     0.033     2.549     2.497
   112   1 H        0.925     0.036     2.501     2.473
   113   1 H        0.925     0.036     2.499     2.472
   114   1 H        0.925     0.033     2.547     2.496
   115   1 H        0.925     0.039     2.468     2.457
   116   1 H        0.925     0.036     2.499     2.472
   117   1 H        0.925     0.037     2.485     2.465
   118   1 H        0.925     0.036     2.498     2.472
   119   1 H        0.926     0.042     2.425     2.435
   120   1 H        0.926     0.042     2.425     2.435
   121   1 H        0.925     0.039     2.468     2.457
   122   1 H        0.925     0.036     2.501     2.473
   123   1 H        0.925     0.033     2.546     2.495
   124   1 H        0.925     0.033     2.549     2.497
   125   1 H        0.925     0.039     2.465     2.455
   126   1 H        0.925     0.036     2.502     2.474
   127   1 H        0.925     0.036     2.498     2.472
   128   1 H        0.925     0.036     2.498     2.472
   129   1 H        0.925     0.037     2.484     2.465
   130   1 H        0.926     0.033     2.548     2.496
   131   1 H        0.926     0.030     2.584     2.514
   132   1 H        0.926     0.035     2.520     2.482
   133   1 H        0.926     0.033     2.540     2.492
   134   1 H        0.926     0.025     2.662     2.551
   135   1 H        0.926     0.020     2.726     2.582
   136   1 H        0.926     0.033     2.538     2.491
   137   1 H        0.926     0.035     2.514     2.479

molecular dipole:
                 x           y           z       tot (Debye)
 q only:        0.010      -0.773       0.303
   full:        0.011      -0.661       0.262       1.808

 projected vibrational frequencies (cm⁻¹)
eigval :       -0.00    -0.00     0.00     0.00     0.00     0.00
eigval :        3.16     3.90     8.56    11.47    18.98    24.00
eigval :       25.96    26.58    34.01    34.05    37.07    42.48
eigval :       44.56    53.38    55.31    57.72    70.27    73.51
eigval :       79.60    86.04    88.29    91.98    99.82   104.64
eigval :      115.70   116.75   124.48   128.20   144.82   158.10
eigval :      159.78   160.78   162.73   175.02   177.83   181.61
eigval :      188.68   189.16   200.42   202.10   203.86   211.46
eigval :      217.84   218.66   220.47   225.23   226.51   228.94
eigval :      229.93   235.82   249.93   257.22   258.02   258.78
eigval :      266.84   273.89   276.40   293.14   295.81   305.41
eigval :      311.73   314.92   317.61   319.07   319.31   322.09
eigval :      323.81   336.82   339.08   343.30   347.62   354.21
eigval :      357.71   358.93   362.70   370.34   381.92   384.89
eigval :      386.08   387.48   393.93   399.11   405.45   407.37
eigval :      408.90   409.88   423.62   434.60   437.99   440.59
eigval :      442.29   443.20   444.04   461.25   463.31   465.01
eigval :      465.31   466.29   468.09   493.65   498.25   517.39
eigval :      517.76   528.93   541.13   562.27   563.96   567.70
eigval :      569.51   575.18   581.64   583.10   585.98   593.66
eigval :      593.77   604.35   604.71   614.68   628.19   628.59
eigval :      640.43   640.93   669.24   670.49   671.82   678.22
eigval :      687.03   691.30   692.44   699.61   706.31   709.97
eigval :      717.39   717.69   723.58   730.16   735.29   787.51
eigval :      794.28   806.74   808.19   821.04   821.32   822.66
eigval :      823.35   824.71   829.45   831.74   837.09   844.98
eigval :      859.73   866.50   868.32   869.87   870.24   871.41
eigval :      871.49   872.30   873.19   894.19   897.97   905.93
eigval :      907.44   909.65   910.94   915.06   918.25   919.96
eigval :      921.43   924.17   924.88   925.13   925.82   936.07
eigval :      938.18   949.70   958.29   958.81   959.17   959.35
eigval :      959.70   961.27   961.59   962.14   962.22   963.15
eigval :      963.61   963.91   963.99   964.81   998.03   999.35
eigval :     1010.07  1029.26  1029.48  1034.20  1034.32  1034.75
eigval :     1034.79  1034.96  1035.27  1035.53  1038.84  1040.05
eigval :     1040.08  1060.35  1091.28  1106.23  1112.19  1126.97
eigval :     1127.30  1135.67  1136.14  1140.26  1140.78  1155.07
eigval :     1164.52  1168.79  1169.35  1170.02  1171.11  1191.53
eigval :     1209.38  1211.35  1215.32  1224.46  1224.62  1224.84
eigval :     1224.96  1228.39  1228.83  1229.26  1229.52  1229.86
eigval :     1232.51  1232.94  1240.58  1240.86  1242.26  1245.46
eigval :     1255.74  1256.90  1263.39  1268.12  1272.45  1281.31
eigval :     1281.88  1290.28  1296.70  1297.25  1299.14  1299.70
eigval :     1312.47  1318.92  1332.99  1333.52  1345.33  1346.55
eigval :     1347.83  1348.24  1358.41  1362.51  1372.01  1380.35
eigval :     1392.47  1398.72  1399.13  1400.84  1401.40  1401.94
eigval :     1403.13  1403.60  1403.64  1403.83  1409.35  1409.40
eigval :     1409.51  1422.31  1426.43  1426.67  1426.85  1427.09
eigval :     1428.17  1429.01  1437.77  1439.61  1459.78  1468.60
eigval :     1469.07  1474.92  1478.28  1479.44  1479.67  1481.73
eigval :     1484.25  1488.04  1488.98  1489.03  1489.42  1489.68
eigval :     1491.19  1491.31  1491.91  1491.95  1492.15  1492.47
eigval :     1494.74  1497.97  1498.14  1498.52  1498.54  1501.59
eigval :     1502.16  1502.21  1502.76  1502.91  1508.61  1511.45
eigval :     1511.58  1511.65  1511.82  1516.42  1517.16  1517.25
eigval :     1517.96  1535.30  1562.53  1562.89  1573.05  1574.25
eigval :     1581.22  1587.92  1588.52  1598.18  1600.39  1603.26
eigval :     1609.43  3018.82  3019.01  3019.06  3019.27  3019.78
eigval :     3019.91  3020.06  3020.37  3022.22  3023.34  3023.34
eigval :     3023.38  3023.73  3024.40  3024.67  3024.89  3025.11
eigval :     3025.34  3026.16  3027.08  3027.17  3027.22  3027.45
eigval :     3027.86  3030.57  3030.57  3030.70  3030.80  3032.74
eigval :     3035.58  3035.64  3035.77  3035.87  3036.10  3043.87
eigval :     3044.11  3044.86  3044.92  3047.15  3047.37  3048.16
eigval :     3048.29  3063.05  3065.59  3075.42  3075.52  3077.81
eigval :     3078.54  3078.62  3079.33  3080.24  3081.17  3081.19
eigval :     3081.48  3081.89  3083.65  3092.30  3092.48  3092.70
eigval :     3092.78  3093.49  3093.60  3095.00  3096.53  3116.43
eigval :     3116.74  3119.32  3119.71

   temp. (K)  partition function   enthalpy   heat capacity  entropy
                                   cal/mol     cal/K/mol   cal/K/mol   J/K/mol
 298.15  VIB  0.246E+32            39521.763    243.743    247.106
         ROT  0.574E+09              888.752      2.981     43.061
         INT  0.141E+41            40410.515    246.724    290.167
         TR   0.262E+29             1481.254      4.968     46.251
         TOT                       41891.7692   251.6922   336.4174  1407.5703

       T/K    H(0)-H(T)+PV         H(T)/Eh          T*S/Eh         G(T)/Eh
   ------------------------------------------------------------------------
    298.15    0.667588E-01    0.120495E+01    0.159843E+00    0.104511E+01
   ------------------------------------------------------------------------

         :::::::::::::::::::::::::::::::::::::::::::::::::::::
         ::                  THERMODYNAMIC                  ::
         :::::::::::::::::::::::::::::::::::::::::::::::::::::
         :: total free energy        -183.118265885239 Eh   ::
         ::.................................................::
         :: total energy             -184.163375042709 Eh   ::
         :: zero point energy           1.138193129920 Eh   ::
         :: G(RRHO) w/o ZPVE           -0.093083972450 Eh   ::
         :: G(RRHO) contrib.            1.045109157470 Eh   ::
         :::::::::::::::::::::::::::::::::::::::::::::::::::::

           -------------------------------------------------
          | TOTAL ENERGY             -184.163375042709 Eh   |
          | TOTAL ENTHALPY           -182.958423129144 Eh   |
          | TOTAL FREE ENERGY        -183.118265885239 Eh   |
          | GRADIENT NORM               0.000052140864 Eh/α |
          | HOMO-LUMO GAP               0.654081537911 eV   |
           -------------------------------------------------

 * finished run on 2025/08/26 at 11:10:14.684
