   * xtb version 6.7.1 (edcfbbe) compiled by 'albert@albert-system' on 2024-07-22

   ID    Z sym.   atoms
    1    6 C      1-20, 22-41, 43-69
    2    7 N      21, 42
    3    1 H      70-137

          program call               : xtb data2507/toluene/F-2CzB/F-2CzB_toluene_S0_crest.xyz --gfn 2 --gbsa toluene --ohess vtight --parallel 40 --molden --ceasefiles --namespace data2507/toluene/F-2CzB/F-2CzB_toluene_S0_finalOpt
      * Solvation model:               GBSA
        Solvent                        toluene
        Solvent mass                       9.2140E+01 g/mol
          :  Hamiltonian                  GFN2-xTB          :
 * total energy  :  -184.2488857 Eh     change       -0.3658783E-08 Eh
 * total energy  :  -184.2489216 Eh     change       -0.3599226E-04 Eh
 * total energy  :  -184.2489431 Eh     change       -0.2142844E-04 Eh
 * total energy  :  -184.2489547 Eh     change       -0.1159588E-04 Eh
 * total energy  :  -184.2489669 Eh     change       -0.1224495E-04 Eh
 * total energy  :  -184.2489697 Eh     change       -0.2753545E-05 Eh
 * total energy  :  -184.2489724 Eh     change       -0.2751673E-05 Eh
 * total energy  :  -184.2489744 Eh     change       -0.1939181E-05 Eh
 * total energy  :  -184.2489765 Eh     change       -0.2181818E-05 Eh
 * total energy  :  -184.2489793 Eh     change       -0.2715762E-05 Eh
 * total energy  :  -184.2490647 Eh     change       -0.2614692E-05 Eh
 * total energy  :  -184.2490672 Eh     change       -0.2461527E-05 Eh
 * total energy  :  -184.2490693 Eh     change       -0.2154940E-05 Eh
 * total energy  :  -184.2490712 Eh     change       -0.1892645E-05 Eh
 * total energy  :  -184.2490730 Eh     change       -0.1813114E-05 Eh
 * total energy  :  -184.2490751 Eh     change       -0.2018756E-05 Eh
 * total energy  :  -184.2490775 Eh     change       -0.2394796E-05 Eh
 * total energy  :  -184.2490803 Eh     change       -0.2832088E-05 Eh
 * total energy  :  -184.2490803 Eh     change       -0.3711364E-08 Eh
   *** GEOMETRY OPTIMIZATION CONVERGED AFTER 68 ITERATIONS ***

 final structure:
================
137
 xtb: 6.7.1 (edcfbbe)
C           11.69942917753334       -5.38195264951880        1.86467904167468
C           12.14315501004103       -4.65572961391691        0.58565919448946
C           13.63670999266515       -4.34008096454248        0.71412872972515
C           11.95433624306951       -5.57784109077431       -0.62805095143817
C           11.29392058626478       -3.40470864173184        0.40436060222430
C            9.90407387175294       -3.54137748911230        0.28172704392294
C            9.05331630050876       -2.46473947402322        0.13363181091935
C            9.60631170930591       -1.19300418367937        0.11782367204392
C           11.00507364877521       -1.02963957212770        0.20535428693151
C           11.83796903508001       -2.13196321999908        0.35156020140141
C           11.25711964567516        0.38177965699160        0.10864654674172
C           12.42051288718846        1.14020735476203        0.14649810857706
C           12.34704229994760        2.52033927327092        0.05393315712841
C           13.58009435018855        3.41372816553883        0.08133072498199
C           14.88308126175636        2.61587449040718        0.19399228892872
C           13.49327411569022        4.35645440960437        1.29107305033423
C           13.63729685018698        4.23577741699977       -1.21505883047510
C           11.08213661433173        3.11463710973964       -0.05616027448262
C            9.91053187743896        2.38636635575476       -0.09701113891863
C            9.99870805968902        1.00385506369003       -0.03373263242563
N            9.00518550773582        0.04278332107442       -0.02945351610531
C            7.62936261150038        0.28500141772202       -0.12937682689302
C            6.74315578206894       -0.30567167203605        0.76828830351533
C            5.38850872128885       -0.06154587406141        0.66898776886003
C            4.88359831621371        0.79603874522649       -0.30706887680284
C            3.44311289569261        1.07893265499521       -0.37957058257246
C            2.99239415021229        2.38697693250178       -0.55833929867064
C            1.64178137874522        2.68337759082368       -0.59436838653061
C            0.72752318759085        1.65005432214137       -0.46279523500785
C            1.17006219600011        0.32764930047171       -0.30350445734723
C            2.51477381323386        0.04190465280548       -0.25382832802954
C           -0.00384519346036       -0.62210549965207       -0.20410181609331
C           -0.00498973351744       -1.36925007078878        1.13374796013880
C           -0.00631128154650       -1.61628385357188       -1.37091664423073
C           -1.17328582990534        0.33366413570262       -0.29936112275073
C           -2.51895282746551        0.05327523743778       -0.25046481322411
C           -3.44544854311962        1.09608959350190       -0.34779408872467
C           -4.88656819549795        0.81873467919045       -0.28038374735119
C           -5.38791372884809       -0.14795393272323        0.59122896902928
C           -6.74243483204116       -0.39951385884530        0.67257756139760
C           -7.63543893444857        0.30976158367237       -0.12609833099671
N           -9.01281694552938        0.06445924052430       -0.03834108490632
C           -9.62539390394649       -1.17032227101599       -0.11891420499184
C           -9.08529349822560       -2.42182692979647       -0.37282602885123
C           -9.94546063343630       -3.49947670418138       -0.43016186479064
C          -11.33074109231484       -3.38018285957880       -0.24910608136103
C          -12.19296552788660       -4.63355234355103       -0.32431243383437
C          -12.05004793458667       -5.26153022586805       -1.71886555107879
C          -11.72705505979371       -5.63288618848372        0.74529858046424
C          -13.67787982531284       -4.34250056580647       -0.08472446617944
C          -11.86059784391359       -2.12098099230989       -0.01947491401945
C          -11.01895437855195       -1.01720419568626        0.04128402110246
C          -11.25345148535395        0.38699121387427        0.23854174169906
C          -12.40149560397831        1.13379599438763        0.47268752715389
C          -12.30755229424954        2.50374793661381        0.65534604340919
C          -13.52233297533944        3.38372772999954        0.91885246860834
C          -13.62448693943367        4.44919157041365       -0.18286126151686
C          -13.36399748532811        4.06448643713579        2.28683925629877
C          -14.83269414400943        2.59022632236927        0.93292708420356
C          -11.03885671759262        3.09863425498354        0.60773737758227
C           -9.88210689033197        2.38284085859985        0.37562206487655
C           -9.99137217516367        1.01503270374183        0.17662715598888
C           -7.14567788738869        1.26998238671836       -1.00727436860635
C           -5.79028280018563        1.52035233190178       -1.07803406887700
C           -2.98598950984911        2.40581487309677       -0.49711387032728
C           -1.63461304133295        2.69465702630410       -0.55120807356715
C           -0.72417416507300        1.65452646040158       -0.45166567506018
C            5.77797669543238        1.38538144825055       -1.19879455949001
C            7.13155049828899        1.12552949733024       -1.12236927707173
H           12.31143180479918       -6.26740526818706        2.02518108720602
H           10.66026745829286       -5.69359171170959        1.80412401716617
H           11.80840264199788       -4.72567054503890        2.72628985462340
H           14.01262493812569       -3.85282744186926       -0.18280265652516
H           14.19218490565972       -5.26606473240105        0.85065338268121
H           13.82926402712494       -3.70298336321452        1.57457531500490
H           12.24735856121097       -5.06223658538131       -1.54076526536459
H           12.57009359357738       -6.46880991410118       -0.52152519749888
H           10.91896649895830       -5.89066381478210       -0.73212765778293
H            9.46612155912902       -4.52803403561501        0.29961181961881
H            7.98989285252829       -2.61788245902153        0.02507026196925
H           12.90070204286559       -1.96895470511273        0.41961439028339
H           13.36385657419145        0.63090464085485        0.25262762786824
H           15.72829911392664        3.30162268643754        0.19991713585953
H           15.00337992965868        1.94157538645263       -0.65110077479061
H           14.91146846866316        2.04087323436682        1.11688910857683
H           14.37906880971125        4.98678946571936        1.33985276059802
H           12.62048021592375        5.00089567857599        1.23060188284058
H           13.42772482439120        3.78032896941072        2.21227655119474
H           14.52446337106039        4.86603720812865       -1.22049194115599
H           12.76547596836904        4.87601466702902       -1.31847862880890
H           13.67840961151190        3.57422811746280       -2.07846271279673
H           11.00622002666785        4.19031937322352       -0.10870282341037
H            8.95626557559931        2.88734585990577       -0.16353431691352
H            7.12532588358275       -0.94076115768764        1.55365050808069
H            4.71311445268593       -0.51299137480463        1.38112444585861
H            3.71628432931518        3.18495153615833       -0.64265238971848
H            1.30948671997061        3.70368737691306       -0.71864226811530
H            2.86296613397791       -0.97416774246532       -0.13758940946719
H            0.87696049272017       -2.00033553439330        1.21353063030768
H           -0.00306903064920       -0.66164574220435        1.96073505777650
H           -0.88957988326357       -1.99649595569981        1.21452453430086
H            0.87639055737339       -2.25002832511252       -1.32813430168436
H           -0.00585333631791       -1.08336557271662       -2.31990518783344
H           -0.89127144322538       -2.24679309178981       -1.32715974610761
H           -2.86706727526422       -0.96480098100641       -0.15591115639834
H           -4.71056179028511       -0.68663170728642        1.23736300910184
H           -7.12043580245678       -1.13392824688452        1.36874168544096
H           -8.02513362718530       -2.55379415559586       -0.53155907012483
H           -9.51973624286833       -4.47183885252607       -0.62745756772588
H          -12.67008166309721       -6.15273583102754       -1.79412632744675
H          -12.36669781451068       -4.55483026479358       -2.48376543164945
H          -11.02101394332827       -5.54457556601475       -1.92305992410493
H          -10.69476609214830       -5.93241883913846        0.58669382236065
H          -11.80434893542323       -5.18702917732033        1.73525859902616
H          -12.34768747112250       -6.52647163573859        0.71956845100334
H          -14.07172398873506       -3.66654329165046       -0.84048758915914
H          -14.24253736328589       -5.27142935538708       -0.13915597152586
H          -13.83747591913913       -3.90939685781358        0.90030504020044
H          -12.91923955555108       -1.96922948963822        0.11047011964090
H          -13.34896825430629        0.62255911969953        0.51311675441334
H          -14.49959930316168        5.07496257367236       -0.01877665947793
H          -12.74712731386553        5.09001719344655       -0.19877450119270
H          -13.71714181868213        3.97405151925532       -1.15774333880573
H          -13.26309793016531        3.31517717824343        3.06992161560523
H          -14.23704664153199        4.67659946899718        2.50455716926058
H          -12.48564882570240        4.70368971913504        2.31314277911660
H          -14.82869508465761        1.84184445192263        1.72228687161364
H          -15.00376865575885        2.10068174037543       -0.02328725078502
H          -15.66418643197635        3.26791814520597        1.11733441109001
H          -10.94828327608105        4.16326609162636        0.76239762577841
H           -8.92181165067745        2.87716790152706        0.36253950939708
H           -7.83336296197295        1.80720340539445       -1.64375443235902
H           -5.42367580584687        2.25325090578769       -1.78158641987587
H           -3.70251930784128        3.21290225509390       -0.54746454703311
H           -1.29853588982790        3.71534900481171       -0.66156215022185
H            5.40324054217224        2.03319301722260       -1.97789794743631
H            7.81116000208012        1.56244183312755       -1.83910089612810

          :  Hamiltonian                  GFN2-xTB          :
         :: gradient norm              0.000062365336 Eh/a0 ::
         :: HOMO-LUMO gap              2.435487664637 eV    ::
         :: SCC energy              -187.539861826849 Eh    ::
         :: -> dispersion             -0.173312636721 Eh    ::
         :: -> Gsolv                  -0.071630257275 Eh    ::
         :: repulsion energy           3.290781533410 Eh    ::

    * Orbital Energies and Occupations

         #    Occupation            Energy/Eh            Energy/eV
      -------------------------------------------------------------
         1        2.0000           -0.6698767             -18.2283
       ...           ...                  ...                  ...
       161        2.0000           -0.4044443             -11.0055
       162        2.0000           -0.4037665             -10.9870
       163        2.0000           -0.4036944             -10.9851
       164        2.0000           -0.4013495             -10.9213
       165        2.0000           -0.3962840             -10.7834
       166        2.0000           -0.3951174             -10.7517
       167        2.0000           -0.3934808             -10.7072
       168        2.0000           -0.3933108             -10.7025
       169        2.0000           -0.3714607             -10.1080
       170        2.0000           -0.3700915             -10.0707
       171        2.0000           -0.3698652             -10.0645
       172        2.0000           -0.3535056              -9.6194
       173        2.0000           -0.3521134              -9.5815 (HOMO)
       174                         -0.2626109              -7.1460 (LUMO)
       175                         -0.2418478              -6.5810
       176                         -0.2377859              -6.4705
       177                         -0.2342680              -6.3748
       178                         -0.2275838              -6.1929
       179                         -0.2272545              -6.1839
       180                         -0.2218601              -6.0371
       181                         -0.2173494              -5.9144
       182                         -0.2166355              -5.8950
       183                         -0.2144726              -5.8361
       184                         -0.2141811              -5.8282
       ...                                ...                  ...
       344                          0.7451317              20.2761
      -------------------------------------------------------------
                  HL-Gap            0.0895025 Eh            2.4355 eV

     #   Z          covCN         q      C6AA      α(0)
     1   6 C        3.761    -0.104    22.536     6.767
     2   6 C        3.902     0.025    20.106     6.374
     3   6 C        3.761    -0.106    22.570     6.772
     4   6 C        3.761    -0.104    22.536     6.767
     5   6 C        2.972    -0.004    28.118     8.698
     6   6 C        2.931    -0.041    29.029     8.836
     7   6 C        2.908    -0.055    29.371     8.887
     8   6 C        3.078     0.044    26.933     8.508
     9   6 C        3.067    -0.022    28.489     8.752
    10   6 C        2.918    -0.046    29.141     8.852
    11   6 C        3.067    -0.022    28.489     8.752
    12   6 C        2.918    -0.046    29.142     8.852
    13   6 C        2.972    -0.004    28.118     8.698
    14   6 C        3.902     0.025    20.106     6.374
    15   6 C        3.761    -0.106    22.570     6.772
    16   6 C        3.761    -0.104    22.535     6.767
    17   6 C        3.761    -0.104    22.536     6.767
    18   6 C        2.931    -0.041    29.027     8.836
    19   6 C        2.908    -0.055    29.372     8.887
    20   6 C        3.079     0.044    26.932     8.508
    21   7 N        2.801    -0.051    22.225     7.002
    22   6 C        2.912     0.063    26.596     8.457
    23   6 C        2.920    -0.045    29.112     8.848
    24   6 C        2.925    -0.034    28.853     8.809
    25   6 C        2.976     0.007    27.868     8.659
    26   6 C        2.978     0.005    27.895     8.664
    27   6 C        2.926    -0.039    28.973     8.827
    28   6 C        2.912    -0.036    28.906     8.816
    29   6 C        3.036    -0.003    28.074     8.691
    30   6 C        3.052    -0.002    28.021     8.681
    31   6 C        2.920    -0.040    28.983     8.828
    32   6 C        3.935     0.019    20.194     6.386
    33   6 C        3.758    -0.098    22.428     6.752
    34   6 C        3.758    -0.098    22.427     6.752
    35   6 C        3.052    -0.002    28.025     8.682
    36   6 C        2.920    -0.040    28.986     8.829
    37   6 C        2.977     0.005    27.902     8.665
    38   6 C        2.975     0.007    27.856     8.657
    39   6 C        2.925    -0.034    28.855     8.809
    40   6 C        2.920    -0.044    29.090     8.845
    41   6 C        2.912     0.063    26.593     8.456
    42   7 N        2.801    -0.052    22.249     7.006
    43   6 C        3.081     0.044    26.925     8.507
    44   6 C        2.908    -0.055    29.371     8.886
    45   6 C        2.931    -0.041    29.027     8.836
    46   6 C        2.972    -0.004    28.124     8.699
    47   6 C        3.902     0.025    20.107     6.374
    48   6 C        3.761    -0.104    22.534     6.767
    49   6 C        3.761    -0.104    22.537     6.767
    50   6 C        3.761    -0.106    22.569     6.772
    51   6 C        2.918    -0.046    29.141     8.852
    52   6 C        3.067    -0.022    28.496     8.753
    53   6 C        3.067    -0.022    28.496     8.753
    54   6 C        2.918    -0.046    29.142     8.852
    55   6 C        2.972    -0.004    28.124     8.699
    56   6 C        3.902     0.025    20.107     6.374
    57   6 C        3.761    -0.104    22.536     6.767
    58   6 C        3.761    -0.104    22.534     6.767
    59   6 C        3.761    -0.106    22.570     6.772
    60   6 C        2.931    -0.041    29.026     8.836
    61   6 C        2.908    -0.055    29.372     8.887
    62   6 C        3.081     0.044    26.924     8.507
    63   6 C        2.920    -0.044    29.087     8.844
    64   6 C        2.925    -0.034    28.858     8.810
    65   6 C        2.926    -0.039    28.977     8.828
    66   6 C        2.912    -0.037    28.909     8.817
    67   6 C        3.037    -0.003    28.068     8.690
    68   6 C        2.924    -0.034    28.855     8.809
    69   6 C        2.920    -0.045    29.108     8.847
    70   1 H        0.925     0.037     2.490     2.467
    71   1 H        0.925     0.035     2.512     2.478
    72   1 H        0.925     0.032     2.564     2.504
    73   1 H        0.925     0.035     2.518     2.481
    74   1 H        0.925     0.036     2.504     2.475
    75   1 H        0.925     0.035     2.516     2.481
    76   1 H        0.925     0.032     2.564     2.504
    77   1 H        0.925     0.037     2.488     2.467
    78   1 H        0.925     0.035     2.515     2.480
    79   1 H        0.926     0.028     2.612     2.527
    80   1 H        0.926     0.025     2.659     2.550
    81   1 H        0.926     0.036     2.504     2.475
    82   1 H        0.926     0.036     2.503     2.474
    83   1 H        0.925     0.036     2.504     2.475
    84   1 H        0.925     0.035     2.516     2.480
    85   1 H        0.925     0.035     2.517     2.481
    86   1 H        0.925     0.037     2.488     2.466
    87   1 H        0.925     0.035     2.516     2.481
    88   1 H        0.925     0.032     2.565     2.504
    89   1 H        0.925     0.037     2.490     2.468
    90   1 H        0.925     0.035     2.514     2.479
    91   1 H        0.925     0.032     2.563     2.503
    92   1 H        0.926     0.028     2.615     2.529
    93   1 H        0.926     0.025     2.662     2.552
    94   1 H        0.926     0.039     2.458     2.452
    95   1 H        0.926     0.039     2.465     2.455
    96   1 H        0.926     0.030     2.584     2.514
    97   1 H        0.926     0.030     2.591     2.517
    98   1 H        0.926     0.032     2.552     2.498
    99   1 H        0.925     0.043     2.405     2.425
   100   1 H        0.925     0.034     2.525     2.485
   101   1 H        0.925     0.043     2.406     2.426
   102   1 H        0.925     0.044     2.402     2.424
   103   1 H        0.925     0.034     2.527     2.486
   104   1 H        0.925     0.044     2.401     2.423
   105   1 H        0.926     0.033     2.543     2.494
   106   1 H        0.926     0.040     2.450     2.448
   107   1 H        0.926     0.039     2.464     2.455
   108   1 H        0.926     0.024     2.675     2.558
   109   1 H        0.926     0.028     2.615     2.529
   110   1 H        0.925     0.037     2.488     2.467
   111   1 H        0.925     0.031     2.565     2.505
   112   1 H        0.925     0.035     2.516     2.481
   113   1 H        0.925     0.035     2.512     2.479
   114   1 H        0.925     0.032     2.563     2.504
   115   1 H        0.925     0.037     2.491     2.468
   116   1 H        0.925     0.035     2.519     2.482
   117   1 H        0.925     0.036     2.505     2.475
   118   1 H        0.925     0.035     2.517     2.481
   119   1 H        0.926     0.036     2.507     2.476
   120   1 H        0.926     0.036     2.506     2.476
   121   1 H        0.925     0.037     2.490     2.468
   122   1 H        0.925     0.035     2.515     2.480
   123   1 H        0.925     0.032     2.563     2.503
   124   1 H        0.925     0.031     2.566     2.505
   125   1 H        0.925     0.037     2.488     2.467
   126   1 H        0.925     0.035     2.517     2.481
   127   1 H        0.925     0.035     2.517     2.481
   128   1 H        0.925     0.035     2.516     2.481
   129   1 H        0.925     0.036     2.505     2.475
   130   1 H        0.926     0.028     2.618     2.530
   131   1 H        0.926     0.024     2.678     2.559
   132   1 H        0.926     0.039     2.466     2.456
   133   1 H        0.926     0.039     2.465     2.455
   134   1 H        0.926     0.031     2.573     2.509
   135   1 H        0.926     0.030     2.592     2.518
   136   1 H        0.926     0.038     2.479     2.462
   137   1 H        0.926     0.039     2.461     2.453

molecular dipole:
                 x           y           z       tot (Debye)
 q only:        0.064      -0.329       0.033
   full:        0.066      -0.224       0.015       0.594

 projected vibrational frequencies (cm⁻¹)
eigval :       -0.00    -0.00    -0.00     0.00     0.00     0.00
eigval :        2.94     5.75     7.43     9.56    11.93    17.04
eigval :       23.80    27.91    32.77    34.26    36.44    39.36
eigval :       43.79    53.91    57.96    58.58    67.58    72.01
eigval :       73.36    83.88    86.45    90.07    96.80   100.98
eigval :      109.31   119.41   120.27   127.16   146.50   153.48
eigval :      158.89   160.95   161.67   175.28   177.36   178.94
eigval :      187.27   188.67   201.03   202.19   203.11   215.00
eigval :      217.73   220.45   223.16   225.59   227.84   230.07
eigval :      230.12   239.07   247.09   252.19   259.06   259.83
eigval :      266.49   276.65   280.77   289.87   302.41   303.89
eigval :      310.71   314.15   316.08   319.85   320.89   324.20
eigval :      330.58   336.57   338.68   348.04   350.92   355.90
eigval :      359.59   359.68   372.81   382.21   383.90   384.18
eigval :      389.17   391.71   399.21   401.17   410.75   411.47
eigval :      418.47   418.80   420.15   441.70   442.19   442.79
eigval :      443.02   451.29   461.46   465.20   465.31   465.83
eigval :      466.54   471.94   472.72   502.47   511.86   519.70
eigval :      522.48   526.30   545.98   568.36   570.38   573.07
eigval :      574.60   579.52   583.33   584.76   592.76   598.36
eigval :      602.95   615.59   619.83   625.34   633.29   636.03
eigval :      638.90   642.10   675.66   687.22   688.87   689.01
eigval :      690.23   695.83   702.11   705.66   708.66   719.05
eigval :      719.47   725.61   732.32   736.72   746.75   809.31
eigval :      812.52   821.33   822.33   822.71   823.57   828.05
eigval :      830.08   832.86   838.36   839.51   866.44   866.92
eigval :      869.21   871.98   872.26   872.66   874.77   876.08
eigval :      876.26   885.33   886.62   910.86   911.05   913.19
eigval :      913.58   914.75   915.92   922.67   922.95   923.56
eigval :      924.26   926.34   926.78   932.47   933.75   942.32
eigval :      943.64   957.78   958.72   958.78   959.57   959.87
eigval :      960.17   960.82   961.35   961.79   962.57   962.71
eigval :      962.91   963.24   968.01   985.06  1010.09  1013.15
eigval :     1014.08  1029.17  1030.29  1033.56  1034.15  1034.70
eigval :     1034.72  1034.99  1035.74  1039.92  1040.81  1069.57
eigval :     1076.38  1084.43  1112.39  1114.95  1115.37  1127.70
eigval :     1128.08  1134.95  1135.97  1140.77  1140.87  1159.79
eigval :     1166.24  1173.27  1174.58  1174.84  1187.95  1190.40
eigval :     1209.68  1211.26  1220.58  1222.23  1225.00  1225.27
eigval :     1225.50  1225.82  1228.88  1228.90  1230.05  1230.14
eigval :     1235.93  1237.07  1240.78  1242.37  1244.68  1246.91
eigval :     1258.06  1258.84  1265.36  1267.43  1277.37  1283.41
eigval :     1283.50  1292.83  1300.62  1304.87  1308.15  1309.75
eigval :     1313.25  1313.83  1314.63  1325.88  1345.61  1345.89
eigval :     1357.39  1358.18  1361.53  1376.24  1379.98  1392.97
eigval :     1397.97  1399.67  1400.21  1401.87  1401.97  1402.18
eigval :     1402.51  1402.96  1403.19  1404.15  1408.84  1413.65
eigval :     1414.32  1424.50  1426.01  1426.44  1426.55  1427.23
eigval :     1437.26  1440.37  1440.62  1447.93  1468.04  1481.12
eigval :     1481.15  1482.32  1483.91  1484.22  1484.67  1489.19
eigval :     1489.30  1489.56  1489.65  1492.38  1492.69  1492.90
eigval :     1493.24  1493.64  1497.01  1498.84  1499.16  1499.46
eigval :     1499.74  1499.82  1501.24  1502.46  1502.59  1502.68
eigval :     1503.19  1511.17  1511.27  1511.44  1512.03  1517.47
eigval :     1517.93  1518.66  1518.81  1556.58  1556.99  1568.67
eigval :     1569.35  1572.36  1580.32  1581.03  1584.51  1588.97
eigval :     1592.63  1602.43  1603.29  1603.46  1609.35  1616.29
eigval :     1616.55  3017.35  3017.54  3017.81  3018.29  3018.31
eigval :     3018.40  3018.48  3018.65  3021.41  3021.97  3022.40
eigval :     3022.47  3023.28  3023.44  3023.55  3023.72  3024.98
eigval :     3025.72  3025.80  3026.14  3026.15  3028.50  3029.00
eigval :     3029.25  3029.62  3029.77  3029.96  3031.10  3034.64
eigval :     3034.64  3034.81  3035.14  3035.80  3038.98  3042.37
eigval :     3042.83  3043.18  3043.43  3045.74  3046.18  3046.48
eigval :     3046.90  3069.71  3071.55  3072.87  3072.96  3073.47
eigval :     3074.21  3074.88  3076.19  3076.54  3077.85  3078.14
eigval :     3079.35  3081.90  3084.22  3086.13  3087.48  3087.74
eigval :     3087.92  3088.55  3088.81  3090.99  3091.76  3112.18
eigval :     3112.23  3115.06  3115.12

   temp. (K)  partition function   enthalpy   heat capacity  entropy
                                   cal/mol     cal/K/mol   cal/K/mol   J/K/mol
 298.15  VIB  0.635E+32            39343.169    241.821    247.124
         ROT  0.574E+09              888.752      2.981     43.059
         INT  0.364E+41            40231.921    244.802    290.183
         TR   0.262E+29             1481.254      4.968     46.251
         TOT                       41713.1752   249.7704   336.4333  1407.6371

       T/K    H(0)-H(T)+PV         H(T)/Eh          T*S/Eh         G(T)/Eh
   ------------------------------------------------------------------------
    298.15    0.664742E-01    0.120805E+01    0.159850E+00    0.104820E+01
   ------------------------------------------------------------------------

         :::::::::::::::::::::::::::::::::::::::::::::::::::::
         ::                  THERMODYNAMIC                  ::
         :::::::::::::::::::::::::::::::::::::::::::::::::::::
         :: total free energy        -183.200881295061 Eh   ::
         ::.................................................::
         :: total energy             -184.249080290084 Eh   ::
         :: zero point energy           1.141575158386 Eh   ::
         :: G(RRHO) w/o ZPVE           -0.093376163364 Eh   ::
         :: G(RRHO) contrib.            1.048198995022 Eh   ::
         :::::::::::::::::::::::::::::::::::::::::::::::::::::

           -------------------------------------------------
          | TOTAL ENERGY             -184.249080290084 Eh   |
          | TOTAL ENTHALPY           -183.041030955766 Eh   |
          | TOTAL FREE ENERGY        -183.200881295061 Eh   |
          | GRADIENT NORM               0.000062368528 Eh/α |
          | HOMO-LUMO GAP               2.435487505552 eV   |
           -------------------------------------------------

 * finished run on 2025/08/26 at 10:38:46.012
