   * xtb version 6.7.1 (edcfbbe) compiled by 'albert@albert-system' on 2024-07-22

   ID    Z sym.   atoms
    1    6 C      1-20, 22-41, 43-69
    2    7 N      21, 42
    3    1 H      70-137

          program call               : xtb data2507/toluene/F-2CzB/F-2CzB.xyz --gfn 2 --gbsa toluene --ohess vtight --parallel 40 --molden --ceasefiles --namespace data2507/toluene/F-2CzB/F-2CzB_toluene_S0_preOpt
      * Solvation model:               GBSA
        Solvent                        toluene
        Solvent mass                       9.2140E+01 g/mol
          :  Hamiltonian                  GFN2-xTB          :
 * total energy  :  -184.2202017 Eh     change       -0.8202306E-08 Eh
 * total energy  :  -184.2382145 Eh     change       -0.1801286E-01 Eh
 * total energy  :  -184.2430892 Eh     change       -0.4874687E-02 Eh
 * total energy  :  -184.2444868 Eh     change       -0.1397621E-02 Eh
 * total energy  :  -184.2455515 Eh     change       -0.1064693E-02 Eh
 * total energy  :  -184.2461942 Eh     change       -0.6426454E-03 Eh
 * total energy  :  -184.2467673 Eh     change       -0.5731500E-03 Eh
 * total energy  :  -184.2472405 Eh     change       -0.4731561E-03 Eh
 * total energy  :  -184.2474844 Eh     change       -0.2439134E-03 Eh
 * total energy  :  -184.2476129 Eh     change       -0.1285281E-03 Eh
 * total energy  :  -184.2482571 Eh     change       -0.1279785E-06 Eh
 * total energy  :  -184.2482573 Eh     change       -0.1939563E-06 Eh
 * total energy  :  -184.2482577 Eh     change       -0.3173754E-06 Eh
 * total energy  :  -184.2482581 Eh     change       -0.4532009E-06 Eh
 * total energy  :  -184.2482586 Eh     change       -0.4599459E-06 Eh
 * total energy  :  -184.2482590 Eh     change       -0.4374222E-06 Eh
 * total energy  :  -184.2482594 Eh     change       -0.4249653E-06 Eh
 * total energy  :  -184.2482599 Eh     change       -0.4650868E-06 Eh
 * total energy  :  -184.2482599 Eh     change       -0.2327226E-08 Eh
   *** GEOMETRY OPTIMIZATION CONVERGED AFTER 122 ITERATIONS ***

 final structure:
================
137
 xtb: 6.7.1 (edcfbbe)
C           13.29681082840074       -3.99625165052598        1.99513156713969
C           12.73119420798515       -4.17555277997422        0.57806554035219
C           13.85703831879982       -4.01322033972071       -0.45444210500702
C           12.18595878434317       -5.60244182834646        0.46266058557109
C           11.66906768196443       -3.11185376609708        0.32963865240594
C           10.33687263750662       -3.43106967521607        0.05090194033822
C            9.36966865138010       -2.46840175498277       -0.17591767093039
C            9.74544568683908       -1.13625291779367       -0.13264861983494
C           11.07955746985435       -0.78533872857899        0.17046133379329
C           12.02757528089650       -1.77134996406422        0.39386199227409
C           11.12742819373147        0.65161365691050        0.19265251197618
C           12.14493600254314        1.56545709112451        0.41717905268020
C           11.88465768426214        2.92862283815025        0.35713131512391
C           13.01757816341066        3.91206795194019        0.62298870563320
C           12.57222324664272        5.37487107827488        0.53067975079505
C           14.13215428150908        3.68823664677375       -0.41017706066997
C           13.56585477564338        3.67190884971519        2.03790457896008
C           10.58657266439121        3.34450777817122        0.04667846556363
C            9.55201513884557        2.45540394501988       -0.18279820875344
C            9.81841463688922        1.09944889709822       -0.09147458120642
N            8.99088862021622        0.01081855285660       -0.28949308808281
C            7.61951806374956        0.05932266653631       -0.57401638717189
C            6.76737825527773        0.84095573389280        0.20185496681594
C            5.41615291045461        0.88136509977609       -0.07677023853079
C            4.87819720110216        0.14449489308399       -1.13094373092595
C            3.43663582601291        0.17997251314857       -1.41577808560768
C            2.97655682357955        0.24831684122691       -2.73128434950907
C            1.62415032465084        0.27704881180028       -3.02047656438559
C            0.71581791065824        0.22838986125031       -1.97476642895923
C            1.16721402137592        0.15893081548686       -0.64764444704631
C            2.51358523109047        0.13896718393572       -0.36688783390575
C            0.00006908264927        0.11197643269636        0.31421165372794
C            0.00482818600365        1.32781754917575        1.24769173251882
C            0.00319436080006       -1.18609942930103        1.12875582071614
C           -1.17568682591790        0.16005539164798       -0.63704343599556
C           -2.51948824651494        0.14081170854939       -0.34406651650681
C           -3.45206192536979        0.18394331112046       -1.38442739242142
C           -4.89122494519955        0.14875784738451       -1.08790463935698
C           -5.42044948332864        0.87824015632300       -0.02418645945764
C           -6.77018559906251        0.83997153629461        0.26243662888732
C           -7.62968252327472        0.06840101473217       -0.51525016391325
N           -9.00066738869344        0.02606076097666       -0.22789978684139
C           -9.76489296669794       -1.11673841950371       -0.08974567841177
C           -9.39783704736534       -2.45119650879074       -0.13860355704221
C          -10.37446945597138       -3.40845517878731        0.06900857364076
C          -11.70782022233182       -3.08159521468463        0.33401853609654
C          -12.78020017024246       -4.13960114333946        0.56174833026792
C          -12.24322437689094       -5.56943365805559        0.44395583430489
C          -13.36250237948567       -3.96553920852364        1.97266046273049
C          -13.89160598453844       -3.96266514598400       -0.48391675929725
C          -12.05796708179954       -1.73932775350014        0.40347336866197
C          -11.10027531870132       -0.75818670955046        0.19898087879022
C          -11.13860690107205        0.67856836354113        0.22843208444023
C          -12.16105154757965        1.59524504664026        0.43821415058131
C          -11.89186736456510        2.95316470351978        0.38310237109506
C          -12.96265821128370        4.01371979946913        0.60268949032889
C          -14.34091178592474        3.40882161008105        0.88790483797238
C          -13.07780145850105        4.88342383345530       -0.65837892737572
C          -12.56990084749655        4.88814737110007        1.80288846846160
C          -10.58104704430242        3.36245355155375        0.10125403332180
C           -9.54627284367341        2.47467297734742       -0.11280607210245
C           -9.82393197302642        1.11841807463138       -0.03401349187242
C           -7.11169127337419       -0.66170704981901       -1.58191609484502
C           -5.76020459088332       -0.62148484303098       -1.85946174463863
C           -3.00359458833858        0.25409826572048       -2.70395297316167
C           -1.65388950089197        0.28095966961677       -3.00545062453344
C           -0.73615368037538        0.22964651042028       -1.96813063226930
C            5.74001142877419       -0.63345501594172       -1.90262483833260
C            7.09307637332365       -0.67640155257489       -1.63259056498667
H           14.04490610112136       -4.75947964533258        2.20056409081206
H           12.50024374298327       -4.08554164317306        2.73155802001095
H           13.76281741411109       -3.02203076207156        2.11539694053654
H           13.46161484480139       -4.12322519017058       -1.46255470722239
H           14.62164933403710       -4.77186064464894       -0.29885244639608
H           14.32711662350766       -3.03654031458992       -0.37866671132355
H           11.78659555625330       -5.79037322700840       -0.53155092087916
H           12.99183128859178       -6.31222867295748        0.64030179226738
H           11.40879519077762       -5.78653047499743        1.20116210631734
H           10.02801495882179       -4.46272694598078        0.01151909816522
H            8.34739698722749       -2.75777544155406       -0.36978053044419
H           13.04066920325821       -1.47801503117632        0.62322080057204
H           13.13639014498811        1.19868728531661        0.63510596303910
H           12.20627852956775        5.61167659466273       -0.46592349803608
H           13.42037291124377        6.02443616426059        0.73931448632769
H           11.79450075723635        5.59452393380626        1.25883200955322
H           14.94477943005278        4.39295781351820       -0.24465713362065
H           14.53645993142962        2.68175422948536       -0.34525454927800
H           13.74673150757819        3.83580868869508       -1.41736867747483
H           12.77616794442059        3.80708816123913        2.77474448236698
H           14.36619259392332        4.37647279364282        2.25561742124325
H           13.96102846543338        2.66536533192190        2.14445919589940
H           10.36145480539468        4.39590619862023       -0.02426753279591
H            8.56665260994033        2.81838956766511       -0.43523133633514
H            7.17057603769523        1.40519814684142        1.02989147512026
H            4.76877954900035        1.50287729917612        0.52441748465672
H            3.69433449691434        0.30062254606092       -3.53740099347174
H            1.28601254014503        0.33656126616654       -4.04473278059222
H            2.86591244557957        0.06765872403411        0.65180620162718
H            0.89091284038988        1.31553479921751        1.87796437355659
H            0.00305015211555        2.24858479376502        0.66728153414528
H           -0.87593587817367        1.31680507605716        1.88540617707275
H           -0.87754900332927       -1.23417128118263        1.76480821143919
H            0.88975341618513       -1.23511173518331        1.75659898956646
H           -0.00034843535102       -2.04867307450936        0.46505262427269
H           -2.86235205406232        0.06845950858922        0.67777057905280
H           -4.76767981068879        1.49306545034212        0.57803577499488
H           -7.16630304258787        1.39859537472996        1.09769126623479
H           -8.37529752058826       -2.74620686437281       -0.32252051017080
H          -10.07264487466302       -4.44201904335926        0.02531618978538
H          -11.47608455130639       -5.76326082277762        1.19041863032142
H          -13.05583941130877       -6.27487557967859        0.60769938469569
H          -11.83337045869812       -5.75404394882992       -0.54661080514866
H          -13.82326106229237       -2.98889715422883        2.09335220072823
H          -14.11830142280867       -4.72491296558115        2.16359083463353
H          -12.57591829553988       -4.06509945152754        2.71846048781885
H          -13.48382091265869       -4.06764436186267       -1.48765110539144
H          -14.66277118024659       -4.71769636462488       -0.34391223291394
H          -14.35661796738736       -2.98368225500161       -0.40676452627444
H          -13.07171052413928       -1.44043359466851        0.62229672080020
H          -13.15292725008227        1.22403257424308        0.63611306778425
H          -15.06357573712043        4.20872028963326        1.03815196388994
H          -14.68172165129146        2.80122105842307        0.05249728671572
H          -14.32233112347692        2.79975863009666        1.78898559118527
H          -12.14699564088433        5.40259735675127       -0.86971468825737
H          -13.86090295114166        5.62812013360811       -0.52998105334897
H          -13.32594152150091        4.26543473608664       -1.51942638826001
H          -13.32990713454212        5.64704298274794        1.97841399228634
H          -11.62073448047210        5.38974469618740        1.63496367401078
H          -12.47862725531516        4.27714886610754        2.69904072012917
H          -10.35767768879243        4.41703676332756        0.04161047294843
H           -8.55450305147069        2.83317129269130       -0.34553523240930
H           -7.77680373825237       -1.25158527628134       -2.19537082259234
H           -5.36881055424066       -1.20576805307373       -2.67936598820817
H           -3.72834250747570        0.30914111753809       -3.50360517151482
H           -1.32501532165689        0.34117012044236       -4.03267842119219
H            5.34163270091844       -1.22210435621945       -2.71605145025155
H            7.75252355541646       -1.27333514542843       -2.24533156504497

          :  Hamiltonian                  GFN2-xTB          :
         :: gradient norm              0.000038625408 Eh/a0 ::
         :: HOMO-LUMO gap              2.431617028175 eV    ::
         :: SCC energy              -187.538702620292 Eh    ::
         :: -> dispersion             -0.173185046507 Eh    ::
         :: -> Gsolv                  -0.071694254043 Eh    ::
         :: repulsion energy           3.290442724609 Eh    ::

    * Orbital Energies and Occupations

         #    Occupation            Energy/Eh            Energy/eV
      -------------------------------------------------------------
         1        2.0000           -0.6698874             -18.2286
       ...           ...                  ...                  ...
       161        2.0000           -0.4046646             -11.0115
       162        2.0000           -0.4043731             -11.0036
       163        2.0000           -0.4039023             -10.9907
       164        2.0000           -0.4012208             -10.9178
       165        2.0000           -0.3961962             -10.7810
       166        2.0000           -0.3950720             -10.7505
       167        2.0000           -0.3926802             -10.6854
       168        2.0000           -0.3921095             -10.6698
       169        2.0000           -0.3714930             -10.1088
       170        2.0000           -0.3712682             -10.1027
       171        2.0000           -0.3706694             -10.0864
       172        2.0000           -0.3529026              -9.6030
       173        2.0000           -0.3516360              -9.5685 (HOMO)
       174                         -0.2622757              -7.1369 (LUMO)
       175                         -0.2414444              -6.5700
       176                         -0.2380790              -6.4785
       177                         -0.2347671              -6.3883
       178                         -0.2273782              -6.1873
       179                         -0.2273441              -6.1863
       180                         -0.2218548              -6.0370
       181                         -0.2172372              -5.9113
       182                         -0.2167469              -5.8980
       183                         -0.2154739              -5.8633
       184                         -0.2148247              -5.8457
       ...                                ...                  ...
       344                          0.7494855              20.3945
      -------------------------------------------------------------
                  HL-Gap            0.0893603 Eh            2.4316 eV

     #   Z          covCN         q      C6AA      α(0)
     1   6 C        3.761    -0.104    22.530     6.766
     2   6 C        3.902     0.025    20.106     6.374
     3   6 C        3.761    -0.104    22.532     6.767
     4   6 C        3.761    -0.106    22.573     6.773
     5   6 C        2.971    -0.004    28.122     8.699
     6   6 C        2.928    -0.046    29.133     8.852
     7   6 C        2.909    -0.056    29.391     8.890
     8   6 C        3.077     0.045    26.919     8.506
     9   6 C        3.064    -0.022    28.479     8.751
    10   6 C        2.920    -0.041    29.028     8.835
    11   6 C        3.064    -0.022    28.480     8.751
    12   6 C        2.920    -0.041    29.028     8.835
    13   6 C        2.971    -0.004    28.123     8.699
    14   6 C        3.902     0.025    20.105     6.374
    15   6 C        3.761    -0.106    22.573     6.773
    16   6 C        3.761    -0.104    22.530     6.766
    17   6 C        3.761    -0.104    22.531     6.767
    18   6 C        2.928    -0.046    29.134     8.852
    19   6 C        2.909    -0.056    29.389     8.889
    20   6 C        3.077     0.045    26.919     8.506
    21   7 N        2.800    -0.052    22.253     7.006
    22   6 C        2.912     0.063    26.596     8.457
    23   6 C        2.920    -0.044    29.103     8.847
    24   6 C        2.924    -0.034    28.853     8.809
    25   6 C        2.976     0.007    27.860     8.658
    26   6 C        2.978     0.005    27.897     8.664
    27   6 C        2.926    -0.039    28.975     8.827
    28   6 C        2.912    -0.036    28.907     8.816
    29   6 C        3.036    -0.003    28.071     8.690
    30   6 C        3.052    -0.002    28.022     8.682
    31   6 C        2.920    -0.040    28.984     8.829
    32   6 C        3.935     0.019    20.194     6.386
    33   6 C        3.758    -0.098    22.425     6.751
    34   6 C        3.758    -0.099    22.432     6.752
    35   6 C        3.052    -0.002    28.022     8.682
    36   6 C        2.920    -0.040    28.984     8.829
    37   6 C        2.978     0.005    27.898     8.664
    38   6 C        2.976     0.007    27.860     8.658
    39   6 C        2.924    -0.034    28.853     8.809
    40   6 C        2.920    -0.044    29.103     8.847
    41   6 C        2.912     0.063    26.595     8.456
    42   7 N        2.801    -0.052    22.246     7.005
    43   6 C        3.078     0.044    26.927     8.507
    44   6 C        2.909    -0.056    29.389     8.889
    45   6 C        2.928    -0.046    29.137     8.852
    46   6 C        2.971    -0.004    28.122     8.699
    47   6 C        3.902     0.025    20.106     6.374
    48   6 C        3.761    -0.106    22.572     6.773
    49   6 C        3.761    -0.104    22.532     6.767
    50   6 C        3.761    -0.104    22.534     6.767
    51   6 C        2.920    -0.042    29.036     8.836
    52   6 C        3.065    -0.022    28.481     8.751
    53   6 C        3.065    -0.022    28.493     8.753
    54   6 C        2.918    -0.046    29.135     8.851
    55   6 C        2.972    -0.004    28.123     8.699
    56   6 C        3.902     0.025    20.106     6.374
    57   6 C        3.761    -0.106    22.566     6.772
    58   6 C        3.761    -0.104    22.536     6.767
    59   6 C        3.761    -0.104    22.536     6.767
    60   6 C        2.931    -0.041    29.023     8.835
    61   6 C        2.908    -0.055    29.375     8.887
    62   6 C        3.079     0.044    26.920     8.506
    63   6 C        2.920    -0.044    29.097     8.846
    64   6 C        2.925    -0.034    28.855     8.809
    65   6 C        2.926    -0.039    28.976     8.828
    66   6 C        2.912    -0.036    28.907     8.816
    67   6 C        3.036    -0.003    28.070     8.690
    68   6 C        2.924    -0.034    28.854     8.809
    69   6 C        2.920    -0.044    29.098     8.846
    70   1 H        0.925     0.037     2.489     2.467
    71   1 H        0.925     0.031     2.567     2.505
    72   1 H        0.925     0.035     2.514     2.480
    73   1 H        0.925     0.031     2.565     2.505
    74   1 H        0.925     0.037     2.492     2.468
    75   1 H        0.925     0.035     2.514     2.479
    76   1 H        0.925     0.035     2.519     2.482
    77   1 H        0.925     0.036     2.500     2.473
    78   1 H        0.925     0.035     2.520     2.482
    79   1 H        0.926     0.035     2.510     2.477
    80   1 H        0.926     0.025     2.663     2.552
    81   1 H        0.926     0.028     2.621     2.532
    82   1 H        0.926     0.028     2.622     2.532
    83   1 H        0.925     0.035     2.521     2.483
    84   1 H        0.925     0.036     2.500     2.473
    85   1 H        0.925     0.035     2.518     2.482
    86   1 H        0.925     0.037     2.490     2.468
    87   1 H        0.925     0.035     2.515     2.480
    88   1 H        0.925     0.031     2.567     2.505
    89   1 H        0.925     0.032     2.565     2.505
    90   1 H        0.925     0.037     2.491     2.468
    91   1 H        0.925     0.035     2.513     2.479
    92   1 H        0.926     0.036     2.509     2.477
    93   1 H        0.926     0.025     2.664     2.552
    94   1 H        0.926     0.039     2.461     2.453
    95   1 H        0.926     0.039     2.458     2.452
    96   1 H        0.926     0.031     2.576     2.510
    97   1 H        0.926     0.030     2.591     2.517
    98   1 H        0.926     0.033     2.547     2.495
    99   1 H        0.925     0.043     2.404     2.425
   100   1 H        0.925     0.034     2.524     2.484
   101   1 H        0.925     0.043     2.405     2.425
   102   1 H        0.925     0.044     2.402     2.423
   103   1 H        0.925     0.044     2.402     2.424
   104   1 H        0.925     0.034     2.529     2.487
   105   1 H        0.926     0.033     2.546     2.495
   106   1 H        0.926     0.039     2.458     2.452
   107   1 H        0.926     0.039     2.460     2.453
   108   1 H        0.926     0.024     2.667     2.554
   109   1 H        0.926     0.035     2.513     2.479
   110   1 H        0.925     0.035     2.521     2.483
   111   1 H        0.925     0.036     2.501     2.473
   112   1 H        0.925     0.035     2.521     2.483
   113   1 H        0.925     0.035     2.510     2.478
   114   1 H        0.925     0.037     2.490     2.468
   115   1 H        0.925     0.031     2.568     2.506
   116   1 H        0.925     0.031     2.567     2.505
   117   1 H        0.925     0.037     2.492     2.469
   118   1 H        0.925     0.035     2.510     2.477
   119   1 H        0.926     0.028     2.609     2.526
   120   1 H        0.926     0.035     2.517     2.481
   121   1 H        0.925     0.036     2.504     2.475
   122   1 H        0.925     0.035     2.521     2.483
   123   1 H        0.925     0.035     2.519     2.482
   124   1 H        0.925     0.035     2.514     2.479
   125   1 H        0.925     0.037     2.488     2.467
   126   1 H        0.925     0.031     2.566     2.505
   127   1 H        0.925     0.037     2.489     2.467
   128   1 H        0.925     0.035     2.513     2.479
   129   1 H        0.925     0.032     2.561     2.503
   130   1 H        0.926     0.028     2.613     2.528
   131   1 H        0.926     0.025     2.664     2.552
   132   1 H        0.926     0.039     2.465     2.455
   133   1 H        0.926     0.038     2.472     2.459
   134   1 H        0.926     0.031     2.576     2.510
   135   1 H        0.926     0.030     2.591     2.517
   136   1 H        0.926     0.038     2.472     2.459
   137   1 H        0.926     0.039     2.464     2.455

molecular dipole:
                 x           y           z       tot (Debye)
 q only:       -0.008       0.004       0.314
   full:        0.007       0.017       0.219       0.560

 projected vibrational frequencies (cm⁻¹)
eigval :       -0.00    -0.00    -0.00     0.00     0.00     0.00
eigval :        4.61     7.53     9.72    11.79    18.79    19.16
eigval :       28.06    32.65    33.54    34.63    35.09    37.70
eigval :       53.17    55.78    56.09    59.19    61.57    72.55
eigval :       81.50    82.46    88.10    91.45    93.92   101.88
eigval :      111.98   123.22   124.73   128.69   144.97   155.18
eigval :      155.93   157.92   159.13   176.83   180.47   181.50
eigval :      183.81   187.58   194.52   196.33   199.24   216.93
eigval :      218.77   221.91   223.13   225.56   229.13   235.64
eigval :      239.94   245.20   250.67   253.63   264.37   268.11
eigval :      273.88   284.89   287.81   298.49   304.21   308.59
eigval :      312.33   314.93   321.08   322.47   323.48   325.94
eigval :      327.03   329.73   334.96   337.79   352.82   355.21
eigval :      356.70   361.10   373.88   377.09   380.71   382.62
eigval :      386.25   393.57   399.11   406.38   411.73   412.19
eigval :      417.59   421.14   421.26   442.45   444.07   444.39
eigval :      445.19   452.60   460.36   462.88   467.37   467.70
eigval :      470.50   471.59   474.76   500.54   508.81   519.32
eigval :      522.81   525.65   545.07   567.34   570.87   574.44
eigval :      575.98   580.06   581.79   582.51   592.93   597.44
eigval :      600.50   622.32   625.27   628.91   629.38   629.70
eigval :      639.13   639.17   675.00   688.39   688.77   688.88
eigval :      689.00   697.79   701.62   707.74   708.27   718.68
eigval :      719.19   728.92   732.09   736.53   746.51   808.80
eigval :      812.22   818.11   818.91   820.33   823.01   829.04
eigval :      831.46   834.02   838.81   840.31   866.50   869.28
eigval :      872.29   872.43   874.68   874.99   881.19   882.35
eigval :      883.76   887.06   888.06   904.93   906.14   908.17
eigval :      912.86   913.20   915.28   920.40   921.63   922.03
eigval :      923.58   925.97   927.62   934.03   935.98   941.53
eigval :      943.22   958.02   958.29   958.91   959.23   960.74
eigval :      961.29   961.56   961.82   962.07   962.26   962.50
eigval :      962.70   963.37   965.51   985.21  1010.46  1013.20
eigval :     1013.69  1031.84  1033.11  1034.44  1034.81  1034.94
eigval :     1035.00  1035.40  1035.92  1036.18  1039.30  1068.86
eigval :     1076.82  1084.27  1112.54  1116.10  1116.71  1128.65
eigval :     1129.47  1134.57  1135.88  1142.05  1142.89  1159.10
eigval :     1165.09  1172.45  1178.02  1180.43  1188.78  1190.16
eigval :     1211.76  1213.47  1221.01  1222.25  1225.01  1225.10
eigval :     1225.22  1225.41  1225.83  1226.98  1230.58  1230.66
eigval :     1235.06  1235.69  1242.01  1244.71  1248.51  1251.68
eigval :     1259.07  1259.26  1266.53  1267.81  1276.76  1284.29
eigval :     1284.44  1292.54  1297.84  1301.61  1305.41  1307.83
eigval :     1312.47  1314.11  1314.49  1326.28  1345.46  1345.76
eigval :     1359.27  1362.67  1364.55  1376.39  1379.88  1392.04
eigval :     1398.51  1399.06  1401.05  1401.67  1402.50  1402.63
eigval :     1402.79  1402.85  1403.23  1403.83  1408.15  1414.04
eigval :     1414.68  1424.16  1426.40  1426.41  1426.45  1426.84
eigval :     1436.79  1439.93  1440.63  1447.93  1468.00  1473.55
eigval :     1474.17  1474.24  1482.35  1482.42  1485.75  1489.07
eigval :     1489.49  1489.74  1490.30  1492.59  1492.95  1493.17
eigval :     1493.47  1493.97  1497.49  1499.10  1499.51  1500.86
eigval :     1500.89  1501.19  1501.72  1502.65  1502.98  1503.05
eigval :     1503.81  1511.52  1512.49  1512.70  1513.18  1517.97
eigval :     1518.44  1518.61  1519.08  1557.21  1557.75  1569.86
eigval :     1571.08  1573.12  1582.81  1584.38  1585.36  1589.84
eigval :     1593.67  1602.58  1603.80  1604.16  1609.32  1617.97
eigval :     1619.39  3016.74  3016.96  3017.09  3017.86  3017.88
eigval :     3017.95  3018.10  3018.20  3021.49  3021.90  3021.92
eigval :     3022.05  3022.92  3023.27  3023.30  3023.51  3023.97
eigval :     3025.39  3025.79  3025.81  3025.90  3027.35  3029.07
eigval :     3029.25  3029.39  3029.62  3029.70  3031.10  3034.14
eigval :     3034.40  3034.60  3034.67  3035.66  3038.87  3043.37
eigval :     3043.40  3043.71  3044.00  3047.02  3047.12  3047.31
eigval :     3047.57  3069.22  3070.58  3074.48  3075.40  3075.74
eigval :     3076.79  3076.88  3077.26  3078.01  3078.28  3078.97
eigval :     3079.27  3081.42  3082.97  3083.30  3084.74  3085.54
eigval :     3088.05  3088.39  3088.64  3091.32  3091.57  3112.58
eigval :     3114.79  3114.92  3115.48

   temp. (K)  partition function   enthalpy   heat capacity  entropy
                                   cal/mol     cal/K/mol   cal/K/mol   J/K/mol
 298.15  VIB  0.613E+31            39230.240    241.949    244.652
         ROT  0.578E+09              888.752      2.981     43.075
         INT  0.354E+40            40118.992    244.929    287.726
         TR   0.262E+29             1481.254      4.968     46.251
         TOT                       41600.2459   249.8975   333.9767  1397.3587

       T/K    H(0)-H(T)+PV         H(T)/Eh          T*S/Eh         G(T)/Eh
   ------------------------------------------------------------------------
    298.15    0.662942E-01    0.120823E+01    0.158683E+00    0.104954E+01
   ------------------------------------------------------------------------

         :::::::::::::::::::::::::::::::::::::::::::::::::::::
         ::                  THERMODYNAMIC                  ::
         :::::::::::::::::::::::::::::::::::::::::::::::::::::
         :: total free energy        -183.198717667236 Eh   ::
         ::.................................................::
         :: total energy             -184.248259894411 Eh   ::
         :: zero point energy           1.141931145911 Eh   ::
         :: G(RRHO) w/o ZPVE           -0.092388918736 Eh   ::
         :: G(RRHO) contrib.            1.049542227175 Eh   ::
         :::::::::::::::::::::::::::::::::::::::::::::::::::::

           -------------------------------------------------
          | TOTAL ENERGY             -184.248259894411 Eh   |
          | TOTAL ENTHALPY           -183.040034536793 Eh   |
          | TOTAL FREE ENERGY        -183.198717667236 Eh   |
          | GRADIENT NORM               0.000038623385 Eh/α |
          | HOMO-LUMO GAP               2.431616998330 eV   |
           -------------------------------------------------

 * finished run on 2025/08/26 at 10:15:35.150
