   * xtb version 6.7.1 (edcfbbe) compiled by 'albert@albert-system' on 2024-07-22

   ID    Z sym.   atoms
    1    6 C      1-4, 6-20, 22-25, 27-40, 42-51, 53-61
    2    7 N      5, 21, 26, 41, 52
    3    1 H      62-94

          program call               : xtb data2507/toluene/β-DI-DBP/β-DI-DBP.xyz --gfn 2 --gbsa toluene --ohess vtight --parallel 40 --molden --ceasefiles --namespace data2507/toluene/β-DI-DBP/β-DI-DBP_toluene_S0_preOpt
      * Solvation model:               GBSA
        Solvent                        toluene
        Solvent mass                       9.2140E+01 g/mol
          :  Hamiltonian                  GFN2-xTB          :
 * total energy  :  -151.5260137 Eh     change       -0.2275783E-08 Eh
 * total energy  :  -151.5555315 Eh     change       -0.2951783E-01 Eh
 * total energy  :  -151.5627830 Eh     change       -0.7251474E-02 Eh
 * total energy  :  -151.5646497 Eh     change       -0.1866703E-02 Eh
 * total energy  :  -151.5659097 Eh     change       -0.1260054E-02 Eh
 * total energy  :  -151.5664546 Eh     change       -0.5448496E-03 Eh
 * total energy  :  -151.5667897 Eh     change       -0.3350838E-03 Eh
 * total energy  :  -151.5670259 Eh     change       -0.2362173E-03 Eh
 * total energy  :  -151.5671918 Eh     change       -0.1658741E-03 Eh
 * total energy  :  -151.5673284 Eh     change       -0.1365869E-03 Eh
 * total energy  :  -151.5684124 Eh     change       -0.5297876E-06 Eh
 * total energy  :  -151.5684128 Eh     change       -0.4244090E-06 Eh
 * total energy  :  -151.5684132 Eh     change       -0.3592347E-06 Eh
 * total energy  :  -151.5684135 Eh     change       -0.3193103E-06 Eh
 * total energy  :  -151.5684138 Eh     change       -0.3395429E-06 Eh
 * total energy  :  -151.5684142 Eh     change       -0.4107293E-06 Eh
 * total energy  :  -151.5684147 Eh     change       -0.4505120E-06 Eh
 * total energy  :  -151.5684151 Eh     change       -0.4441606E-06 Eh
 * total energy  :  -151.5684151 Eh     change       -0.2796469E-08 Eh
   *** GEOMETRY OPTIMIZATION CONVERGED AFTER 68 ITERATIONS ***

 final structure:
================
94
 xtb: 6.7.1 (edcfbbe)
C           -5.82229958978790       -5.41163223434700        0.60843955454928
C           -5.06404015393442       -4.63058252464999        1.46581062170789
C           -4.72142474345323       -3.33904041839928        1.11093252557409
C           -5.12903336013411       -2.82562484114248       -0.11728055451440
N           -4.81540032466306       -1.49744224130842       -0.45593898979660
C           -5.78123983317221       -0.52903371218064       -0.65349488650723
C           -7.14491108403343       -0.68475136430083       -0.85287622514668
C           -7.89658568326667        0.44617749219664       -1.10527350299485
C           -7.29767868073057        1.70091325066240       -1.17692869336225
C           -5.94843455596247        1.86474721830077       -0.93658449174940
C           -5.17679615131393        0.74960502667921       -0.62070582732430
C           -3.78852771519079        0.53107531614333       -0.31652999687715
C           -3.59523598621293       -0.87202173762870       -0.30660847427182
C           -2.30168914017386       -1.42189857270027       -0.28908105016798
C           -1.74220726147343       -2.72993375575691       -0.51912965665917
C           -2.26370522224920       -3.97744893309142       -0.85084433788107
C           -1.40358834128806       -5.03582211477618       -1.06595316894707
C           -0.02421426842259       -4.87329047968232       -0.98931279884088
C            0.52534274659200       -3.63891039999832       -0.70215155884261
C           -0.33660100974024       -2.58033636713248       -0.46175502747032
N           -0.02719214986533       -1.25171237248051       -0.22373001483231
C            1.24026657354482       -0.71120033367221       -0.46543566155743
C            1.37086139228279        0.31029317246016       -1.43997370843136
C            2.58850971191834        0.84369723322363       -1.73514432917313
C            3.74537514588679        0.37731259232298       -1.07116101410496
N            4.94166651789446        0.90849154821626       -1.35391741104475
C            5.99794732637398        0.44361890332634       -0.70925903908807
C            7.29811156209887        1.00878643901210       -0.99325007677380
C            7.40791856609724        2.03765596896976       -1.93409094347817
C            8.62970146332234        2.59976059499111       -2.22274603643820
C            9.76548388930843        2.13589979684844       -1.56802590591953
C            9.67158462230266        1.12156679348471       -0.63967818253861
C            8.44262201979317        0.52881168809527       -0.32491090016144
C            8.31767559807743       -0.54559610157469        0.65144520354873
C            9.41935717327294       -1.07196218558626        1.33705724793627
C            9.27735338776101       -2.08948440798963        2.25571261396627
C            8.02271669736588       -2.62354279553841        2.52822350752275
C            6.92136769181468       -2.12715717276784        1.87037312615934
C            7.05120905090335       -1.09570311213023        0.93498702246910
C            5.87327116179920       -0.60077642130965        0.25708627330022
N            4.69810869524264       -1.13111839625957        0.54471047092807
C            3.61883346818519       -0.66125236858014       -0.10067767332427
C            2.34734865694697       -1.19176028104411        0.19039868930221
C           -1.20768068322859       -0.54321509541084       -0.12096849834623
C           -1.39740280502496        0.81966079347736        0.15495411616062
C           -0.55387719848421        1.89975605302570        0.59066199381741
C            0.76120748058111        2.00364964264103        1.03753672413659
C            1.23998577070585        3.23305480515398        1.44292728557533
C            0.42530028008399        4.36215534375729        1.44438010769299
C           -0.89931703430733        4.27854215679944        1.06400577104560
C           -1.37872152693682        3.04770552151455        0.64092716808642
N           -2.66802529951230        2.70352542456842        0.28442619219543
C           -3.76379427498462        3.54381033680839        0.56305777888261
C           -3.88012196079820        4.77081215810078       -0.08142355151696
C           -4.93575216973205        5.61124123833087        0.22594919061703
C           -5.87453507224313        5.23432611994300        1.17237465201711
C           -5.75554145157400        4.01372441346192        1.81687355820283
C           -4.70147681769056        3.16965119660637        1.52016978215459
C           -2.70081620793112        1.35305049276946        0.01739101585292
C           -5.88471144977818       -3.61235815429237       -0.98141846924626
C           -6.22933272007444       -4.90113152466590       -0.61347112420322
H           -6.09275848462686       -6.41814670677758        0.89028660515553
H           -4.74284670267203       -5.02598998678882        2.41794942517963
H           -4.13256137185747       -2.72260406143150        1.77387229355139
H           -7.60766110069290       -1.65914342824067       -0.81850023696012
H           -8.95987945385416        0.35227143282235       -1.27076426701916
H           -7.90024405029704        2.56314015710311       -1.42283144445264
H           -5.50559436377788        2.84279426297455       -1.01789153725545
H           -3.32299095701026       -4.12754036444678       -0.95825756009940
H           -1.81079695673736       -6.00522810288198       -1.31345936241985
H            0.62642695146626       -5.71530816811481       -1.17399369763593
H            1.59584378411211       -3.50291112315341       -0.68585700429927
H            0.48195631017943        0.65319222370964       -1.94725969124935
H            2.70215809726665        1.62185631743110       -2.47369546873297
H            6.50519656073668        2.37270813350535       -2.42082566749153
H            8.70712613326213        3.39452442922103       -2.94943782569488
H           10.72912379894230        2.57207520476995       -1.78691097923903
H           10.57367817890640        0.78910841654896       -0.15242869390899
H           10.40773474882673       -0.68398032484142        1.15213162592995
H           10.14844978773584       -2.47331435645539        2.76622077349260
H            7.91531463830333       -3.42072345403106        3.24840098521164
H            5.93265056706592       -2.51747323101076        2.05534261846367
H            2.26779016559461       -1.95375635026966        0.95023213329136
H            1.40040637720372        1.13850406079884        1.09700037691117
H            2.26358634130427        3.31671258596080        1.77936255212703
H            0.82804639996253        5.30931853450589        1.77179572522341
H           -1.54636747373782        5.14101945248635        1.11395776040817
H           -3.15255369046216        5.05098528682679       -0.82913358022658
H           -5.02730149177064        6.56115474011843       -0.27994866495337
H           -6.69797301648100        5.89179662902469        1.40758270511694
H           -6.48433418823771        3.71811779599542        2.55672417572023
H           -4.59908511376421        2.21847900504079        2.02073280912957
H           -6.17700250302922       -3.21848527910808       -1.94351725725865
H           -6.81275464462733       -5.51049604277834       -1.28795803787952

          :  Hamiltonian                  GFN2-xTB          :
         :: gradient norm              0.000041121997 Eh/a0 ::
         :: HOMO-LUMO gap              1.255582272106 eV    ::
         :: SCC energy              -154.390309541801 Eh    ::
         :: -> dispersion             -0.152366686327 Eh    ::
         :: -> Gsolv                  -0.059823666020 Eh    ::
         :: repulsion energy           2.821894408964 Eh    ::

    * Orbital Energies and Occupations

         #    Occupation            Energy/Eh            Energy/eV
      -------------------------------------------------------------
         1        2.0000           -0.6792961             -18.4846
       ...           ...                  ...                  ...
       129        2.0000           -0.4116001             -11.2002
       130        2.0000           -0.4066877             -11.0665
       131        2.0000           -0.4046846             -11.0120
       132        2.0000           -0.4039085             -10.9909
       133        2.0000           -0.3965087             -10.7896
       134        2.0000           -0.3942678             -10.7286
       135        2.0000           -0.3923205             -10.6756
       136        2.0000           -0.3905437             -10.6272
       137        2.0000           -0.3900909             -10.6149
       138        2.0000           -0.3719806             -10.1221
       139        2.0000           -0.3559539              -9.6860
       140        2.0000           -0.3529687              -9.6048
       141        2.0000           -0.3521014              -9.5812 (HOMO)
       142                         -0.3059596              -8.3256 (LUMO)
       143                         -0.2694894              -7.3332
       144                         -0.2557066              -6.9581
       145                         -0.2460945              -6.6966
       146                         -0.2448518              -6.6628
       147                         -0.2327092              -6.3323
       148                         -0.2314455              -6.2980
       149                         -0.2311499              -6.2899
       150                         -0.2301089              -6.2616
       151                         -0.2282914              -6.2121
       152                         -0.2245681              -6.1108
       ...                                ...                  ...
       277                          0.7744699              21.0744
      -------------------------------------------------------------
                  HL-Gap            0.0461418 Eh            1.2556 eV

     #   Z          covCN         q      C6AA      α(0)
     1   6 C        2.919    -0.032    28.789     8.799
     2   6 C        2.919    -0.026    28.659     8.779
     3   6 C        2.922    -0.038    28.940     8.822
     4   6 C        2.915     0.069    26.465     8.436
     5   7 N        2.802    -0.046    22.132     6.987
     6   6 C        3.081     0.045    26.906     8.504
     7   6 C        2.910    -0.053    29.316     8.878
     8   6 C        2.923    -0.037    28.928     8.820
     9   6 C        2.919    -0.043    29.070     8.842
    10   6 C        2.914    -0.041    29.011     8.832
    11   6 C        3.061    -0.016    28.342     8.730
    12   6 C        3.055    -0.046    29.097     8.846
    13   6 C        3.063     0.042    26.987     8.519
    14   6 C        3.049    -0.046    29.086     8.845
    15   6 C        3.060    -0.014    28.293     8.723
    16   6 C        2.915    -0.042    29.051     8.838
    17   6 C        2.919    -0.042    29.039     8.837
    18   6 C        2.923    -0.037    28.912     8.818
    19   6 C        2.911    -0.053    29.308     8.877
    20   6 C        3.077     0.044    26.937     8.509
    21   7 N        2.801    -0.044    22.090     6.980
    22   6 C        2.912     0.073    26.366     8.420
    23   6 C        2.918    -0.035    28.882     8.813
    24   6 C        2.915    -0.042    29.041     8.837
    25   6 C        2.965     0.082    26.175     8.392
    26   7 N        1.848    -0.261    27.640     7.792
    27   6 C        2.960     0.085    26.115     8.382
    28   6 C        2.987    -0.007    28.186     8.709
    29   6 C        2.924    -0.028    28.702     8.786
    30   6 C        2.916    -0.028    28.706     8.786
    31   6 C        2.918    -0.026    28.662     8.779
    32   6 C        2.922    -0.034    28.847     8.808
    33   6 C        2.976     0.005    27.916     8.667
    34   6 C        2.976     0.005    27.905     8.665
    35   6 C        2.922    -0.034    28.846     8.808
    36   6 C        2.918    -0.026    28.654     8.778
    37   6 C        2.916    -0.028    28.709     8.786
    38   6 C        2.924    -0.028    28.694     8.784
    39   6 C        2.987    -0.007    28.193     8.710
    40   6 C        2.959     0.087    26.062     8.374
    41   7 N        1.848    -0.267    27.774     7.811
    42   6 C        2.964     0.084    26.120     8.383
    43   6 C        2.920    -0.060    29.504     8.907
    44   6 C        3.063     0.041    27.020     8.524
    45   6 C        3.057    -0.049    29.152     8.854
    46   6 C        3.059    -0.017    28.367     8.734
    47   6 C        2.914    -0.041    29.025     8.834
    48   6 C        2.919    -0.043    29.065     8.841
    49   6 C        2.923    -0.037    28.924     8.820
    50   6 C        2.910    -0.052    29.303     8.876
    51   6 C        3.086     0.045    26.894     8.501
    52   7 N        2.803    -0.047    22.140     6.988
    53   6 C        2.917     0.068    26.469     8.437
    54   6 C        2.922    -0.041    29.016     8.833
    55   6 C        2.920    -0.028    28.698     8.785
    56   6 C        2.919    -0.031    28.772     8.796
    57   6 C        2.920    -0.026    28.650     8.777
    58   6 C        2.922    -0.036    28.897     8.815
    59   6 C        3.064     0.043    26.974     8.517
    60   6 C        2.921    -0.042    29.031     8.836
    61   6 C        2.920    -0.028    28.700     8.785
    62   1 H        0.926     0.040     2.448     2.447
    63   1 H        0.926     0.040     2.444     2.445
    64   1 H        0.926     0.038     2.475     2.460
    65   1 H        0.926     0.030     2.586     2.515
    66   1 H        0.926     0.028     2.614     2.528
    67   1 H        0.926     0.025     2.658     2.550
    68   1 H        0.926     0.027     2.629     2.536
    69   1 H        0.926     0.032     2.553     2.499
    70   1 H        0.926     0.028     2.613     2.528
    71   1 H        0.926     0.029     2.594     2.519
    72   1 H        0.926     0.027     2.632     2.537
    73   1 H        0.926     0.053     2.283     2.363
    74   1 H        0.926     0.058     2.226     2.333
    75   1 H        0.926     0.054     2.267     2.355
    76   1 H        0.926     0.043     2.414     2.430
    77   1 H        0.926     0.043     2.403     2.424
    78   1 H        0.926     0.046     2.376     2.410
    79   1 H        0.926     0.046     2.373     2.409
    80   1 H        0.926     0.044     2.399     2.422
    81   1 H        0.926     0.043     2.412     2.429
    82   1 H        0.926     0.054     2.269     2.356
    83   1 H        0.926     0.057     2.233     2.337
    84   1 H        0.926     0.016     2.792     2.613
    85   1 H        0.926     0.019     2.741     2.589
    86   1 H        0.926     0.029     2.605     2.524
    87   1 H        0.926     0.031     2.574     2.509
    88   1 H        0.926     0.042     2.416     2.431
    89   1 H        0.926     0.041     2.430     2.438
    90   1 H        0.926     0.041     2.437     2.441
    91   1 H        0.926     0.040     2.442     2.444
    92   1 H        0.926     0.038     2.482     2.464
    93   1 H        0.926     0.043     2.408     2.427
    94   1 H        0.926     0.041     2.439     2.442

molecular dipole:
                 x           y           z       tot (Debye)
 q only:       -0.195       0.011       0.218
   full:       -0.179       0.014       0.237       0.755

 projected vibrational frequencies (cm⁻¹)
eigval :       -0.00    -0.00    -0.00     0.00     0.00     0.00
eigval :        8.06    12.50    13.44    24.03    26.33    45.69
eigval :       47.81    52.70    53.33    61.28    62.49    69.99
eigval :       77.31    77.71    82.40    94.39   101.79   115.53
eigval :      119.36   129.18   139.89   151.02   160.98   165.35
eigval :      194.86   201.08   206.31   219.83   224.15   226.05
eigval :      233.57   242.76   253.32   258.43   272.89   285.92
eigval :      291.66   306.54   340.64   346.89   351.55   362.22
eigval :      376.09   379.39   381.48   382.84   389.29   392.10
eigval :      399.19   400.72   402.94   406.77   412.65   427.97
eigval :      438.39   444.25   444.68   451.78   458.32   469.94
eigval :      481.54   518.68   529.09   534.63   537.47   543.90
eigval :      545.31   553.61   556.79   563.71   571.61   575.80
eigval :      581.67   586.35   589.79   592.67   593.40   599.48
eigval :      606.76   621.44   623.50   626.91   648.15   651.19
eigval :      665.62   669.79   670.57   674.31   680.77   682.78
eigval :      696.92   698.66   701.96   702.30   729.23   729.37
eigval :      733.17   750.80   761.70   765.17   766.78   767.49
eigval :      767.91   770.46   772.69   776.71   788.58   817.00
eigval :      834.84   843.85   844.42   852.30   864.10   867.13
eigval :      868.81   869.74   877.14   878.33   878.93   879.83
eigval :      883.62   899.71   901.05   902.85   905.13   907.55
eigval :      912.11   914.42   916.33   918.59   919.88   921.89
eigval :      922.60   924.22   927.38   928.59   929.05   931.25
eigval :      934.64   934.80   940.46   973.78   985.52   995.72
eigval :     1012.59  1022.24  1060.03  1073.55  1077.15  1077.79
eigval :     1078.15  1083.17  1083.99  1087.63  1090.94  1101.46
eigval :     1113.96  1115.46  1139.26  1141.13  1143.27  1145.45
eigval :     1148.70  1150.84  1175.15  1176.86  1178.02  1179.03
eigval :     1179.51  1180.35  1182.09  1182.91  1189.06  1192.78
eigval :     1210.01  1214.02  1214.91  1233.25  1242.55  1245.27
eigval :     1247.61  1250.36  1255.87  1271.60  1273.10  1284.90
eigval :     1286.24  1291.34  1292.85  1296.46  1304.84  1312.58
eigval :     1313.51  1314.44  1323.62  1329.35  1332.78  1337.30
eigval :     1346.27  1359.77  1364.55  1365.34  1367.64  1384.07
eigval :     1388.61  1391.61  1415.79  1424.02  1425.22  1427.86
eigval :     1430.03  1432.15  1434.30  1436.39  1438.51  1446.43
eigval :     1460.38  1472.32  1474.22  1476.81  1477.46  1478.75
eigval :     1481.59  1484.29  1499.35  1532.23  1554.22  1563.93
eigval :     1566.96  1567.15  1579.70  1581.12  1583.28  1584.67
eigval :     1587.55  1589.85  1591.56  1592.52  1594.72  1596.97
eigval :     1601.05  1602.84  1603.85  3069.00  3071.65  3073.38
eigval :     3077.23  3077.43  3077.59  3078.18  3079.60  3080.00
eigval :     3080.41  3080.62  3082.11  3086.85  3087.67  3087.94
eigval :     3088.34  3091.17  3091.53  3091.91  3092.17  3092.69
eigval :     3093.63  3098.30  3098.61  3099.96  3103.41  3103.61
eigval :     3104.65  3106.00  3113.52  3120.07  3127.60  3152.22

   temp. (K)  partition function   enthalpy   heat capacity  entropy
                                   cal/mol     cal/K/mol   cal/K/mol   J/K/mol
 298.15  VIB  0.576E+20            26516.683    173.338    163.523
         ROT  0.158E+09              888.752      2.981     40.493
         INT  0.908E+28            27405.435    176.319    204.016
         TR   0.209E+29             1481.254      4.968     45.804
         TOT                       28886.6893   181.2869   249.8207  1045.2500

       T/K    H(0)-H(T)+PV         H(T)/Eh          T*S/Eh         G(T)/Eh
   ------------------------------------------------------------------------
    298.15    0.460339E-01    0.756123E+00    0.118698E+00    0.637425E+00
   ------------------------------------------------------------------------

         :::::::::::::::::::::::::::::::::::::::::::::::::::::
         ::                  THERMODYNAMIC                  ::
         :::::::::::::::::::::::::::::::::::::::::::::::::::::
         :: total free energy        -150.930990207233 Eh   ::
         ::.................................................::
         :: total energy             -151.568415132558 Eh   ::
         :: zero point energy           0.710088949939 Eh   ::
         :: G(RRHO) w/o ZPVE           -0.072664024614 Eh   ::
         :: G(RRHO) contrib.            0.637424925325 Eh   ::
         :::::::::::::::::::::::::::::::::::::::::::::::::::::

           -------------------------------------------------
          | TOTAL ENERGY             -151.568415132558 Eh   |
          | TOTAL ENTHALPY           -150.812292313107 Eh   |
          | TOTAL FREE ENERGY        -150.930990207233 Eh   |
          | GRADIENT NORM               0.000041121502 Eh/α |
          | HOMO-LUMO GAP               1.255582434821 eV   |
           -------------------------------------------------

 * finished run on 2025/08/24 at 08:24:29.131
