   * xtb version 6.7.1 (edcfbbe) compiled by 'albert@albert-system' on 2024-07-22

   ID    Z sym.   atoms
    1    6 C      1-4, 6-20, 22-25, 27-40, 42-51, 53-61
    2    7 N      5, 21, 26, 41, 52
    3    1 H      62-94

          program call               : xtb data2507/toluene/β-DI-DBP/β-DI-DBP_toluene_T1_crest.xyz --gfn 2 --uhf 2 --gbsa toluene --ohess vtight --parallel 40 --molden --ceasefiles --namespace data2507/toluene/β-DI-DBP/β-DI-DBP_toluene_T1_finalOpt
      * Solvation model:               GBSA
        Solvent                        toluene
        Solvent mass                       9.2140E+01 g/mol
          :  Hamiltonian                  GFN2-xTB          :
 * total energy  :  -151.5181490 Eh     change       -0.1387602E-07 Eh
 * total energy  :  -151.5182413 Eh     change       -0.9231767E-04 Eh
 * total energy  :  -151.5183001 Eh     change       -0.5873451E-04 Eh
 * total energy  :  -151.5183184 Eh     change       -0.1829075E-04 Eh
 * total energy  :  -151.5183319 Eh     change       -0.1349861E-04 Eh
 * total energy  :  -151.5183501 Eh     change       -0.1820740E-04 Eh
 * total energy  :  -151.5183560 Eh     change       -0.5928560E-05 Eh
 * total energy  :  -151.5183643 Eh     change       -0.8274330E-05 Eh
 * total energy  :  -151.5183666 Eh     change       -0.2284131E-05 Eh
 * total energy  :  -151.5183685 Eh     change       -0.1902553E-05 Eh
 * total energy  :  -151.5183779 Eh     change       -0.8649260E-06 Eh
 * total energy  :  -151.5183786 Eh     change       -0.6620749E-06 Eh
 * total energy  :  -151.5183790 Eh     change       -0.4687118E-06 Eh
 * total energy  :  -151.5183792 Eh     change       -0.1633084E-06 Eh
 * total energy  :  -151.5183796 Eh     change       -0.3771831E-06 Eh
 * total energy  :  -151.5183797 Eh     change       -0.1278286E-06 Eh
 * total energy  :  -151.5183799 Eh     change       -0.1713551E-06 Eh
 * total energy  :  -151.5183800 Eh     change       -0.1446751E-06 Eh
 * total energy  :  -151.5183800 Eh     change       -0.8256023E-08 Eh
   *** GEOMETRY OPTIMIZATION CONVERGED AFTER 27 ITERATIONS ***

 final structure:
================
94
 xtb: 6.7.1 (edcfbbe)
C           -5.47869475490913       -5.61245878278586       -0.96057784616313
C           -6.18620822554085       -5.00599607342028        0.06461479245345
C           -5.99046736139704       -3.66551202091523        0.34776693415184
C           -5.07789512933998       -2.92890056523035       -0.39966167754876
N           -4.90903147185628       -1.55283043443104       -0.14551117565916
C           -5.90837717157041       -0.63755697414862       -0.41298807924917
C           -7.23667592166741       -0.88102504402740       -0.72748479800796
C           -8.03752616613421        0.20183525902669       -1.03420341431705
C           -7.51203582097061        1.49087834359672       -1.06365340879338
C           -6.18583297987252        1.73395060363850       -0.76665048301758
C           -5.36576651367409        0.66910167855717       -0.40005368982750
C           -3.97124449138224        0.52047816160754       -0.08355036409711
C           -3.72824583870256       -0.87363951909407        0.02900604620559
C           -2.43517675767262       -1.37090610680983        0.25266597903995
C           -1.86517011882028       -2.66812721833936        0.49473662253356
C           -2.37450324777903       -3.91623093096348        0.84370987754236
C           -1.50427202079827       -4.97769164721980        0.99352686350443
C           -0.13414053861730       -4.82287916436358        0.79934028698669
C            0.40554887726438       -3.58398125757644        0.51186759201219
C           -0.46136563312644       -2.50690601352449        0.40295225820632
N           -0.16689154774200       -1.17430010018998        0.19249118332270
C            1.09255726705514       -0.72434292133314       -0.23815186536636
C            1.20525402593268       -0.07110501074270       -1.46336253946819
C            2.44212395658963        0.34264208732593       -1.92013767943917
C            3.60071224400432        0.10583865965702       -1.17943283954685
N            4.80769488932726        0.48303953544528       -1.59628531014883
C            5.90229452475738        0.25266948723563       -0.87848891464640
C            7.19217489297250        0.64096276548789       -1.35675453102192
C            7.29497257320740        1.27196110852350       -2.60839771078306
C            8.51375754142107        1.65316693933210       -3.10598388067686
C            9.66862388314481        1.41151209831560       -2.36005386210364
C            9.58734285746534        0.79789959403889       -1.13302109295632
C            8.35693590734345        0.39456765400151       -0.59150103069965
C            8.23742040263429       -0.25386629727284        0.69365930199924
C            9.33991624939031       -0.52467626264020        1.51892113568510
C            9.19400333048592       -1.14561563671008        2.73625160576829
C            7.92903176670397       -1.52618764859004        3.18729054420696
C            6.82967290804925       -1.27637454668873        2.40798693788923
C            6.95916394327221       -0.64265086637374        1.16020358026944
C            5.78620804058170       -0.40108590008775        0.37934948491076
N            4.58997727167201       -0.79154772804634        0.80588639237508
C            3.48477056861596       -0.57652363366977        0.09093858351398
C            2.22585363318221       -0.97164316020073        0.53289113673799
C           -1.34588386608148       -0.46632274142131        0.15944933578746
C           -1.55795218710329        0.92250817043686        0.17434781742664
C           -0.72128125360264        2.07725454429025        0.36071863636159
C            0.63374574806056        2.28454468938658        0.61014208889259
C            1.09489780274178        3.57042389427855        0.80764289058014
C            0.22974457862656        4.66136638120889        0.79264350066186
C           -1.12507907010422        4.48495370256066        0.59281559267293
C           -1.58846962692552        3.19613572218484        0.37398329420498
N           -2.89172731758449        2.76926246839637        0.21507571518800
C           -3.99225746910510        3.59845347967289        0.50637976298884
C           -4.21745530364890        4.74836716611239       -0.24346559443462
C           -5.27686446020349        5.57955773510467        0.07618281598164
C           -6.11142481725501        5.26949820510628        1.13768097276063
C           -5.88506415254216        4.12457843884006        1.88461760127884
C           -4.82572678465968        3.29088900523305        1.57721593742004
C           -2.89271883054474        1.39924016240443        0.10534503757397
C           -4.37360231343415       -3.53516928995201       -1.43464675766866
C           -4.57353927095865       -4.87592849734313       -1.70755502488109
H           -5.63320053164257       -6.65869271696527       -1.17744582794016
H           -6.89084028216658       -5.57837792285114        0.64960648877877
H           -6.52844728651686       -3.18790759236827        1.15349415058636
H           -7.62772791445575       -1.88661414723081       -0.75100458030072
H           -9.07766819029646        0.04337185213659       -1.27748822376492
H           -8.15089201690419        2.31685552084882       -1.33952895961625
H           -5.79870814148268        2.73476582007218       -0.84356247125767
H           -3.42682175531846       -4.05855128369725        1.01959145454601
H           -1.89466861465776       -5.94775757875085        1.26342419725909
H            0.51924029403646       -5.67729782999638        0.89591108021978
H            1.46964438741135       -3.45805761118965        0.38382880553735
H            0.31989090815918        0.11296339304042       -2.05213397715608
H            2.53888752341593        0.84737266926706       -2.86849850861023
H            6.38335263268365        1.44396878769857       -3.16091648975077
H            8.58271205482162        2.13666178117618       -4.06925307727190
H           10.63131251704023        1.70877441032392       -2.74960345605575
H           10.49834911419464        0.62584905082660       -0.58245208824945
H           10.33070161657346       -0.24229568146836        1.20068825207213
H           10.06288529710256       -1.34024355450582        3.34784360581656
H            7.81964263739096       -2.01386573458412        4.14468042477472
H            5.83779855791502       -1.55776751979720        2.72873675301155
H            2.14109709845904       -1.44102898308674        1.50051343776207
H            1.32289934531502        1.46068600865320        0.66969600904530
H            2.14756730909323        3.72988633303330        0.99155400260491
H            0.62025430853914        5.65420713857525        0.95962100180410
H           -1.80396022940722        5.32300726416632        0.62515554979061
H           -3.57392000743993        4.97355221868238       -1.08109733652221
H           -5.45293685004925        6.46947365568305       -0.50986740933120
H           -6.93740561247019        5.92022403771171        1.38230215994526
H           -6.53240504328138        3.88158167624323        2.71377973029659
H           -4.63773767263165        2.39979598806362        2.15725314752007
H           -3.67379340996875       -2.95242404905624       -2.01469986475385
H           -4.02290511483745       -5.34535958064064       -2.50893280086235

          :  Hamiltonian                  GFN2-xTB          :
         :: gradient norm              0.000112372042 Eh/a0 ::
         :: HOMO-LUMO gap              1.023384530836 eV    ::
         :: SCC energy              -154.342417222974 Eh    ::
         :: -> dispersion             -0.152031630363 Eh    ::
         :: -> Gsolv                  -0.060693812139 Eh    ::
         :: repulsion energy           2.824037186297 Eh    ::

    * Orbital Energies and Occupations

         #    Occupation            Energy/Eh            Energy/eV
      -------------------------------------------------------------
         1        2.0000           -0.6824227             -18.5697
       ...           ...                  ...                  ...
       130        2.0000           -0.4097326             -11.1494
       131        2.0000           -0.4087696             -11.1232
       132        2.0000           -0.3985504             -10.8451
       133        2.0000           -0.3970294             -10.8037
       134        2.0000           -0.3951260             -10.7519
       135        2.0000           -0.3944847             -10.7345
       136        2.0000           -0.3886871             -10.5767
       137        2.0000           -0.3834166             -10.4333
       138        2.0000           -0.3753514             -10.2138
       139        1.8987           -0.3570168              -9.7149
       140        1.8848           -0.3568799              -9.7112
       141        1.2166           -0.3537218              -9.6253
       142        1.0000           -0.3013515              -8.2002 (HOMO)
       143                         -0.2637430              -7.1768 (LUMO)
       144                         -0.2502405              -6.8094
       145                         -0.2494144              -6.7869
       146                         -0.2478663              -6.7448
       147                         -0.2355810              -6.4105
       148                         -0.2344344              -6.3793
       149                         -0.2338304              -6.3629
       150                         -0.2331547              -6.3445
       151                         -0.2291446              -6.2353
       152                         -0.2206278              -6.0036
       153                         -0.2173359              -5.9140
       ...                                ...                  ...
       277                          0.7695551              20.9407
      -------------------------------------------------------------
                  HL-Gap            0.0376085 Eh            1.0234 eV

     #   Z          covCN         q      C6AA      α(0)
     1   6 C        2.919    -0.030    28.738     8.791
     2   6 C        2.920    -0.027    28.677     8.782
     3   6 C        2.921    -0.040    28.991     8.830
     4   6 C        2.917     0.067    26.511     8.443
     5   7 N        2.802    -0.037    21.957     6.959
     6   6 C        3.087     0.045    26.885     8.500
     7   6 C        2.910    -0.050    29.241     8.867
     8   6 C        2.923    -0.034    28.853     8.809
     9   6 C        2.919    -0.040    29.001     8.831
    10   6 C        2.914    -0.039    28.974     8.827
    11   6 C        3.058    -0.014    28.295     8.723
    12   6 C        3.055    -0.043    29.015     8.834
    13   6 C        3.062     0.045    26.926     8.509
    14   6 C        3.054    -0.043    29.019     8.835
    15   6 C        3.061    -0.013    28.285     8.722
    16   6 C        2.914    -0.039    28.963     8.825
    17   6 C        2.919    -0.040    28.993     8.830
    18   6 C        2.923    -0.034    28.857     8.809
    19   6 C        2.910    -0.049    29.222     8.864
    20   6 C        3.083     0.046    26.881     8.500
    21   7 N        2.803    -0.035    21.922     6.954
    22   6 C        2.911     0.058    26.704     8.474
    23   6 C        2.917    -0.048    29.185     8.859
    24   6 C        2.918    -0.061    29.517     8.909
    25   6 C        2.939     0.086    26.080     8.376
    26   7 N        1.849    -0.244    27.218     7.732
    27   6 C        2.941     0.080    26.215     8.397
    28   6 C        2.987    -0.009    28.241     8.717
    29   6 C        2.923    -0.031    28.764     8.795
    30   6 C        2.916    -0.033    28.819     8.803
    31   6 C        2.917    -0.033    28.815     8.803
    32   6 C        2.920    -0.035    28.879     8.812
    33   6 C        2.976    -0.002    28.076     8.692
    34   6 C        2.976    -0.002    28.075     8.691
    35   6 C        2.920    -0.035    28.878     8.812
    36   6 C        2.917    -0.033    28.815     8.803
    37   6 C        2.916    -0.033    28.820     8.803
    38   6 C        2.923    -0.031    28.762     8.795
    39   6 C        2.987    -0.009    28.243     8.718
    40   6 C        2.941     0.081    26.190     8.393
    41   7 N        1.849    -0.248    27.329     7.748
    42   6 C        2.940     0.089    26.024     8.367
    43   6 C        2.920    -0.075    29.861     8.961
    44   6 C        3.065     0.045    26.936     8.511
    45   6 C        3.053    -0.042    28.980     8.829
    46   6 C        3.058    -0.013    28.286     8.722
    47   6 C        2.914    -0.039    28.964     8.825
    48   6 C        2.919    -0.040    28.990     8.829
    49   6 C        2.923    -0.034    28.850     8.808
    50   6 C        2.910    -0.050    29.253     8.869
    51   6 C        3.085     0.046    26.878     8.499
    52   7 N        2.802    -0.037    21.953     6.959
    53   6 C        2.917     0.067    26.505     8.442
    54   6 C        2.921    -0.040    29.002     8.831
    55   6 C        2.920    -0.027    28.677     8.782
    56   6 C        2.919    -0.030    28.747     8.792
    57   6 C        2.920    -0.025    28.632     8.775
    58   6 C        2.922    -0.036    28.900     8.816
    59   6 C        3.063     0.044    26.948     8.513
    60   6 C        2.922    -0.036    28.885     8.814
    61   6 C        2.920    -0.025    28.631     8.775
    62   1 H        0.926     0.043     2.413     2.429
    63   1 H        0.926     0.044     2.398     2.422
    64   1 H        0.926     0.045     2.378     2.411
    65   1 H        0.926     0.034     2.536     2.490
    66   1 H        0.926     0.033     2.545     2.495
    67   1 H        0.926     0.030     2.583     2.513
    68   1 H        0.926     0.033     2.546     2.495
    69   1 H        0.926     0.034     2.528     2.486
    70   1 H        0.926     0.032     2.560     2.502
    71   1 H        0.926     0.033     2.550     2.497
    72   1 H        0.926     0.031     2.574     2.509
    73   1 H        0.926     0.040     2.446     2.446
    74   1 H        0.926     0.046     2.364     2.405
    75   1 H        0.926     0.042     2.418     2.431
    76   1 H        0.926     0.036     2.498     2.471
    77   1 H        0.926     0.036     2.503     2.474
    78   1 H        0.926     0.039     2.467     2.456
    79   1 H        0.926     0.039     2.467     2.456
    80   1 H        0.926     0.036     2.503     2.474
    81   1 H        0.926     0.036     2.497     2.471
    82   1 H        0.926     0.042     2.417     2.431
    83   1 H        0.926     0.048     2.343     2.394
    84   1 H        0.926     0.026     2.649     2.545
    85   1 H        0.926     0.024     2.670     2.555
    86   1 H        0.926     0.033     2.543     2.494
    87   1 H        0.926     0.036     2.503     2.474
    88   1 H        0.926     0.044     2.390     2.418
    89   1 H        0.926     0.043     2.406     2.426
    90   1 H        0.926     0.043     2.413     2.429
    91   1 H        0.926     0.043     2.409     2.427
    92   1 H        0.926     0.040     2.446     2.446
    93   1 H        0.926     0.039     2.467     2.456
    94   1 H        0.926     0.042     2.422     2.434

molecular dipole:
                 x           y           z       tot (Debye)
 q only:       -2.995       0.017       0.115
   full:       -2.900       0.007       0.075       7.373

 projected vibrational frequencies (cm⁻¹)
eigval :       -0.00    -0.00    -0.00     0.00     0.00     0.00
eigval :        4.63    11.09    14.74    21.85    25.19    41.80
eigval :       46.19    52.88    54.13    61.69    63.54    70.34
eigval :       75.74    78.61    80.85    93.20   104.95   109.98
eigval :      120.66   122.81   142.77   148.40   155.71   169.33
eigval :      184.93   191.33   206.95   215.14   221.69   226.90
eigval :      229.40   237.43   251.13   253.99   267.21   271.50
eigval :      291.06   299.96   335.23   342.27   356.39   361.71
eigval :      372.00   376.74   377.70   384.47   389.01   390.90
eigval :      399.50   401.50   404.10   407.66   410.21   419.87
eigval :      430.25   441.88   446.15   450.59   459.07   469.51
eigval :      476.41   515.73   523.01   528.48   533.14   538.68
eigval :      541.82   550.74   555.50   556.77   565.33   574.35
eigval :      580.59   583.47   585.15   589.42   591.50   594.54
eigval :      604.03   613.17   622.69   625.66   630.07   647.35
eigval :      650.78   661.13   668.45   671.30   675.26   676.63
eigval :      679.58   695.27   697.62   700.14   704.05   719.48
eigval :      722.80   728.99   749.13   757.65   764.18   764.30
eigval :      767.01   769.50   771.08   775.57   777.78   792.32
eigval :      808.07   830.56   836.54   842.54   849.61   863.54
eigval :      864.67   868.81   869.86   872.80   874.16   874.80
eigval :      877.00   877.41   899.07   900.98   903.67   904.44
eigval :      906.38   907.50   909.97   912.56   918.46   919.06
eigval :      919.40   920.77   921.74   921.85   923.90   926.25
eigval :      930.68   933.31   934.83   976.47   985.53   995.56
eigval :     1008.28  1013.93  1057.67  1072.83  1075.73  1077.23
eigval :     1077.61  1079.97  1080.92  1085.59  1088.02  1096.57
eigval :     1114.12  1115.15  1128.78  1133.66  1137.41  1139.23
eigval :     1144.62  1148.63  1164.61  1170.10  1177.89  1178.95
eigval :     1179.47  1179.92  1181.60  1182.83  1187.81  1190.48
eigval :     1202.05  1206.08  1214.04  1219.64  1221.23  1223.62
eigval :     1235.27  1245.86  1255.24  1256.71  1266.78  1267.60
eigval :     1270.86  1274.76  1277.92  1290.16  1295.83  1302.27
eigval :     1312.25  1312.60  1313.84  1316.41  1320.91  1326.37
eigval :     1328.05  1335.84  1342.51  1351.58  1354.58  1360.40
eigval :     1375.41  1380.89  1384.61  1389.93  1408.02  1412.51
eigval :     1415.02  1422.03  1425.96  1427.18  1433.13  1433.55
eigval :     1441.31  1462.92  1466.25  1466.48  1469.08  1475.53
eigval :     1476.77  1478.79  1485.39  1511.10  1520.80  1522.65
eigval :     1531.15  1535.53  1548.73  1577.96  1579.28  1579.53
eigval :     1580.43  1581.27  1581.80  1589.63  1590.06  1590.85
eigval :     1591.42  1594.36  1595.41  3072.67  3073.52  3074.03
eigval :     3075.89  3076.64  3078.69  3079.07  3081.03  3081.68
eigval :     3081.74  3082.14  3083.59  3084.64  3085.45  3087.67
eigval :     3088.80  3089.87  3091.84  3091.91  3092.74  3092.87
eigval :     3095.46  3095.93  3096.30  3097.49  3098.36  3098.97
eigval :     3099.53  3100.95  3106.97  3131.61  3141.39  3144.93

   temp. (K)  partition function   enthalpy   heat capacity  entropy
                                   cal/mol     cal/K/mol   cal/K/mol   J/K/mol
 298.15  VIB  0.178E+21            26764.307    174.702    165.634
         ROT  0.159E+09              888.752      2.981     40.514
         INT  0.283E+29            27653.059    177.683    206.149
         TR   0.209E+29             1481.254      4.968     45.804
         TOT                       29134.3132   182.6511   251.9529  1054.1710

       T/K    H(0)-H(T)+PV         H(T)/Eh          T*S/Eh         G(T)/Eh
   ------------------------------------------------------------------------
    298.15    0.464285E-01    0.752785E+00    0.119711E+00    0.633074E+00
   ------------------------------------------------------------------------

         :::::::::::::::::::::::::::::::::::::::::::::::::::::
         ::                  THERMODYNAMIC                  ::
         :::::::::::::::::::::::::::::::::::::::::::::::::::::
         :: total free energy        -150.885305825415 Eh   ::
         ::.................................................::
         :: total energy             -151.518380040733 Eh   ::
         :: zero point energy           0.706356691767 Eh   ::
         :: G(RRHO) w/o ZPVE           -0.073282476450 Eh   ::
         :: G(RRHO) contrib.            0.633074215318 Eh   ::
         :::::::::::::::::::::::::::::::::::::::::::::::::::::

           -------------------------------------------------
          | TOTAL ENERGY             -151.518380040733 Eh   |
          | TOTAL ENTHALPY           -150.765594865540 Eh   |
          | TOTAL FREE ENERGY        -150.885305825415 Eh   |
          | GRADIENT NORM               0.000105076398 Eh/α |
          | HOMO-LUMO GAP               1.023379684512 eV   |
           -------------------------------------------------

 * finished run on 2025/08/24 at 08:38:24.402
