   * xtb version 6.7.1 (edcfbbe) compiled by 'albert@albert-system' on 2024-07-22

   ID    Z sym.   atoms
    1    6 C      1-4, 6-20, 22-25, 27-40, 42-51, 53-61
    2    7 N      5, 21, 26, 41, 52
    3    1 H      62-94

          program call               : xtb data2507/toluene/β-DI-DBP/β-DI-DBP_toluene_S0_finalOpt.xtbopt.xyz --gfn 2 --uhf 2 --gbsa toluene --ohess vtight --parallel 40 --molden --ceasefiles --namespace data2507/toluene/β-DI-DBP/β-DI-DBP_toluene_T1_preOpt
      * Solvation model:               GBSA
        Solvent                        toluene
        Solvent mass                       9.2140E+01 g/mol
          :  Hamiltonian                  GFN2-xTB          :
 * total energy  :  -151.5143533 Eh     change       -0.8766239E-07 Eh
 * total energy  :  -151.5171415 Eh     change       -0.2788184E-02 Eh
 * total energy  :  -151.5180711 Eh     change       -0.9296056E-03 Eh
 * total energy  :  -151.5181903 Eh     change       -0.1192813E-03 Eh
 * total energy  :  -151.5182486 Eh     change       -0.5821646E-04 Eh
 * total energy  :  -151.5182594 Eh     change       -0.1079792E-04 Eh
 * total energy  :  -151.5182706 Eh     change       -0.1120083E-04 Eh
 * total energy  :  -151.5182816 Eh     change       -0.1109053E-04 Eh
 * total energy  :  -151.5182889 Eh     change       -0.7286720E-05 Eh
 * total energy  :  -151.5182953 Eh     change       -0.6328114E-05 Eh
 * total energy  :  -151.5183619 Eh     change       -0.7193310E-06 Eh
 * total energy  :  -151.5183626 Eh     change       -0.7444316E-06 Eh
 * total energy  :  -151.5183634 Eh     change       -0.7776998E-06 Eh
 * total energy  :  -151.5183642 Eh     change       -0.7969508E-06 Eh
 * total energy  :  -151.5183649 Eh     change       -0.6408014E-06 Eh
 * total energy  :  -151.5183653 Eh     change       -0.4226611E-06 Eh
 * total energy  :  -151.5183655 Eh     change       -0.2409138E-06 Eh
 * total energy  :  -151.5183657 Eh     change       -0.1363817E-06 Eh
 * total energy  :  -151.5183657 Eh     change       -0.1622425E-08 Eh
   *** GEOMETRY OPTIMIZATION CONVERGED AFTER 44 ITERATIONS ***

 final structure:
================
94
 xtb: 6.7.1 (edcfbbe)
C           -5.89855531912845       -5.39862413330079        0.83493200292329
C           -5.11974068779811       -4.60240635499675        1.65935581878980
C           -4.79427317498111       -3.31403752657459        1.27737986588522
C           -5.24046892316328       -2.82057727882668        0.05464830954794
N           -4.94479502862121       -1.49433828514308       -0.31046835514712
C           -5.92270260196774       -0.53529975743712       -0.49228876518855
C           -7.29243059823309       -0.70235427301067       -0.63036991291130
C           -8.05978679037250        0.41944022467353       -0.87898567852224
C           -7.47068655489633        1.67480048619675       -1.00602308220165
C           -6.11343348107414        1.85106349343547       -0.82621176078692
C           -5.32340104757565        0.74686353987264       -0.51517960962116
C           -3.92421556129143        0.54115925987093       -0.26158698345999
C           -3.72377012686157       -0.86415452293253       -0.22760446706069
C           -2.42924944669307       -1.40821342930878       -0.24980588132610
C           -1.87561294362056       -2.71722953006892       -0.47766811905969
C           -2.39897933997283       -3.97645564296190       -0.76130659707664
C           -1.53721121821455       -5.03071917368350       -0.99057115096816
C           -0.15620357642201       -4.85652095802464       -0.97197450162987
C            0.39407468887275       -3.61238412326153       -0.73411001290948
C           -0.46911879593511       -2.55600217535105       -0.48484512617036
N           -0.15807484739364       -1.22684483359133       -0.28146298880912
C            1.11840320213695       -0.70023175075421       -0.55089628997366
C            1.28071650975494        0.21675023897497       -1.58588211721172
C            2.53482437577923        0.71720040606170       -1.88050999428410
C            3.65997891890078        0.31020632835322       -1.16301987957101
N            4.88134177574147        0.77312020037769       -1.42210944994973
C            5.94373254879164        0.38058392990806       -0.72707023405642
C            7.24782760020453        0.88161893258402       -1.02961079417247
C            7.39864191947699        1.79983061764476       -2.08284076381877
C            8.63176412340010        2.30303973471449       -2.40597924786690
C            9.75298992920542        1.89785920028335       -1.67982129780499
C            9.62463217658419        1.00147751676116       -0.64598280374245
C            8.37823774282891        0.46530644929845       -0.28683662135655
C            8.20893199563135       -0.47957154905504        0.79247515933932
C            9.27537684955040       -0.93913559783749        1.58073785418305
C            9.08246851583054       -1.84071510435915        2.59990570913635
C            7.80454840857071       -2.32842073441052        2.87850309066975
C            6.73943697578851       -1.90046244486616        2.12976505381753
C            6.91693991904421       -0.97814197561369        1.08417540967157
C            5.77800736811834       -0.55643240545930        0.33004328202159
N            4.56725417277619       -1.03513548401067        0.59571733663669
C            3.49308740835391       -0.65188484041079       -0.09558773264455
C            2.21799967363513       -1.13384951308695        0.18485612829876
C           -1.32658778251012       -0.52022459282136       -0.14341972599869
C           -1.51334563498632        0.84980730089057        0.10354976401884
C           -0.65949619346872        1.94604514381973        0.47069721804298
C            0.67631413936746        2.07324800046668        0.84563768396269
C            1.16192942225213        3.31718602086977        1.19493093527201
C            0.33720590919753        4.43931622460773        1.21149134560339
C           -1.00413547557911        4.33517248669901        0.90024056734515
C           -1.49081079463944        3.08981439023954        0.53158024801527
N           -2.79216688673818        2.72756890030049        0.24520119470404
C           -3.88099332919233        3.57309383783330        0.53823651078182
C           -4.03055884900915        4.77531873099789       -0.14474718818561
C           -5.07847360512784        5.62083539658597        0.17536006448804
C           -5.97496043130231        5.27347111889896        1.17283434991539
C           -5.82127516569569        4.07812062801433        1.85630537659715
C           -4.77502993002082        3.22875519238067        1.54674961250671
C           -2.82721450033621        1.37417620502679        0.00869190625572
C           -6.01794618717526       -3.62143702759436       -0.77634131376583
C           -6.34444826726178       -4.90696231652195       -0.38122893922038
H           -6.15473912802368       -6.40258133059054        1.13811357766745
H           -4.76882635435837       -4.98332284627651        2.60674283665112
H           -4.19031976239381       -2.68582378696447        1.91497540569050
H           -7.74744485351000       -1.67768632774607       -0.55363715808235
H           -9.12829508041631        0.31718084349474       -0.99747437705763
H           -8.08743330200399        2.52778330374942       -1.24766422300248
H           -5.67963465794186        2.82833796455114       -0.94997038339455
H           -3.46005180355865       -4.13978509841476       -0.81963880730162
H           -1.94466191293726       -6.00822249642306       -1.20260040395312
H            0.49267967537644       -5.69813208359000       -1.16388712619687
H            1.46260827713216       -3.46197571083876       -0.75741149660130
H            0.42120647479544        0.53590671712408       -2.15476158583616
H            2.67078653802368        1.42881224199012       -2.67965665441847
H            6.51205823447534        2.09269740619259       -2.62515290003181
H            8.73764081189866        3.00786326293867       -3.21738816819390
H           10.72678723248416        2.29141905977749       -1.93226686567410
H           10.51067415418905        0.70916908804363       -0.10545099256896
H           10.27518200729149       -0.58235508241552        1.39169313303751
H            9.92442398590170       -2.17450412464009        3.18858404210466
H            7.65872160304334       -3.03788386921303        3.67963368584109
H            5.73847282210218       -2.25787304630867        2.31993033678187
H            2.09395737156525       -1.82690431772529        1.00251227172276
H            1.32769628350614        1.21742604255555        0.88866054063837
H            2.20056502173230        3.41793769646175        1.47509331675367
H            0.74678854755857        5.39738464367034        1.49514401664406
H           -1.65627750167649        5.19297029462289        0.95978497286221
H           -3.33581277361668        5.03159407121024       -0.93111700604752
H           -5.19652919537636        6.55135866325813       -0.35993185486705
H           -6.79230052706793        5.93478911373182        1.41801682180908
H           -6.51630128241588        3.80681685430224        2.63666755080656
H           -4.64435215829830        2.29789901643145        2.07785075778525
H           -6.34079134630003       -3.24167484926501       -1.73425380164478
H           -6.94430045299996       -5.52821629532232       -1.02972493876256

          :  Hamiltonian                  GFN2-xTB          :
         :: gradient norm              0.000027877524 Eh/a0 ::
         :: HOMO-LUMO gap              1.026239226639 eV    ::
         :: SCC energy              -154.342351853575 Eh    ::
         :: -> dispersion             -0.152034551294 Eh    ::
         :: -> Gsolv                  -0.060787517397 Eh    ::
         :: repulsion energy           2.823986193943 Eh    ::

    * Orbital Energies and Occupations

         #    Occupation            Energy/Eh            Energy/eV
      -------------------------------------------------------------
         1        2.0000           -0.6824933             -18.5716
       ...           ...                  ...                  ...
       130        2.0000           -0.4099812             -11.1562
       131        2.0000           -0.4079634             -11.1012
       132        2.0000           -0.3985728             -10.8457
       133        2.0000           -0.3968107             -10.7978
       134        2.0000           -0.3953088             -10.7569
       135        2.0000           -0.3945727             -10.7369
       136        2.0000           -0.3884964             -10.5715
       137        2.0000           -0.3833234             -10.4308
       138        2.0000           -0.3754202             -10.2157
       139        1.8957           -0.3570004              -9.7145
       140        1.8791           -0.3568421              -9.7102
       141        1.2252           -0.3537839              -9.6270
       142        1.0000           -0.3012938              -8.1986 (HOMO)
       143                         -0.2635804              -7.1724 (LUMO)
       144                         -0.2507544              -6.8234
       145                         -0.2492358              -6.7821
       146                         -0.2481259              -6.7518
       147                         -0.2358373              -6.4175
       148                         -0.2344059              -6.3785
       149                         -0.2338939              -6.3646
       150                         -0.2332399              -6.3468
       151                         -0.2289029              -6.2288
       152                         -0.2201994              -5.9919
       153                         -0.2170257              -5.9056
       ...                                ...                  ...
       277                          0.7693933              20.9363
      -------------------------------------------------------------
                  HL-Gap            0.0377135 Eh            1.0262 eV

     #   Z          covCN         q      C6AA      α(0)
     1   6 C        2.919    -0.030    28.753     8.793
     2   6 C        2.920    -0.025    28.638     8.776
     3   6 C        2.922    -0.037    28.920     8.819
     4   6 C        2.916     0.067    26.503     8.442
     5   7 N        2.802    -0.037    21.949     6.958
     6   6 C        3.082     0.046    26.886     8.500
     7   6 C        2.910    -0.050    29.249     8.868
     8   6 C        2.923    -0.034    28.852     8.809
     9   6 C        2.919    -0.040    28.999     8.831
    10   6 C        2.914    -0.038    28.951     8.823
    11   6 C        3.060    -0.013    28.288     8.722
    12   6 C        3.055    -0.042    28.996     8.831
    13   6 C        3.061     0.045    26.941     8.512
    14   6 C        3.052    -0.043    29.005     8.833
    15   6 C        3.058    -0.014    28.293     8.723
    16   6 C        2.914    -0.040    29.006     8.832
    17   6 C        2.919    -0.040    28.997     8.830
    18   6 C        2.923    -0.034    28.855     8.809
    19   6 C        2.910    -0.049    29.219     8.864
    20   6 C        3.086     0.046    26.877     8.498
    21   7 N        2.802    -0.036    21.928     6.955
    22   6 C        2.912     0.058    26.705     8.474
    23   6 C        2.917    -0.047    29.168     8.856
    24   6 C        2.918    -0.061    29.510     8.908
    25   6 C        2.939     0.086    26.075     8.375
    26   7 N        1.849    -0.243    27.206     7.731
    27   6 C        2.941     0.080    26.212     8.397
    28   6 C        2.987    -0.009    28.240     8.717
    29   6 C        2.923    -0.031    28.763     8.795
    30   6 C        2.916    -0.033    28.818     8.803
    31   6 C        2.917    -0.033    28.815     8.803
    32   6 C        2.920    -0.035    28.878     8.812
    33   6 C        2.976    -0.002    28.075     8.691
    34   6 C        2.976    -0.002    28.075     8.691
    35   6 C        2.920    -0.035    28.877     8.812
    36   6 C        2.917    -0.033    28.816     8.803
    37   6 C        2.916    -0.033    28.820     8.803
    38   6 C        2.923    -0.031    28.762     8.795
    39   6 C        2.987    -0.009    28.243     8.718
    40   6 C        2.941     0.081    26.192     8.394
    41   7 N        1.849    -0.248    27.320     7.747
    42   6 C        2.940     0.089    26.022     8.366
    43   6 C        2.920    -0.074    29.850     8.959
    44   6 C        3.065     0.045    26.926     8.509
    45   6 C        3.055    -0.043    29.013     8.833
    46   6 C        3.059    -0.013    28.285     8.722
    47   6 C        2.914    -0.038    28.949     8.823
    48   6 C        2.919    -0.040    28.987     8.829
    49   6 C        2.923    -0.034    28.853     8.809
    50   6 C        2.910    -0.050    29.251     8.868
    51   6 C        3.087     0.046    26.879     8.499
    52   7 N        2.802    -0.037    21.962     6.960
    53   6 C        2.917     0.067    26.508     8.443
    54   6 C        2.921    -0.040    28.993     8.830
    55   6 C        2.920    -0.027    28.675     8.781
    56   6 C        2.919    -0.030    28.740     8.791
    57   6 C        2.920    -0.025    28.631     8.775
    58   6 C        2.922    -0.036    28.887     8.814
    59   6 C        3.063     0.044    26.942     8.512
    60   6 C        2.921    -0.041    29.008     8.832
    61   6 C        2.920    -0.027    28.677     8.782
    62   1 H        0.926     0.042     2.421     2.433
    63   1 H        0.926     0.042     2.416     2.431
    64   1 H        0.926     0.040     2.450     2.448
    65   1 H        0.926     0.035     2.513     2.479
    66   1 H        0.926     0.033     2.538     2.491
    67   1 H        0.926     0.030     2.581     2.512
    68   1 H        0.926     0.032     2.557     2.501
    69   1 H        0.926     0.036     2.504     2.475
    70   1 H        0.926     0.032     2.562     2.503
    71   1 H        0.926     0.032     2.556     2.500
    72   1 H        0.926     0.030     2.592     2.517
    73   1 H        0.926     0.040     2.449     2.447
    74   1 H        0.926     0.046     2.366     2.406
    75   1 H        0.926     0.042     2.417     2.431
    76   1 H        0.926     0.036     2.497     2.471
    77   1 H        0.926     0.036     2.503     2.474
    78   1 H        0.926     0.039     2.466     2.456
    79   1 H        0.926     0.039     2.466     2.456
    80   1 H        0.926     0.036     2.503     2.474
    81   1 H        0.926     0.036     2.496     2.471
    82   1 H        0.926     0.042     2.416     2.431
    83   1 H        0.926     0.048     2.348     2.396
    84   1 H        0.926     0.025     2.663     2.552
    85   1 H        0.926     0.024     2.675     2.557
    86   1 H        0.926     0.033     2.544     2.494
    87   1 H        0.926     0.035     2.510     2.478
    88   1 H        0.926     0.044     2.391     2.418
    89   1 H        0.926     0.044     2.402     2.424
    90   1 H        0.926     0.043     2.409     2.427
    91   1 H        0.926     0.043     2.409     2.427
    92   1 H        0.926     0.039     2.456     2.451
    93   1 H        0.926     0.046     2.376     2.411
    94   1 H        0.926     0.043     2.408     2.427

molecular dipole:
                 x           y           z       tot (Debye)
 q only:       -3.057       0.091       0.373
   full:       -2.978       0.094       0.373       7.633

 projected vibrational frequencies (cm⁻¹)
eigval :       -0.00    -0.00     0.00     0.00     0.00     0.00
eigval :        9.82    12.22    17.48    23.35    26.91    43.76
eigval :       46.93    48.94    51.90    59.79    63.97    67.26
eigval :       76.09    80.95    87.01    93.67   108.03   112.27
eigval :      117.43   126.05   140.33   149.06   158.19   161.23
eigval :      187.10   196.79   201.78   215.01   221.57   224.10
eigval :      231.34   238.79   252.04   254.43   269.24   271.89
eigval :      287.37   302.43   337.52   344.64   351.70   360.96
eigval :      372.50   377.85   380.22   381.54   388.86   390.74
eigval :      398.86   401.92   402.13   407.30   411.37   419.89
eigval :      434.14   443.62   445.53   447.90   456.01   468.50
eigval :      479.88   515.78   522.67   525.94   531.59   538.77
eigval :      541.45   551.19   554.30   556.65   566.14   574.31
eigval :      580.86   584.19   585.05   589.91   591.26   592.84
eigval :      603.80   615.15   623.45   627.19   628.62   647.36
eigval :      650.61   661.94   669.10   670.53   672.56   676.86
eigval :      680.45   695.52   696.97   698.48   703.41   719.09
eigval :      722.16   728.96   749.73   757.66   763.76   764.43
eigval :      767.37   771.35   771.94   774.46   778.21   795.73
eigval :      812.96   830.78   836.98   841.72   849.23   862.92
eigval :      865.96   867.61   868.71   871.93   873.33   875.24
eigval :      877.12   879.21   900.42   901.83   902.78   904.91
eigval :      905.39   907.63   910.52   910.57   917.91   919.40
eigval :      920.45   921.00   921.41   922.44   926.37   928.35
eigval :      928.46   935.49   937.33   976.71   985.42   995.45
eigval :     1008.12  1014.02  1057.64  1073.71  1075.20  1077.75
eigval :     1077.96  1080.10  1081.04  1085.88  1087.46  1096.50
eigval :     1114.56  1115.49  1130.14  1132.12  1136.86  1137.94
eigval :     1144.74  1147.96  1166.06  1167.52  1175.51  1177.65
eigval :     1178.56  1179.59  1180.98  1182.56  1187.95  1191.12
eigval :     1201.70  1204.87  1213.09  1220.21  1220.60  1223.50
eigval :     1235.70  1245.47  1254.96  1256.79  1265.74  1268.02
eigval :     1270.74  1275.30  1277.84  1290.36  1295.57  1302.91
eigval :     1312.10  1312.82  1313.66  1317.71  1319.73  1325.67
eigval :     1328.55  1336.45  1341.96  1351.55  1354.44  1360.18
eigval :     1375.94  1380.49  1384.41  1389.82  1408.22  1412.49
eigval :     1414.92  1421.60  1425.86  1426.97  1433.10  1433.43
eigval :     1441.96  1462.93  1465.37  1466.67  1469.37  1474.88
eigval :     1476.64  1478.51  1485.37  1512.29  1519.15  1523.18
eigval :     1530.90  1536.50  1548.47  1577.77  1578.70  1578.84
eigval :     1580.39  1580.94  1581.78  1589.01  1590.31  1590.82
eigval :     1592.01  1593.86  1595.35  3072.91  3073.34  3073.68
eigval :     3075.99  3076.31  3079.22  3079.25  3080.74  3081.43
eigval :     3081.63  3081.73  3083.62  3084.07  3084.98  3088.46
eigval :     3089.20  3090.56  3091.82  3092.33  3092.78  3093.02
eigval :     3094.27  3095.04  3095.62  3095.76  3097.94  3099.32
eigval :     3099.74  3101.33  3106.63  3131.79  3133.59  3153.49

   temp. (K)  partition function   enthalpy   heat capacity  entropy
                                   cal/mol     cal/K/mol   cal/K/mol   J/K/mol
 298.15  VIB  0.576E+20            26742.538    174.668    164.438
         ROT  0.158E+09              888.752      2.981     40.502
         INT  0.913E+28            27631.290    177.649    204.940
         TR   0.209E+29             1481.254      4.968     45.804
         TOT                       29112.5439   182.6173   250.7443  1049.1141

       T/K    H(0)-H(T)+PV         H(T)/Eh          T*S/Eh         G(T)/Eh
   ------------------------------------------------------------------------
    298.15    0.463938E-01    0.752775E+00    0.119137E+00    0.633638E+00
   ------------------------------------------------------------------------

         :::::::::::::::::::::::::::::::::::::::::::::::::::::
         ::                  THERMODYNAMIC                  ::
         :::::::::::::::::::::::::::::::::::::::::::::::::::::
         :: total free energy        -150.884727421424 Eh   ::
         ::.................................................::
         :: total energy             -151.518365657057 Eh   ::
         :: zero point energy           0.706381144334 Eh   ::
         :: G(RRHO) w/o ZPVE           -0.072742908701 Eh   ::
         :: G(RRHO) contrib.            0.633638235633 Eh   ::
         :::::::::::::::::::::::::::::::::::::::::::::::::::::

           -------------------------------------------------
          | TOTAL ENERGY             -151.518365657057 Eh   |
          | TOTAL ENTHALPY           -150.765590720969 Eh   |
          | TOTAL FREE ENERGY        -150.884727421424 Eh   |
          | GRADIENT NORM               0.000030564172 Eh/α |
          | HOMO-LUMO GAP               1.026236168852 eV   |
           -------------------------------------------------

 * finished run on 2025/08/24 at 08:30:42.022
