   * xtb version 6.7.1 (edcfbbe) compiled by 'albert@albert-system' on 2024-07-22

   ID    Z sym.   atoms
    1    6 C      1-4, 6-20, 22-25, 27-40, 42-51, 53-61
    2    7 N      5, 21, 26, 41, 52
    3    1 H      62-94

          program call               : xtb data2507/toluene/β-DI-DBP/β-DI-DBP_toluene_S0_crest.xyz --gfn 2 --gbsa toluene --ohess vtight --parallel 40 --molden --ceasefiles --namespace data2507/toluene/β-DI-DBP/β-DI-DBP_toluene_S0_finalOpt
      * Solvation model:               GBSA
        Solvent                        toluene
        Solvent mass                       9.2140E+01 g/mol
          :  Hamiltonian                  GFN2-xTB          :
 * total energy  :  -151.5682514 Eh     change       -0.1558874E-08 Eh
 * total energy  :  -151.5683067 Eh     change       -0.5526479E-04 Eh
 * total energy  :  -151.5683395 Eh     change       -0.3286733E-04 Eh
 * total energy  :  -151.5683587 Eh     change       -0.1915059E-04 Eh
 * total energy  :  -151.5683782 Eh     change       -0.1949835E-04 Eh
 * total energy  :  -151.5683915 Eh     change       -0.1326819E-04 Eh
 * total energy  :  -151.5683989 Eh     change       -0.7386861E-05 Eh
 * total energy  :  -151.5684042 Eh     change       -0.5366876E-05 Eh
 * total energy  :  -151.5684073 Eh     change       -0.3118535E-05 Eh
 * total energy  :  -151.5684091 Eh     change       -0.1771831E-05 Eh
 * total energy  :  -151.5684132 Eh     change       -0.6481123E-06 Eh
 * total energy  :  -151.5684139 Eh     change       -0.6693824E-06 Eh
 * total energy  :  -151.5684147 Eh     change       -0.8164579E-06 Eh
 * total energy  :  -151.5684155 Eh     change       -0.8352721E-06 Eh
 * total energy  :  -151.5684162 Eh     change       -0.6719993E-06 Eh
 * total energy  :  -151.5684167 Eh     change       -0.5190055E-06 Eh
 * total energy  :  -151.5684172 Eh     change       -0.5376909E-06 Eh
 * total energy  :  -151.5684178 Eh     change       -0.6014410E-06 Eh
 * total energy  :  -151.5684179 Eh     change       -0.1556913E-07 Eh
   *** GEOMETRY OPTIMIZATION CONVERGED AFTER 22 ITERATIONS ***

 final structure:
================
94
 xtb: 6.7.1 (edcfbbe)
C           -5.91281771124489       -5.37410805604433        0.86948260461234
C           -5.13877821537366       -4.56643115516282        1.68711823425106
C           -4.80606695882532       -3.28575597696402        1.28647746416125
C           -5.23879220169079       -2.81026292232173        0.05160456888898
N           -4.93308524353452       -1.49301343707547       -0.33400962960842
C           -5.90304167442028       -0.53112780271070       -0.54320843268588
C           -7.27009936306490       -0.69289353900906       -0.71233838151123
C           -8.02723012317515        0.42982904376534       -0.98435191003059
C           -7.43053739903855        1.68189129976744       -1.10508958009920
C           -6.07706685094668        1.85293000908516       -0.89549818678650
C           -5.29897003258149        0.74804270020884       -0.56009325783651
C           -3.90521324313448        0.53918364045504       -0.27444093405571
C           -3.71100531741462       -0.86275521591223       -0.22556551761246
C           -2.41719424869388       -1.41162476939646       -0.21227147325925
C           -1.86269234523234       -2.72671770177261       -0.41116106881294
C           -2.38913081804642       -3.98191229459305       -0.70410091357360
C           -1.53242188213742       -5.04667641932974       -0.90023576054298
C           -0.15203650476156       -4.88444145547480       -0.84158891232647
C            0.40198240908820       -3.64363338409072       -0.59374903492798
C           -0.45655620236960       -2.57774346186425       -0.37431040647078
N           -0.14283651818299       -1.24351492049040       -0.17924213836677
C            1.12691639073477       -0.71886558816134       -0.44440605134890
C            1.26330671590533        0.25556710331322       -1.46493531759435
C            2.48496376472759        0.76459955470871       -1.78611135157824
C            3.63868834176167        0.32231265622965       -1.10039819304729
N            4.83933435663353        0.82767981142555       -1.41113092779782
C            5.89135060734178        0.39312817988041       -0.73899050497360
C            7.19672152282157        0.92793922670055       -1.05616488353137
C            7.31791116217647        1.88577143055116       -2.06794506720866
C            8.54529742050728        2.41520250409217       -2.39234729200024
C            9.67546529409131        1.98893337973339       -1.70326083548679
C            9.57015093265522        1.04570178306052       -0.70389093771742
C            8.33517969545122        0.48795514847358       -0.35089051023892
C            8.19807414843679       -0.51126786860589        0.70088069964171
C            9.29128238891997       -0.98527236238519        1.43654012158180
C            9.13796903290030       -1.93288862454921        2.42547858197047
C            7.88030723604582       -2.44797475258733        2.71972409939469
C            6.78687390704835       -2.00049844809245        2.01526630883830
C            6.92798189255142       -1.03889667227592        1.00970606400877
C            5.75711412196050       -0.58891753838312        0.28957386107991
N            4.57899202931957       -1.09994379568252        0.59893354129188
C            3.50477271120502       -0.66410816118766       -0.07790199454164
C            2.23041099761810       -1.17547392334037        0.23396467227931
C           -1.32025419172525       -0.52907469662979       -0.08590834487577
C           -1.50588859704242        0.84240220338801        0.14818079135215
C           -0.65627750230399        1.93689169423884        0.53412603886927
C            0.66676320712076        2.05780714603204        0.95248070463344
C            1.15031819390850        3.30005523461931        1.31027598683628
C            0.33335444607872        4.42728349203940        1.29223874003887
C           -0.99770850620108        4.32927931349031        0.93898801879618
C           -1.48182008008665        3.08513403436507        0.56270769365237
N           -2.77657058347257        2.72893533183541        0.23974172313638
C           -3.86774796247624        3.57762954220788        0.51086780204171
C           -3.99515617739921        4.78433426324085       -0.16895251743384
C           -5.04457364678145        5.63501907408900        0.13135888556680
C           -5.96659447538751        5.28833036089896        1.10541839212648
C           -5.83671839330010        4.08791711974838        1.78481517833038
C           -4.78842218475904        3.23412014144281        1.49558304056118
C           -2.81215389890585        1.37078752108794        0.01548918118186
C           -6.01048655534762       -3.62392375635021       -0.77261023705155
C           -6.34545391089418       -4.90126700051596       -0.35875715013925
H           -6.17525907982991       -6.37205617282729        1.18715617324713
H           -4.79752256615010       -4.93255650168301        2.64398656536277
H           -4.20541410199556       -2.64891919379279        1.91878212634435
H           -7.73150413968591       -1.66581288956021       -0.63969455479768
H           -9.09345962344960        0.33093250783028       -1.12640117066420
H           -8.03818174324718        2.53622253355697       -1.36559072397674
H           -5.63635661647619        2.82799157432367       -1.01508100450720
H           -3.44972469051902       -4.13318655297337       -0.79649328946542
H           -1.94324032216138       -6.02156297254447       -1.11850386630289
H            0.49546907437606       -5.73223422932049       -1.01025462362494
H            1.47277179934949       -3.50813836560314       -0.59129611007413
H            0.37582866317620        0.58137402011303       -1.98595576346339
H            2.60417166116380        1.50504312265445       -2.56162764446108
H            6.41945041942897        2.19249268285839       -2.58056565120234
H            8.63158609058875        3.15458689723366       -3.17436222873187
H           10.64357695361559        2.39906006387061       -1.95083024398768
H           10.46822540065056        0.74033148265901       -0.19210876239578
H           10.28170642669978       -0.61001488005678        1.23689176436933
H           10.00259025015204       -2.27691809828867        2.97396784764890
H            7.76399270454059       -3.19129735464753        3.49406047526013
H            5.79590798329463       -2.37646890907650        2.21698095374996
H            2.14505340022575       -1.90176496931991        1.02747172845278
H            1.30963996065856        1.19674793381423        1.02664778877749
H            2.17987403901791        3.39560712998266        1.62467645196991
H            0.73964461928051        5.38470103668773        1.58339895586345
H           -1.64589101150738        5.19162270728167        0.97414021560446
H           -3.28102552518153        5.04065901062050       -0.93788803173118
H           -5.14437954308896        6.56915613777691       -0.40163211066487
H           -6.78533832486474        5.95363128715766        1.33505982326788
H           -6.55226409155098        3.81586472735312        2.54632701312823
H           -4.67735569005433        2.29881756743149        2.02344111786941
H           -6.32269706772273       -3.26018127477914       -1.74029443589071
H           -6.94128504949294       -5.53151077804421       -1.00253990642762

          :  Hamiltonian                  GFN2-xTB          :
         :: gradient norm              0.000098310864 Eh/a0 ::
         :: HOMO-LUMO gap              1.248852752241 eV    ::
         :: SCC energy              -154.390203038457 Eh    ::
         :: -> dispersion             -0.152319995555 Eh    ::
         :: -> Gsolv                  -0.059826870814 Eh    ::
         :: repulsion energy           2.821785174741 Eh    ::

    * Orbital Energies and Occupations

         #    Occupation            Energy/Eh            Energy/eV
      -------------------------------------------------------------
         1        2.0000           -0.6794579             -18.4890
       ...           ...                  ...                  ...
       129        2.0000           -0.4115569             -11.1990
       130        2.0000           -0.4066517             -11.0656
       131        2.0000           -0.4047533             -11.0139
       132        2.0000           -0.4038713             -10.9899
       133        2.0000           -0.3965396             -10.7904
       134        2.0000           -0.3942428             -10.7279
       135        2.0000           -0.3924050             -10.6779
       136        2.0000           -0.3904931             -10.6259
       137        2.0000           -0.3901367             -10.6162
       138        2.0000           -0.3719548             -10.1214
       139        2.0000           -0.3560949              -9.6898
       140        2.0000           -0.3528929              -9.6027
       141        2.0000           -0.3520351              -9.5794 (HOMO)
       142                         -0.3061406              -8.3305 (LUMO)
       143                         -0.2696104              -7.3365
       144                         -0.2557870              -6.9603
       145                         -0.2460288              -6.6948
       146                         -0.2447677              -6.6605
       147                         -0.2326686              -6.3312
       148                         -0.2314130              -6.2971
       149                         -0.2311008              -6.2886
       150                         -0.2300964              -6.2612
       151                         -0.2284043              -6.2152
       152                         -0.2245126              -6.1093
       ...                                ...                  ...
       277                          0.7745064              21.0754
      -------------------------------------------------------------
                  HL-Gap            0.0458945 Eh            1.2489 eV

     #   Z          covCN         q      C6AA      α(0)
     1   6 C        2.919    -0.032    28.789     8.799
     2   6 C        2.919    -0.026    28.660     8.779
     3   6 C        2.922    -0.038    28.941     8.822
     4   6 C        2.915     0.069    26.465     8.436
     5   7 N        2.802    -0.046    22.134     6.987
     6   6 C        3.081     0.045    26.906     8.504
     7   6 C        2.910    -0.053    29.316     8.878
     8   6 C        2.923    -0.037    28.929     8.820
     9   6 C        2.919    -0.043    29.070     8.842
    10   6 C        2.914    -0.041    29.011     8.832
    11   6 C        3.062    -0.016    28.342     8.730
    12   6 C        3.055    -0.046    29.099     8.847
    13   6 C        3.063     0.042    26.985     8.518
    14   6 C        3.050    -0.046    29.086     8.845
    15   6 C        3.060    -0.014    28.296     8.723
    16   6 C        2.915    -0.042    29.049     8.838
    17   6 C        2.919    -0.042    29.041     8.837
    18   6 C        2.923    -0.037    28.912     8.818
    19   6 C        2.911    -0.053    29.307     8.877
    20   6 C        3.077     0.044    26.936     8.509
    21   7 N        2.802    -0.044    22.093     6.981
    22   6 C        2.912     0.073    26.364     8.420
    23   6 C        2.918    -0.035    28.880     8.813
    24   6 C        2.915    -0.042    29.039     8.837
    25   6 C        2.965     0.082    26.175     8.392
    26   7 N        1.848    -0.261    27.637     7.791
    27   6 C        2.960     0.085    26.113     8.382
    28   6 C        2.987    -0.007    28.186     8.709
    29   6 C        2.924    -0.028    28.702     8.786
    30   6 C        2.916    -0.028    28.706     8.786
    31   6 C        2.918    -0.026    28.661     8.779
    32   6 C        2.922    -0.034    28.846     8.808
    33   6 C        2.975     0.005    27.915     8.667
    34   6 C        2.975     0.005    27.904     8.665
    35   6 C        2.922    -0.034    28.845     8.807
    36   6 C        2.918    -0.026    28.653     8.778
    37   6 C        2.916    -0.028    28.708     8.786
    38   6 C        2.924    -0.028    28.694     8.784
    39   6 C        2.987    -0.007    28.192     8.710
    40   6 C        2.959     0.087    26.061     8.373
    41   7 N        1.848    -0.266    27.769     7.810
    42   6 C        2.964     0.084    26.119     8.383
    43   6 C        2.920    -0.060    29.493     8.906
    44   6 C        3.062     0.041    27.021     8.524
    45   6 C        3.056    -0.049    29.153     8.855
    46   6 C        3.059    -0.017    28.367     8.734
    47   6 C        2.914    -0.041    29.029     8.835
    48   6 C        2.919    -0.043    29.065     8.841
    49   6 C        2.923    -0.037    28.925     8.820
    50   6 C        2.910    -0.053    29.304     8.876
    51   6 C        3.086     0.045    26.894     8.501
    52   7 N        2.802    -0.047    22.140     6.988
    53   6 C        2.917     0.068    26.469     8.437
    54   6 C        2.922    -0.041    29.016     8.833
    55   6 C        2.920    -0.028    28.698     8.785
    56   6 C        2.919    -0.031    28.772     8.796
    57   6 C        2.920    -0.026    28.650     8.777
    58   6 C        2.922    -0.036    28.897     8.815
    59   6 C        3.063     0.043    26.974     8.517
    60   6 C        2.921    -0.042    29.032     8.836
    61   6 C        2.920    -0.028    28.700     8.785
    62   1 H        0.926     0.040     2.448     2.447
    63   1 H        0.926     0.040     2.445     2.445
    64   1 H        0.926     0.038     2.476     2.461
    65   1 H        0.926     0.030     2.586     2.515
    66   1 H        0.926     0.028     2.614     2.528
    67   1 H        0.926     0.025     2.659     2.550
    68   1 H        0.926     0.027     2.630     2.536
    69   1 H        0.926     0.032     2.555     2.500
    70   1 H        0.926     0.028     2.614     2.528
    71   1 H        0.926     0.029     2.596     2.520
    72   1 H        0.926     0.026     2.639     2.541
    73   1 H        0.926     0.053     2.283     2.363
    74   1 H        0.926     0.058     2.224     2.332
    75   1 H        0.926     0.054     2.267     2.354
    76   1 H        0.926     0.043     2.414     2.429
    77   1 H        0.926     0.044     2.402     2.424
    78   1 H        0.926     0.046     2.375     2.410
    79   1 H        0.926     0.046     2.372     2.408
    80   1 H        0.926     0.044     2.399     2.422
    81   1 H        0.926     0.043     2.412     2.429
    82   1 H        0.926     0.054     2.269     2.355
    83   1 H        0.926     0.057     2.232     2.336
    84   1 H        0.926     0.016     2.793     2.613
    85   1 H        0.926     0.019     2.742     2.590
    86   1 H        0.926     0.029     2.606     2.524
    87   1 H        0.926     0.031     2.574     2.509
    88   1 H        0.926     0.042     2.416     2.431
    89   1 H        0.926     0.041     2.430     2.438
    90   1 H        0.926     0.041     2.437     2.441
    91   1 H        0.926     0.040     2.442     2.444
    92   1 H        0.926     0.038     2.482     2.464
    93   1 H        0.926     0.043     2.409     2.427
    94   1 H        0.926     0.041     2.439     2.442

molecular dipole:
                 x           y           z       tot (Debye)
 q only:       -0.163       0.023       0.237
   full:       -0.146       0.027       0.255       0.750

 projected vibrational frequencies (cm⁻¹)
eigval :       -0.00    -0.00    -0.00     0.00     0.00     0.00
eigval :        2.70    11.88    14.30    23.92    27.16    45.80
eigval :       46.20    51.19    52.94    59.49    61.08    68.46
eigval :       75.41    78.27    81.90    92.50   101.00   115.21
eigval :      118.83   128.43   140.42   150.22   160.90   164.12
eigval :      194.10   200.36   205.99   219.15   223.56   226.79
eigval :      233.03   241.83   253.43   257.21   272.69   285.92
eigval :      291.77   306.37   340.34   347.11   351.88   362.77
eigval :      375.76   379.02   381.82   382.84   389.18   392.12
eigval :      398.41   400.61   402.90   406.90   412.40   426.86
eigval :      437.39   443.96   444.42   450.79   457.65   470.04
eigval :      481.35   517.97   528.54   533.70   536.91   542.92
eigval :      545.10   553.67   556.69   563.61   571.31   575.67
eigval :      581.65   586.05   589.90   592.87   593.47   599.56
eigval :      607.03   621.67   624.64   629.20   647.98   651.36
eigval :      665.57   669.73   670.27   674.88   680.90   682.80
eigval :      697.07   697.50   701.98   702.37   729.21   729.32
eigval :      733.05   750.55   761.52   763.64   764.33   767.16
eigval :      768.05   772.50   773.67   777.84   785.80   816.05
eigval :      834.81   843.78   844.44   852.27   863.59   864.54
eigval :      867.07   870.44   875.97   876.88   878.39   879.49
eigval :      882.30   899.41   901.38   902.59   905.80   906.69
eigval :      912.08   913.61   914.53   918.27   920.23   921.58
eigval :      922.86   924.63   925.75   926.48   927.49   929.44
eigval :      935.48   936.98   940.37   973.93   985.67   995.81
eigval :     1012.70  1022.08  1059.96  1073.61  1077.48  1077.85
eigval :     1078.58  1083.06  1083.51  1087.50  1090.91  1100.93
eigval :     1114.72  1115.35  1138.77  1140.72  1143.21  1145.47
eigval :     1148.26  1150.21  1175.19  1177.11  1177.35  1177.55
eigval :     1179.15  1180.07  1182.45  1183.70  1189.59  1193.16
eigval :     1209.94  1214.32  1214.87  1232.72  1242.54  1244.84
eigval :     1247.77  1250.39  1255.28  1272.26  1273.24  1284.52
eigval :     1285.96  1291.45  1292.91  1296.51  1304.71  1312.71
eigval :     1313.44  1314.53  1323.31  1329.51  1332.76  1337.19
eigval :     1346.18  1359.68  1364.40  1365.20  1367.49  1384.21
eigval :     1388.70  1391.72  1415.61  1423.67  1424.97  1427.99
eigval :     1429.94  1432.18  1434.40  1436.54  1438.59  1446.50
eigval :     1460.33  1472.37  1474.27  1476.69  1477.40  1478.78
eigval :     1481.60  1484.18  1499.36  1532.09  1554.09  1564.08
eigval :     1566.72  1566.99  1579.73  1581.06  1583.13  1584.50
eigval :     1587.63  1589.54  1591.59  1592.56  1594.67  1596.87
eigval :     1601.03  1602.77  1603.82  3069.51  3071.40  3074.21
eigval :     3077.15  3077.23  3077.27  3078.18  3079.79  3080.12
eigval :     3080.38  3080.55  3082.64  3086.83  3087.39  3087.73
eigval :     3088.18  3090.84  3090.92  3091.60  3091.88  3092.43
eigval :     3093.08  3098.26  3098.56  3099.69  3102.74  3103.23
eigval :     3104.85  3105.29  3113.26  3122.93  3127.62  3151.30

   temp. (K)  partition function   enthalpy   heat capacity  entropy
                                   cal/mol     cal/K/mol   cal/K/mol   J/K/mol
 298.15  VIB  0.200E+21            26553.924    173.262    164.861
         ROT  0.158E+09              888.752      2.981     40.494
         INT  0.316E+29            27442.676    176.243    205.355
         TR   0.209E+29             1481.254      4.968     45.804
         TOT                       28923.9298   181.2113   251.1591  1050.8496

       T/K    H(0)-H(T)+PV         H(T)/Eh          T*S/Eh         G(T)/Eh
   ------------------------------------------------------------------------
    298.15    0.460932E-01    0.756048E+00    0.119334E+00    0.636714E+00
   ------------------------------------------------------------------------

         :::::::::::::::::::::::::::::::::::::::::::::::::::::
         ::                  THERMODYNAMIC                  ::
         :::::::::::::::::::::::::::::::::::::::::::::::::::::
         :: total free energy        -150.931703756089 Eh   ::
         ::.................................................::
         :: total energy             -151.568417861623 Eh   ::
         :: zero point energy           0.709954672596 Eh   ::
         :: G(RRHO) w/o ZPVE           -0.073240567061 Eh   ::
         :: G(RRHO) contrib.            0.636714105535 Eh   ::
         :::::::::::::::::::::::::::::::::::::::::::::::::::::

           -------------------------------------------------
          | TOTAL ENERGY             -151.568417861623 Eh   |
          | TOTAL ENTHALPY           -150.812369972885 Eh   |
          | TOTAL FREE ENERGY        -150.931703756089 Eh   |
          | GRADIENT NORM               0.000098282349 Eh/α |
          | HOMO-LUMO GAP               1.248853262705 eV   |
           -------------------------------------------------

 * finished run on 2025/08/24 at 08:30:29.945
