   * xtb version 6.7.1 (edcfbbe) compiled by 'albert@albert-system' on 2024-07-22

   ID    Z sym.   atoms
    1    6 C      1-5, 7-11, 13-29, 31-39, 41-48, 50-60, 62-68, 70, 71
    2    7 N      6, 12, 30, 40, 69
    3    8 O      49
    4   16 S      61
    5    1 H      72-108

          program call               : xtb data2507/gas/BTPBFCz-D3/BTPBFCz-D3_gas_S0_crest.xyz --gfn 2 --ohess vtight --parallel 40 --molden --ceasefiles --namespace data2507/gas/BTPBFCz-D3/BTPBFCz-D3_gas_S0_finalOpt
          :  Hamiltonian                  GFN2-xTB          :
 * total energy  :  -178.0423552 Eh     change       -0.8051643E-08 Eh
 * total energy  :  -178.0423564 Eh     change       -0.1154632E-05 Eh
 * total energy  :  -178.0423571 Eh     change       -0.7005284E-06 Eh
 * total energy  :  -178.0423571 Eh     change        0.2841517E-08 Eh
 * total energy  :  -178.0423576 Eh     change       -0.5374183E-06 Eh
 * total energy  :  -178.0423585 Eh     change       -0.8974429E-06 Eh
 * total energy  :  -178.0423592 Eh     change       -0.7300437E-06 Eh
 * total energy  :  -178.0423597 Eh     change       -0.4494879E-06 Eh
 * total energy  :  -178.0423599 Eh     change       -0.2464971E-06 Eh
 * total energy  :  -178.0423602 Eh     change       -0.2298407E-06 Eh
 * total energy  :  -178.0423605 Eh     change       -0.3697809E-06 Eh
 * total energy  :  -178.0423609 Eh     change       -0.3882753E-06 Eh
 * total energy  :  -178.0423611 Eh     change       -0.1901216E-06 Eh
 * total energy  :  -178.0423612 Eh     change       -0.8135308E-07 Eh
   *** GEOMETRY OPTIMIZATION CONVERGED AFTER 14 ITERATIONS ***

 final structure:
================
108
 xtb: 6.7.1 (edcfbbe)
C           -7.25036468211706        1.73790261092359       -1.37813145889999
C           -7.24640991844834        0.37164896053623       -1.14511440768797
C           -6.07402326124757       -0.34761286587248       -1.26709289694224
C           -4.89095136954376        0.29961151727555       -1.61870421368887
C           -3.63696418412486       -0.45061775785867       -1.65669329686578
N           -2.50816362527023        0.25746800412486       -1.60092449024652
C           -1.34660899262403       -0.36777240679345       -1.49236631748411
C           -0.14309877878009        0.42175526590869       -1.19437442250172
C            1.06679074045631        0.12211638347261       -1.81242852356652
C            2.22068084326806        0.80112100193391       -1.48606029501367
C            2.19135358431997        1.79384732471175       -0.50753998288057
N            3.38017821448807        2.43324539433008       -0.14347313073737
C            3.62649715339952        3.78782786790933       -0.30379416351167
C            2.74115566086504        4.82433682607128       -0.54984253639210
C            3.25861549308251        6.09945457756014       -0.68149545639131
C            4.62627418934911        6.34030802392542       -0.58267412153160
C            5.51538124687529        5.30719684858379       -0.36232166973714
C            5.01730137018278        4.01839400551909       -0.22410406155216
C            5.63549532556102        2.73873103263469       -0.01857840977421
C            6.97329980244448        2.35323913101075        0.06009283297044
C            7.28873633228080        1.02356030686522        0.22137679580211
C            6.25289462499588        0.10286433365964        0.38226487088857
C            4.88187876050099        0.45704875906200        0.33844154233406
C            4.14064767379481       -0.74413077798303        0.61943726381518
C            2.80438231894403       -1.03351729474473        0.88209557215647
C            2.44393982045786       -2.33349299489451        1.17231453418926
C            3.39143350502093       -3.35143157664987        1.23104113530554
C            4.73132256612317       -3.08565542544157        1.03354896675114
C            5.09801834327780       -1.78157585499157        0.73363035391418
N            6.36255542574713       -1.25582813518434        0.58676717513953
C            7.55905412857445       -1.98329592619396        0.67900535871194
C            8.55073372674958       -1.59605440688023        1.57492444059080
C            9.72650779717753       -2.31892505680140        1.65651973528475
C            9.91790735887563       -3.43465581313024        0.85853155401215
C            8.92787135334157       -3.82623685265710       -0.02727109666699
C            7.75311059138629       -3.10365933698265       -0.12327238023965
C            4.58961910439207        1.79279383167811        0.05020077036782
C            0.98586971692199        2.12434390412029        0.10078028954858
C           -0.17851876030759        1.44621833070712       -0.23320713965546
N           -1.37527280159880        1.78826732260832        0.41565552871925
C           -2.03193696625371        2.99267669337092        0.23635677300613
C           -1.58031435660453        4.16929554375533       -0.33969666824037
C           -2.45700881750653        5.23603268388559       -0.40168271783783
C           -3.75751187858885        5.13866115093528        0.08875177526491
C           -4.22249305281381        3.96258755520071        0.64224219477206
C           -3.35672137944291        2.88001908873770        0.71244342609248
C           -3.50532860369111        1.52964984798819        1.16439843154426
C           -4.55742698422044        0.74556292484301        1.61208080126796
O           -5.85096469613188        1.11849171591159        1.78400769730258
C           -6.52297359473844       -0.00990840659308        2.14329677317213
C           -7.87796172041949       -0.11370306230409        2.39618738582162
C           -8.36575172638486       -1.36256313543656        2.73906958436163
C           -7.52649106341229       -2.46999895168847        2.82675987370845
C           -6.17227638171644       -2.36472213999121        2.57637596876807
C           -5.65990208467964       -1.12124803818780        2.23066357638638
C           -4.35818367019654       -0.61936895093546        1.88555174781217
C           -3.09151306810942       -1.19830287314448        1.77853795815445
C           -2.03133861679766       -0.43776073449282        1.33874042550377
C           -2.25929975181693        0.89203603710036        0.97926964858874
C           -1.31592375597130       -1.76331556683544       -1.54317779095152
S            0.03163249421189       -2.85689292465506       -1.39949948263035
C           -1.05530860801920       -4.23183792209141       -1.45051331648241
C           -0.68354724845306       -5.56492649810568       -1.38436700604628
C           -1.67595540556090       -6.52479062355511       -1.43651501033533
C           -3.01760131993548       -6.16647635990530       -1.55188698835845
C           -3.38892101692241       -4.84012848384552       -1.61836063228269
C           -2.40322645532330       -3.85924194238904       -1.56912412133120
C           -2.55708906674333       -2.43076287919225       -1.61490482097001
N           -3.70565964199274       -1.77654280489478       -1.65151028873969
C           -4.90194563253537        1.67144157162768       -1.85943350004525
C           -6.07915948483739        2.38364637157074       -1.74088222171263
H           -8.16713044734469        2.29996392707346       -1.27395588405510
H           -8.15775722058824       -0.13163124045184       -0.85609207548307
H           -6.04950630235054       -1.40866146985078       -1.07242612481887
H            1.09656163059963       -0.63988789455685       -2.57611930509083
H            3.15327385474891        0.56028826391576       -1.97156618882573
H            1.68100433266724        4.64835958400526       -0.64325489017805
H            2.58738260254338        6.92487565616560       -0.86678680122792
H            4.99311551029485        7.35047526816842       -0.68795788184619
H            6.57700975975741        5.49264325525801       -0.29964965119484
H            7.75213226649792        3.09488196410561       -0.02574357457060
H            8.31636962066039        0.69543742571085        0.23191645792570
H            2.05863686200439       -0.25664880050376        0.89577718360274
H            1.40904780098247       -2.56501216886513        1.37518950837178
H            3.07708093523083       -4.35801731201569        1.46374697999341
H            5.47449585587672       -3.86234269276547        1.13394265631674
H            8.38769799007825       -0.73910870567295        2.21129753634681
H           10.49349508720594       -2.01422706889584        2.35304622869618
H           10.83586924951042       -3.99843112955648        0.92782525958492
H            9.07393335671382       -4.69467368995679       -0.65244979101694
H            6.98509035819725       -3.39383804264159       -0.82485953441827
H            0.95726432728817        2.87681160583314        0.87454789745812
H           -0.58212487122515        4.24896672075986       -0.74251052020511
H           -2.12722166797607        6.16469195168342       -0.84400283644570
H           -4.40991898568547        5.99688107587633        0.02378230133137
H           -5.23371062563961        3.86960093116568        1.00679506361906
H           -8.52142232934740        0.74844569840908        2.32354190036496
H           -9.41966993143104       -1.48075680527898        2.94192624853942
H           -7.94634934905387       -3.42807648521492        3.09566275939901
H           -5.52393409304697       -3.22521167715350        2.64301663454190
H           -2.95371899872892       -2.23985279419405        2.02610052368769
H           -1.04406498822248       -0.86629833065988        1.24391282821647
H            0.35637357110108       -5.83781096547007       -1.29340632815630
H           -1.40594914655641       -7.56902259254970       -1.38618671070890
H           -3.77105838936929       -6.93862179160181       -1.58934869083254
H           -4.42063962041310       -4.53883718289754       -1.70749933292043
H           -3.98047335055237        2.16326177605234       -2.12906524313247
H           -6.08151162941257        3.44841873751606       -1.92232702236603

          :  Hamiltonian                  GFN2-xTB          :
         :: gradient norm              0.000040299629 Eh/a0 ::
         :: HOMO-LUMO gap              1.929247147729 eV    ::
         :: SCC energy              -181.272586697620 Eh    ::
         :: -> dispersion             -0.192141089866 Eh    ::
         :: repulsion energy           3.230225511172 Eh    ::

    * Orbital Energies and Occupations

         #    Occupation            Energy/Eh            Energy/eV
      -------------------------------------------------------------
         1        2.0000           -0.7356065             -20.0169
       ...           ...                  ...                  ...
       153        2.0000           -0.4028630             -10.9625
       154        2.0000           -0.4010393             -10.9128
       155        2.0000           -0.3993931             -10.8680
       156        2.0000           -0.3958900             -10.7727
       157        2.0000           -0.3924222             -10.6784
       158        2.0000           -0.3882738             -10.5655
       159        2.0000           -0.3849300             -10.4745
       160        2.0000           -0.3788066             -10.3079
       161        2.0000           -0.3700705             -10.0701
       162        2.0000           -0.3649772              -9.9315
       163        2.0000           -0.3615985              -9.8396
       164        2.0000           -0.3585604              -9.7569
       165        2.0000           -0.3566062              -9.7037 (HOMO)
       166                         -0.2857078              -7.7745 (LUMO)
       167                         -0.2702013              -7.3526
       168                         -0.2515494              -6.8450
       169                         -0.2478470              -6.7443
       170                         -0.2468153              -6.7162
       171                         -0.2406542              -6.5485
       172                         -0.2394978              -6.5171
       173                         -0.2361018              -6.4247
       174                         -0.2353354              -6.4038
       175                         -0.2348494              -6.3906
       176                         -0.2327783              -6.3342
       ...                                ...                  ...
       326                          0.7711939              20.9853
      -------------------------------------------------------------
                  HL-Gap            0.0708985 Eh            1.9292 eV

     #   Z          covCN         q      C6AA      α(0)
     1   6 C        2.921    -0.022    28.557     8.763
     2   6 C        2.918    -0.025    28.633     8.775
     3   6 C        2.925    -0.024    28.611     8.772
     4   6 C        2.986     0.003    27.957     8.673
     5   6 C        2.953     0.179    24.157     8.061
     6   7 N        1.852    -0.272    27.916     7.831
     7   6 C        2.966     0.110    25.567     8.294
     8   6 C        2.978    -0.008    28.223     8.714
     9   6 C        2.923    -0.026    28.658     8.779
    10   6 C        2.921    -0.041    29.016     8.834
    11   6 C        2.914     0.073    26.361     8.419
    12   7 N        2.803    -0.044    22.080     6.979
    13   6 C        3.073     0.045    26.917     8.506
    14   6 C        2.910    -0.050    29.235     8.866
    15   6 C        2.924    -0.034    28.855     8.809
    16   6 C        2.920    -0.040    28.992     8.830
    17   6 C        2.913    -0.034    28.849     8.808
    18   6 C        3.069    -0.015    28.303     8.723
    19   6 C        3.066    -0.027    28.610     8.771
    20   6 C        2.916    -0.036    28.894     8.815
    21   6 C        2.911    -0.061    29.518     8.909
    22   6 C        3.077     0.044    26.937     8.509
    23   6 C        3.055    -0.038    28.880     8.813
    24   6 C        3.061    -0.017    28.373     8.735
    25   6 C        2.914    -0.036    28.904     8.816
    26   6 C        2.920    -0.039    28.964     8.825
    27   6 C        2.924    -0.033    28.825     8.804
    28   6 C        2.910    -0.051    29.274     8.872
    29   6 C        3.080     0.046    26.888     8.501
    30   7 N        2.804    -0.042    22.051     6.974
    31   6 C        2.914     0.065    26.538     8.447
    32   6 C        2.922    -0.041    29.026     8.835
    33   6 C        2.920    -0.028    28.693     8.784
    34   6 C        2.919    -0.033    28.812     8.802
    35   6 C        2.920    -0.028    28.696     8.785
    36   6 C        2.923    -0.041    29.029     8.836
    37   6 C        3.065     0.043    26.974     8.516
    38   6 C        2.924    -0.055    29.368     8.887
    39   6 C        2.916     0.073    26.378     8.422
    40   7 N        2.805    -0.037    21.947     6.958
    41   6 C        3.084     0.052    26.744     8.478
    42   6 C        2.910    -0.047    29.174     8.857
    43   6 C        2.924    -0.033    28.825     8.805
    44   6 C        2.921    -0.039    28.977     8.827
    45   6 C        2.912    -0.030    28.751     8.792
    46   6 C        3.067    -0.006    28.112     8.694
    47   6 C        3.066    -0.035    28.800     8.800
    48   6 C        3.108     0.127    25.079     8.205
    49   8 O        1.715    -0.222    17.675     5.676
    50   6 C        3.110     0.127    25.072     8.203
    51   6 C        2.909    -0.052    29.291     8.874
    52   6 C        2.926    -0.035    28.872     8.812
    53   6 C        2.921    -0.039    28.978     8.828
    54   6 C        2.913    -0.034    28.858     8.809
    55   6 C        3.062    -0.017    28.369     8.734
    56   6 C        3.053    -0.032    28.753     8.794
    57   6 C        2.916    -0.036    28.905     8.816
    58   6 C        2.911    -0.058    29.441     8.897
    59   6 C        3.078     0.051    26.784     8.485
    60   6 C        2.990    -0.000    28.029     8.684
    61  16 S        2.195    -0.085   144.615    20.240
    62   6 C        3.006     0.040    27.096     8.539
    63   6 C        2.934    -0.037    28.913     8.819
    64   6 C        2.924    -0.026    28.648     8.777
    65   6 C        2.919    -0.032    28.797     8.800
    66   6 C        2.916    -0.022    28.564     8.764
    67   6 C        3.103    -0.009    28.103     8.687
    68   6 C        3.114     0.101    25.613     8.290
    69   7 N        1.841    -0.266    27.761     7.808
    70   6 C        2.924    -0.023    28.568     8.765
    71   6 C        2.919    -0.025    28.621     8.773
    72   1 H        0.926     0.035     2.516     2.480
    73   1 H        0.926     0.034     2.537     2.491
    74   1 H        0.926     0.049     2.332     2.388
    75   1 H        0.926     0.050     2.317     2.380
    76   1 H        0.926     0.049     2.333     2.388
    77   1 H        0.926     0.025     2.654     2.547
    78   1 H        0.926     0.030     2.591     2.517
    79   1 H        0.926     0.028     2.612     2.527
    80   1 H        0.926     0.030     2.582     2.513
    81   1 H        0.926     0.033     2.540     2.492
    82   1 H        0.926     0.029     2.602     2.523
    83   1 H        0.926     0.022     2.696     2.568
    84   1 H        0.926     0.025     2.660     2.550
    85   1 H        0.926     0.028     2.615     2.529
    86   1 H        0.926     0.027     2.627     2.535
    87   1 H        0.926     0.042     2.423     2.434
    88   1 H        0.926     0.037     2.488     2.467
    89   1 H        0.926     0.036     2.505     2.475
    90   1 H        0.926     0.037     2.494     2.469
    91   1 H        0.926     0.041     2.440     2.443
    92   1 H        0.926     0.057     2.238     2.339
    93   1 H        0.926     0.025     2.659     2.550
    94   1 H        0.926     0.031     2.573     2.509
    95   1 H        0.926     0.030     2.592     2.518
    96   1 H        0.926     0.040     2.455     2.450
    97   1 H        0.926     0.043     2.409     2.427
    98   1 H        0.926     0.036     2.499     2.472
    99   1 H        0.926     0.034     2.534     2.489
   100   1 H        0.926     0.034     2.525     2.485
   101   1 H        0.926     0.034     2.532     2.488
   102   1 H        0.926     0.023     2.683     2.561
   103   1 H        0.926     0.044     2.398     2.422
   104   1 H        0.926     0.042     2.424     2.435
   105   1 H        0.926     0.041     2.433     2.439
   106   1 H        0.926     0.056     2.242     2.342
   107   1 H        0.926     0.049     2.334     2.389
   108   1 H        0.926     0.036     2.507     2.476

molecular dipole:
                 x           y           z       tot (Debye)
 q only:        0.852      -0.853      -0.129
   full:        1.089      -1.242      -0.205       4.232

 projected vibrational frequencies (cm⁻¹)
eigval :       -0.00    -0.00    -0.00     0.00     0.00     0.00
eigval :        8.47     9.47    12.08    17.51    21.54    32.04
eigval :       36.66    39.86    43.31    47.07    53.27    58.40
eigval :       64.71    66.70    71.62    73.26    73.75    84.50
eigval :       90.74    93.91   101.87   115.28   124.31   127.27
eigval :      138.52   139.66   144.55   158.98   169.37   170.74
eigval :      182.40   201.03   212.73   217.74   223.55   232.37
eigval :      236.18   241.95   246.69   257.44   263.39   267.54
eigval :      275.66   288.44   298.05   314.64   320.48   321.73
eigval :      332.13   351.33   356.42   372.93   377.33   380.26
eigval :      381.85   395.15   395.97   400.71   408.40   409.64
eigval :      417.12   420.29   427.83   435.98   438.64   441.18
eigval :      443.22   451.70   461.99   473.99   475.81   479.77
eigval :      494.56   502.65   508.37   515.59   531.69   535.79
eigval :      538.77   543.82   550.89   556.44   560.55   565.33
eigval :      569.46   578.81   587.65   587.74   595.17   598.45
eigval :      605.55   606.82   614.78   618.13   619.00   624.70
eigval :      630.14   637.25   647.59   661.79   665.23   669.71
eigval :      675.57   676.92   679.34   680.13   687.50   689.00
eigval :      698.16   700.88   701.64   701.97   707.11   709.27
eigval :      712.98   727.91   732.88   759.77   769.54   773.15
eigval :      774.84   775.48   776.49   777.46   778.84   820.10
eigval :      824.68   826.93   834.07   838.81   844.11   847.41
eigval :      857.29   861.54   862.75   867.75   870.86   870.97
eigval :      877.88   879.61   880.97   882.50   893.32   895.80
eigval :      899.56   900.88   903.52   904.19   905.01   908.02
eigval :      908.82   910.95   912.15   916.76   917.49   920.11
eigval :      921.83   922.13   923.23   925.83   931.96   933.24
eigval :      934.18   934.40   972.19   981.19   995.40  1003.41
eigval :     1008.99  1010.71  1043.55  1062.08  1063.24  1067.32
eigval :     1070.57  1072.85  1073.76  1077.96  1079.83  1087.26
eigval :     1094.74  1101.99  1104.07  1113.66  1117.80  1130.68
eigval :     1140.66  1143.71  1145.33  1148.69  1151.81  1166.68
eigval :     1175.02  1175.43  1175.75  1178.94  1181.02  1181.12
eigval :     1182.18  1182.51  1186.33  1189.49  1197.90  1201.60
eigval :     1202.73  1209.18  1215.15  1225.39  1228.51  1234.88
eigval :     1240.81  1242.71  1251.70  1260.33  1262.90  1273.69
eigval :     1274.28  1278.93  1288.82  1303.13  1304.14  1308.34
eigval :     1310.39  1315.33  1317.87  1327.23  1329.73  1337.84
eigval :     1340.83  1347.78  1356.08  1358.62  1362.29  1363.62
eigval :     1365.32  1380.42  1395.68  1397.17  1402.71  1403.90
eigval :     1409.68  1415.93  1419.38  1426.34  1429.59  1434.53
eigval :     1435.99  1437.05  1449.05  1460.13  1462.24  1465.21
eigval :     1474.25  1476.95  1479.48  1482.81  1483.26  1486.22
eigval :     1487.00  1501.05  1520.95  1545.90  1566.45  1569.84
eigval :     1570.72  1576.36  1580.29  1582.95  1583.51  1584.93
eigval :     1585.57  1590.33  1593.24  1596.02  1597.20  1598.82
eigval :     1603.16  1607.86  1610.40  1611.14  1630.16  3072.50
eigval :     3075.80  3076.04  3077.04  3077.92  3078.55  3079.24
eigval :     3079.55  3081.38  3083.37  3083.98  3084.24  3084.33
eigval :     3086.66  3088.49  3090.02  3090.81  3092.21  3092.48
eigval :     3092.81  3093.14  3093.34  3093.74  3094.25  3095.49
eigval :     3097.41  3099.50  3099.91  3101.11  3101.32  3102.29
eigval :     3103.59  3105.88  3106.06  3107.18  3108.74  3126.16

   temp. (K)  partition function   enthalpy   heat capacity  entropy
                                   cal/mol     cal/K/mol   cal/K/mol   J/K/mol
 298.15  VIB  0.171E+25            31687.279    203.465    196.637
         ROT  0.201E+09              888.752      2.981     40.970
         INT  0.343E+33            32576.031    206.446    237.607
         TR   0.272E+29             1481.254      4.968     46.325
         TOT                       34057.2850   211.4137   283.9322  1187.9724

       T/K    H(0)-H(T)+PV         H(T)/Eh          T*S/Eh         G(T)/Eh
   ------------------------------------------------------------------------
    298.15    0.542737E-01    0.860873E+00    0.134905E+00    0.725968E+00
   ------------------------------------------------------------------------

         :::::::::::::::::::::::::::::::::::::::::::::::::::::
         ::                  THERMODYNAMIC                  ::
         :::::::::::::::::::::::::::::::::::::::::::::::::::::
         :: total free energy        -177.316393332761 Eh   ::
         ::.................................................::
         :: total energy             -178.042361186442 Eh   ::
         :: zero point energy           0.806599475405 Eh   ::
         :: G(RRHO) w/o ZPVE           -0.080631621725 Eh   ::
         :: G(RRHO) contrib.            0.725967853680 Eh   ::
         :::::::::::::::::::::::::::::::::::::::::::::::::::::

           -------------------------------------------------
          | TOTAL ENERGY             -178.042361186442 Eh   |
          | TOTAL ENTHALPY           -177.181487972687 Eh   |
          | TOTAL FREE ENERGY        -177.316393332761 Eh   |
          | GRADIENT NORM               0.000040246628 Eh/α |
          | HOMO-LUMO GAP               1.929245376116 eV   |
           -------------------------------------------------

 * finished run on 2025/09/13 at 06:29:36.789
