   * xtb version 6.7.1 (edcfbbe) compiled by 'albert@albert-system' on 2024-07-22

   ID    Z sym.   atoms
    1    6 C      1-5, 7-11, 13-29, 31-39, 41-48, 50-60, 62-68, 70, 71
    2    7 N      6, 12, 30, 40, 69
    3    8 O      49
    4   16 S      61
    5    1 H      72-108

          program call               : xtb data2507/gas/BTPBFCz-D3/BTPBFCz-D3_gas_S0_finalOpt.xtbopt.xyz --gfn 2 --spinpol --tblite --uhf 2 --ohess vtight --parallel 40 --molden --ceasefiles --namespace data2507/gas/BTPBFCz-D3/BTPBFCz-D3_gas_T1_preOpt
 * total energy  :  -177.9636317 Eh     change       -0.3043837E-07 Eh
 * total energy  :  -177.9679559 Eh     change       -0.4324138E-02 Eh
 * total energy  :  -177.9693141 Eh     change       -0.1358261E-02 Eh
 * total energy  :  -177.9695098 Eh     change       -0.1956859E-03 Eh
 * total energy  :  -177.9697372 Eh     change       -0.2274151E-03 Eh
 * total energy  :  -177.9698452 Eh     change       -0.1079940E-03 Eh
 * total energy  :  -177.9699456 Eh     change       -0.1004222E-03 Eh
 * total energy  :  -177.9700207 Eh     change       -0.7504996E-04 Eh
 * total energy  :  -177.9700793 Eh     change       -0.5857430E-04 Eh
 * total energy  :  -177.9701339 Eh     change       -0.5459712E-04 Eh
 * total energy  :  -177.9715940 Eh     change       -0.7177828E-06 Eh
 * total energy  :  -177.9715949 Eh     change       -0.8463833E-06 Eh
 * total energy  :  -177.9715958 Eh     change       -0.9826396E-06 Eh
 * total energy  :  -177.9715970 Eh     change       -0.1144972E-05 Eh
 * total energy  :  -177.9715980 Eh     change       -0.9906167E-06 Eh
 * total energy  :  -177.9715994 Eh     change       -0.1448159E-05 Eh
 * total energy  :  -177.9716008 Eh     change       -0.1347240E-05 Eh
 * total energy  :  -177.9716022 Eh     change       -0.1389557E-05 Eh
 * total energy  :  -177.9716022 Eh     change       -0.2419904E-07 Eh
   *** GEOMETRY OPTIMIZATION CONVERGED AFTER 94 ITERATIONS ***

 final structure:
================
108
 xtb: 6.7.1 (edcfbbe)
C           -7.23339886705834        1.23369279469484       -0.72865943293985
C           -7.08866516130777       -0.13039482433477       -0.53034280023902
C           -5.91316815520955       -0.75997080007237       -0.89047458952703
C           -4.86660331317442       -0.02405730747877       -1.44026479508204
C           -3.59980264999309       -0.68734515461157       -1.74020982597904
N           -2.49391731063335        0.01827249168389       -1.71535707786123
C           -1.25337602376954       -0.53024615948238       -1.84225614903892
C           -0.11450580598379        0.25077572106914       -1.47856314945886
C            1.17130456347831       -0.01279670559936       -1.99194867131406
C            2.26317352760593        0.71810266148089       -1.60674412130445
C            2.13156531531167        1.75054918832681       -0.66848878815414
N            3.27191091653184        2.43563549212985       -0.22867653342010
C            3.49355718111325        3.79180113858249       -0.39573785565148
C            2.61142780090493        4.79085588147596       -0.77386664342999
C            3.10110541229154        6.08031960905527       -0.87661167330325
C            4.43805434001986        6.37073103355458       -0.62005754136151
C            5.32684918963319        5.37429041146552       -0.26446866656167
C            4.85643040443532        4.07312237370485       -0.15188263167888
C            5.48213765703781        2.82002069195155        0.16242184150305
C            6.81145251909418        2.47927067788792        0.39909730158858
C            7.14614359971727        1.16139732699630        0.62067777323152
C            6.12617075398185        0.21067802985391        0.67958037068177
C            4.75824585821013        0.51889019677289        0.48034192367078
C            4.03042752582309       -0.70465527425053        0.68906530607743
C            2.68334336931507       -1.03937071956364        0.79867921295106
C            2.33650608061020       -2.35426897743346        1.03212921345389
C            3.30511566216668       -3.34110596160685        1.19911378226053
C            4.64857003321349       -3.02828546470525        1.16721550931593
C            5.00306788933417       -1.71031632873409        0.91337859346153
N            6.25686244097187       -1.14239208398192        0.90898360382803
C            7.46059980042863       -1.82887352788939        1.13040506296651
C            8.33795421593288       -1.40691565871661        2.12464118405560
C            9.52260860248655       -2.08877076159152        2.33295371050406
C            9.83557246779796       -3.19726431894372        1.56377220543922
C            8.95900429484699       -3.62304106620832        0.57953511874382
C            7.77665366522854       -2.94193166786013        0.35713871319781
C            4.45766527357394        1.84088372088220        0.13407923707460
C            0.86782771314474        2.06784354058417       -0.18079256907471
C           -0.24031329162935        1.33693127092279       -0.56764710763733
N           -1.48589409340770        1.67962091817743       -0.01809115501509
C           -2.08761285990309        2.90820995892820       -0.15843328995935
C           -1.66277344041032        4.02247909700540       -0.86963204580353
C           -2.47793945983508        5.13763647288545       -0.86561381187470
C           -3.69149771325448        5.14871797305563       -0.17889725624842
C           -4.13258246601260        4.03576695951018        0.51199484003806
C           -3.32958210204660        2.90519973641910        0.51896074678867
C           -3.47022780700797        1.59400095991027        1.07967020761779
C           -4.46668164233513        0.91089589614760        1.75681006087045
O           -5.69121331630690        1.37247550128869        2.11124108529943
C           -6.34137978064872        0.31817143583320        2.67940166450732
C           -7.63429421832000        0.31740876773874        3.16693574629609
C           -8.11115937575445       -0.86859872912751        3.69851736728818
C           -7.32052195170095       -2.01365124853508        3.74183020661336
C           -6.02752021782359       -2.01088103754252        3.25599949331716
C           -5.52755010254416       -0.83251716007766        2.71684995599208
C           -4.28505916025695       -0.44025685522152        2.11102679106905
C           -3.08558840765102       -1.10123581130206        1.83827248325552
C           -2.08036585545885       -0.44090262283678        1.16698213689417
C           -2.29899236249044        0.87357190717363        0.75091201167999
C           -1.20899090216869       -1.90621978088740       -2.15907815127814
S            0.16479334714077       -2.95364703909404       -2.38243287547411
C           -0.88499313204875       -4.34645420110855       -2.55882650519167
C           -0.48632645482117       -5.64949410162102       -2.78202617979150
C           -1.46239772785554       -6.62367913452546       -2.90387310197462
C           -2.81429636643035       -6.29524334936676       -2.80157783082159
C           -3.21538687000382       -4.99791285184378       -2.57752666152020
C           -2.24667283746719       -3.99624207480087       -2.45622411155971
C           -2.42175410219084       -2.60751795754875       -2.21321643357405
N           -3.60189745147125       -1.98546480213491       -1.99534081296736
C           -5.01831085268911        1.34458302367910       -1.64114313888657
C           -6.20078435064876        1.96688730110806       -1.29068121140787
H           -8.15151252477276        1.72512222874860       -0.44193375666697
H           -7.89107166202060       -0.70097797815885       -0.08534357778535
H           -5.78050810504806       -1.82010685736626       -0.73595520478078
H            1.29166445459996       -0.78590446148854       -2.73270424610896
H            3.23671986162060        0.50359021217107       -2.01981371360654
H            1.57628778991822        4.57492449482948       -0.98692776181741
H            2.43185667299298        6.87772616594237       -1.16372021731252
H            4.78316537167735        7.39013244424041       -0.70799424722243
H            6.36631206654295        5.59883939923170       -0.07872942886882
H            7.57350410798228        3.24282989171881        0.38449227826679
H            8.17548959853045        0.86608989796305        0.75074833783766
H            1.91653150074368       -0.28693717694735        0.73308776630950
H            1.29318784300917       -2.62360114139046        1.10217863836831
H            2.99993122479829       -4.36014785732072        1.38397482251110
H            5.40096093778321       -3.77969844329280        1.35364200120431
H            8.07884904305491       -0.55636388877855        2.73734669228924
H           10.20062403449810       -1.75756315499230        3.10545611410174
H           10.75988233318902       -3.72885810336032        1.73189138210452
H            9.20026960843466       -4.48572828524278       -0.02353976688998
H            7.09815455374350       -3.25780838937413       -0.42128306462011
H            0.75227087346192        2.85362494733637        0.55179761232641
H           -0.73372451099803        4.01049341148580       -1.41917632024803
H           -2.17119720944137        6.01908769719133       -1.40892657011557
H           -4.29760052996155        6.04227147170075       -0.19833888256870
H           -5.07811301232503        4.03156111272720        1.03154935465755
H           -8.24126329607042        1.20766780004323        3.12824292888171
H           -9.11790821072594       -0.90612297007605        4.08664958994305
H           -7.72984297513070       -2.91963229293837        4.16350543518140
H           -5.41732724034660       -2.90040136117521        3.28939156092867
H           -2.95662951548545       -2.12791045099598        2.14370568531125
H           -1.14968418495598       -0.93673048149916        0.93654666545458
H            0.56177156374465       -5.89584566624424       -2.85663892159649
H           -1.17238968218632       -7.64849054652148       -3.07916155581602
H           -3.55534673979620       -7.07456747227100       -2.90197486527683
H           -4.25752358643596       -4.73082806418170       -2.49776920376429
H           -4.20369275903025        1.90640202945253       -2.07269353037624
H           -6.31347888820477        3.02955093858697       -1.44739227691618

 projected vibrational frequencies (cm⁻¹)
eigval :       -0.00    -0.00    -0.00     0.00     0.00     0.00
eigval :        5.78     9.14     9.84    17.03    21.63    30.82
eigval :       34.84    37.94    41.13    45.39    54.18    58.03
eigval :       63.39    66.75    70.01    72.14    74.03    86.82
eigval :       89.89    95.25   105.17   115.44   125.07   128.37
eigval :      137.93   138.58   148.72   159.03   163.45   170.88
eigval :      176.95   194.57   209.15   216.40   220.84   229.94
eigval :      234.89   239.38   240.54   249.44   261.39   263.25
eigval :      272.16   288.34   295.92   308.26   317.10   320.37
eigval :      331.62   346.90   353.98   374.18   375.53   379.75
eigval :      381.40   389.10   393.87   394.99   408.24   409.37
eigval :      415.55   417.55   422.64   426.41   435.41   437.34
eigval :      441.85   452.15   456.98   469.24   472.59   476.83
eigval :      489.78   500.75   506.89   513.80   523.74   532.98
eigval :      536.86   540.00   543.01   546.47   553.45   556.13
eigval :      563.08   566.72   579.61   585.49   587.45   591.78
eigval :      595.48   596.65   601.37   607.69   612.28   620.33
eigval :      622.24   623.18   636.22   642.83   653.11   655.10
eigval :      664.61   666.40   669.61   674.32   677.09   679.76
eigval :      682.21   687.17   696.66   699.17   701.13   703.05
eigval :      707.31   709.55   725.10   757.87   763.80   765.06
eigval :      768.84   770.68   773.44   773.94   776.03   813.65
eigval :      816.25   817.76   827.30   831.88   838.56   841.71
eigval :      846.28   860.67   862.18   862.46   869.46   869.76
eigval :      869.91   877.32   879.41   881.04   886.46   892.85
eigval :      895.52   896.02   898.77   900.70   901.36   904.30
eigval :      905.51   906.43   907.42   909.19   914.92   916.99
eigval :      917.96   920.48   921.08   921.43   929.25   932.49
eigval :      932.85   933.33   952.34   978.01   989.50   993.71
eigval :     1001.58  1008.09  1035.10  1043.72  1061.35  1063.50
eigval :     1065.41  1070.38  1071.45  1076.91  1078.85  1081.16
eigval :     1085.70  1095.36  1102.39  1111.12  1116.77  1125.65
eigval :     1135.68  1138.57  1142.54  1147.05  1148.13  1162.57
eigval :     1165.56  1171.82  1173.04  1175.96  1178.87  1179.13
eigval :     1179.66  1179.94  1180.72  1183.31  1187.17  1198.60
eigval :     1199.74  1205.21  1208.76  1217.25  1221.84  1230.96
eigval :     1234.26  1237.84  1245.44  1249.52  1256.39  1272.40
eigval :     1272.50  1276.28  1285.70  1293.36  1299.85  1304.59
eigval :     1306.93  1309.56  1317.50  1320.23  1326.96  1334.22
eigval :     1343.27  1345.39  1346.41  1350.68  1352.31  1353.95
eigval :     1354.94  1362.27  1368.97  1387.91  1392.43  1396.50
eigval :     1400.28  1402.41  1410.85  1411.89  1416.24  1419.25
eigval :     1427.93  1434.26  1435.07  1437.14  1441.76  1451.40
eigval :     1457.30  1458.28  1473.87  1475.18  1478.16  1480.57
eigval :     1482.13  1482.55  1484.78  1490.31  1546.34  1558.08
eigval :     1560.14  1563.11  1564.79  1574.80  1576.42  1581.50
eigval :     1584.06  1586.57  1587.63  1589.52  1593.17  1593.77
eigval :     1595.96  1596.79  1600.79  1607.23  1621.32  3073.59
eigval :     3077.91  3078.52  3078.60  3078.72  3078.91  3079.85
eigval :     3080.68  3081.72  3083.74  3084.21  3084.70  3085.24
eigval :     3087.10  3087.87  3088.04  3089.13  3090.34  3091.23
eigval :     3093.26  3093.50  3094.05  3094.51  3094.95  3095.14
eigval :     3096.64  3097.02  3097.09  3099.74  3100.17  3101.06
eigval :     3101.64  3102.11  3102.23  3106.44  3115.24  3133.88

   temp. (K)  partition function   enthalpy   heat capacity  entropy
                                   cal/mol     cal/K/mol   cal/K/mol   J/K/mol
 298.15  VIB  0.531E+25            31973.537    205.009    198.761
         ROT  0.208E+09              888.752      2.981     41.046
         INT  0.111E+34            32862.289    207.990    239.807
         TR   0.272E+29             1481.254      4.968     46.325
         TOT                       34343.5429   212.9579   286.1324  1197.1782

       T/K    H(0)-H(T)+PV         H(T)/Eh          T*S/Eh         G(T)/Eh
   ------------------------------------------------------------------------
    298.15    0.547299E-01    0.857598E+00    0.135951E+00    0.721647E+00
   ------------------------------------------------------------------------

         :::::::::::::::::::::::::::::::::::::::::::::::::::::
         ::                  THERMODYNAMIC                  ::
         :::::::::::::::::::::::::::::::::::::::::::::::::::::
         :: total free energy        -177.249955272138 Eh   ::
         ::.................................................::
         :: total energy             -177.971602134503 Eh   ::
         :: zero point energy           0.802867702472 Eh   ::
         :: G(RRHO) w/o ZPVE           -0.081220840107 Eh   ::
         :: G(RRHO) contrib.            0.721646862365 Eh   ::
         :::::::::::::::::::::::::::::::::::::::::::::::::::::

           -------------------------------------------------
          | TOTAL ENERGY             -177.971602134503 Eh   |
          | TOTAL ENTHALPY           -177.114004512736 Eh   |
          | TOTAL FREE ENERGY        -177.249955272138 Eh   |
          | GRADIENT NORM               0.000088087749 Eh/α |
           -------------------------------------------------

 * finished run on 2025/09/13 at 06:30:11.379
