   * xtb version 6.7.1 (edcfbbe) compiled by 'albert@albert-system' on 2024-07-22

   ID    Z sym.   atoms
    1    6 C      1-5, 7-11, 13-29, 31-39, 41-48, 50-60, 62-68, 70, 71
    2    7 N      6, 12, 30, 40, 69
    3    8 O      49
    4   16 S      61
    5    1 H      72-108

          program call               : xtb data2507/gas/BTPBFCz-D3/BTPBFCz-D3_gas_T1_crest.xyz --gfn 2 --spinpol --tblite --uhf 2 --ohess vtight --parallel 40 --molden --ceasefiles --namespace data2507/gas/BTPBFCz-D3/BTPBFCz-D3_gas_T1_finalOpt
 * total energy  :  -177.9716880 Eh     change       -0.7706601E-07 Eh
 * total energy  :  -177.9717507 Eh     change       -0.6270584E-04 Eh
 * total energy  :  -177.9717797 Eh     change       -0.2892877E-04 Eh
 * total energy  :  -177.9717824 Eh     change       -0.2723873E-05 Eh
 * total energy  :  -177.9717846 Eh     change       -0.2167005E-05 Eh
 * total energy  :  -177.9717870 Eh     change       -0.2402250E-05 Eh
 * total energy  :  -177.9717893 Eh     change       -0.2385586E-05 Eh
 * total energy  :  -177.9717910 Eh     change       -0.1648803E-05 Eh
 * total energy  :  -177.9717919 Eh     change       -0.8758808E-06 Eh
 * total energy  :  -177.9717927 Eh     change       -0.7959141E-06 Eh
 * total energy  :  -177.9718072 Eh     change       -0.8563411E-06 Eh
 * total energy  :  -177.9718081 Eh     change       -0.8960182E-06 Eh
 * total energy  :  -177.9718088 Eh     change       -0.6352504E-06 Eh
 * total energy  :  -177.9718093 Eh     change       -0.5273281E-06 Eh
 * total energy  :  -177.9718100 Eh     change       -0.6888273E-06 Eh
 * total energy  :  -177.9718111 Eh     change       -0.1113388E-05 Eh
 * total energy  :  -177.9718123 Eh     change       -0.1228655E-05 Eh
 * total energy  :  -177.9718129 Eh     change       -0.5979154E-06 Eh
 * total energy  :  -177.9718129 Eh     change       -0.1268299E-07 Eh
   *** GEOMETRY OPTIMIZATION CONVERGED AFTER 44 ITERATIONS ***

 final structure:
================
108
 xtb: 6.7.1 (edcfbbe)
C           -7.20614857757832        1.34079225068156       -0.61570441972875
C           -7.08945646471506       -0.00244152639784       -0.29465023515183
C           -5.94474600438126       -0.69699314396019       -0.63404118952339
C           -4.90050318167744       -0.04639680382686       -1.28618941893567
C           -3.66341742846279       -0.77223058614819       -1.56604498943400
N           -2.53665941686119       -0.10311617691033       -1.62707995869267
C           -1.31621975465913       -0.69873118547484       -1.74008126758672
C           -0.14861509612976        0.07873976802462       -1.47452116541246
C            1.12045024258903       -0.27061133220309       -1.97915827450561
C            2.23608015615406        0.47254105857770       -1.69935738759636
C            2.14592747783848        1.60937081767853       -0.88552140618608
N            3.30613485358231        2.32441950094621       -0.55851970316737
C            3.54072594402355        3.64368868608212       -0.90400437261830
C            2.66615898350648        4.59232301801691       -1.40841119885882
C            3.16769273974136        5.85156665050756       -1.68313077330055
C            4.50873351428342        6.15948833669520       -1.47171032731100
C            5.38959232202570        5.21027677862253       -0.98965211029336
C            4.90719970427023        3.94034522149650       -0.70361698675919
C            5.52076814636079        2.73351631168067       -0.22674329800353
C            6.84176076151921        2.42590255357981        0.08937156679535
C            7.16484213052401        1.14706482064515        0.48618395170257
C            6.14233442540039        0.20624856100304        0.61719831636329
C            4.77623633383798        0.49946811701644        0.38746876613050
C            4.03658523402100       -0.66656923154776        0.79151589560492
C            2.68594173371795       -0.97493765854704        0.93342647631289
C            2.32766962417682       -2.24192149884317        1.34528583316927
C            3.28756059601059       -3.21076487418312        1.62944825579509
C            4.63345155041634       -2.91520706501097        1.56330252922001
C            4.99923275504319       -1.63305569934403        1.17600293996891
N            6.25984114880795       -1.09271884690621        1.06457565157063
C            7.46235560603794       -1.74242680525098        1.38015932760081
C            7.61646457630309       -2.36789975920046        2.61374084812191
C            8.80230707125191       -3.01059920914030        2.91739487661648
C            9.84240987980341       -3.02685190295163        2.00287884407746
C            9.69207598203457       -2.40004638177820        0.77693314710293
C            8.50664219180519       -1.76295843275653        0.46034281175497
C            4.48730387644428        1.76809692340046       -0.12879417228616
C            0.90163178020922        2.00393975435677       -0.40445711135643
C           -0.22883493316761        1.25659724353797       -0.67855107506739
N           -1.44990928348413        1.67487352273866       -0.12697966786998
C           -2.03449344898903        2.89814487856129       -0.35713930595316
C           -1.61781220179445        3.93425210195909       -1.18220999220087
C           -2.41223638586367        5.06223390208318       -1.25032240876980
C           -3.59812096375927        5.16128660122743       -0.52356279768063
C           -4.03207721644810        4.12500857943730        0.28167769283041
C           -3.24973288265375        2.98294755380969        0.36229924743616
C           -3.39248549382561        1.73134466746384        1.04539817673576
C           -4.37472691563007        1.13345349574341        1.81727992511388
O           -5.57731312051083        1.65011264460080        2.17095891558933
C           -6.22342982381766        0.66561483178050        2.85688617171054
C           -7.49695745631179        0.73543231885143        3.38852806072455
C           -7.97293170717663       -0.38682337715093        4.04475163163304
C           -7.20026189725346       -1.53855313901087        4.16582639873701
C           -5.92669876220601       -1.60637240142720        3.63547964407511
C           -5.42810885871054       -0.49288038761914        2.97157708100101
C           -4.20283190664872       -0.18296886163518        2.28808233141089
C           -3.02569393303084       -0.89034078455809        2.03537724872790
C           -2.03527892898016       -0.31498219356266        1.27044135216315
C           -2.24710390741657        0.95989050034293        0.74273648858876
C           -1.32331649913745       -2.09631836587441       -1.94973578481568
S            0.00884228344845       -3.20361352890515       -2.13459680450517
C           -1.08913083146724       -4.56886149599053       -2.18566302085090
C           -0.73915223139320       -5.89671279661848       -2.33135292952306
C           -1.74927044808588       -6.84284572248992       -2.36068048981825
C           -3.08629047910084       -6.46256803523630       -2.24345044327974
C           -3.43861078718835       -5.14028403677171       -2.09631186807751
C           -2.43499390864693       -4.16654676853841       -2.06990023108718
C           -2.55840047977765       -2.75895194532794       -1.92016150573466
N           -3.71251714525335       -2.08539120179787       -1.71764526325373
C           -5.02409073391988        1.30119966282575       -1.61002696567624
C           -6.17653498518150        1.98770297017796       -1.27975631584010
H           -8.10004514278794        1.88350035720197       -0.34539361030525
H           -7.88938325959415       -0.50541660329711        0.22937700817909
H           -5.83421749086842       -1.74157824143479       -0.38499627368565
H            1.20929198501473       -1.12417451752488       -2.63041959487153
H            3.19605191522665        0.18868315877093       -2.10229053868908
H            1.62831228042361        4.35887662499714       -1.58741003995275
H            2.50518866234293        6.61071990324232       -2.07166140074254
H            4.86336760962857        7.15453390801121       -1.69564200680586
H            6.43202377196909        5.44708137730816       -0.83913463026911
H            7.60482959428501        3.18449562716404        0.01101542385828
H            8.18312623190352        0.88040369865953        0.72294100581585
H            1.92470261720922       -0.23751835640139        0.74694989409748
H            1.28192734219796       -2.49094815878986        1.44742699601682
H            2.97347789830819       -4.20082124932765        1.92421957282717
H            5.38022849970167       -3.65689788609374        1.80349103155256
H            6.81079704714569       -2.33324622866431        3.33177404199569
H            8.91744840359085       -3.49389368238750        3.87620774631050
H           10.76810279225145       -3.52642855412630        2.24519754759274
H           10.49940365329163       -2.41343528257452        0.05986552534164
H            8.37725826951280       -1.28962407996289       -0.50159642653323
H            0.82076378881626        2.86845960446797        0.23874723796405
H           -0.71083950310428        3.85329778819146       -1.76176788608069
H           -2.11074176769264        5.88417591233842       -1.88255758876881
H           -4.18854865373473        6.06204577570110       -0.60232190635141
H           -4.95698572671152        4.18776690594860        0.83356151086240
H           -8.09022698753927        1.63022217030254        3.28930267273290
H           -8.96482532574826       -0.36837158422990        4.47065152028267
H           -7.60826041441615       -2.39343810939743        4.68434169393374
H           -5.33038187405268       -2.50097428759455        3.72929727206249
H           -2.90278413472751       -1.88694086404260        2.42992447140003
H           -1.12241496985078       -0.84867338882288        1.05390738393432
H            0.29777257181322       -6.18300297909633       -2.41838553574392
H           -1.49769814144913       -7.88624370948326       -2.47515519886898
H           -3.85466737025056       -7.22112762340902       -2.27094430747382
H           -4.46877476373937       -4.83302060353372       -2.00632109319278
H           -4.21190571201854        1.79644829141256       -2.12047878364373
H           -6.26750856471856        3.03382575589718       -1.53248788884301

 projected vibrational frequencies (cm⁻¹)
eigval :       -0.00    -0.00    -0.00     0.00     0.00     0.00
eigval :        6.11     9.01    10.47    17.53    21.49    31.59
eigval :       35.00    37.27    41.31    45.61    54.22    57.73
eigval :       63.19    66.03    70.45    72.64    74.32    87.49
eigval :       89.90    96.60   105.93   117.57   125.72   129.04
eigval :      137.90   140.25   149.30   158.01   164.62   167.43
eigval :      177.57   194.49   208.28   218.03   220.62   229.31
eigval :      236.96   239.76   242.36   248.49   259.34   262.64
eigval :      272.03   287.07   295.85   308.12   317.03   322.48
eigval :      330.93   347.47   355.12   374.77   375.78   379.75
eigval :      381.13   387.49   391.81   395.34   408.35   409.66
eigval :      414.71   417.64   422.73   426.93   436.54   439.16
eigval :      441.59   452.17   457.11   470.44   473.35   477.55
eigval :      490.01   499.22   507.08   513.92   524.09   533.12
eigval :      537.11   540.35   542.98   547.00   553.51   556.34
eigval :      563.09   566.68   580.02   585.63   587.64   591.65
eigval :      595.95   596.81   601.58   607.73   610.20   620.32
eigval :      622.22   625.69   636.25   643.30   652.94   654.80
eigval :      665.15   666.97   670.17   673.45   676.82   679.80
eigval :      682.07   687.85   696.70   699.44   700.43   703.03
eigval :      707.53   709.62   725.53   758.21   764.76   766.50
eigval :      769.57   771.34   774.30   774.74   776.86   812.71
eigval :      817.39   818.60   827.64   832.13   838.96   842.05
eigval :      846.40   861.33   862.43   864.18   869.78   870.08
eigval :      870.79   878.38   879.30   882.17   887.16   894.14
eigval :      896.45   897.68   899.51   901.27   901.65   904.43
eigval :      905.00   907.12   908.26   910.29   916.47   917.23
eigval :      918.96   921.35   921.98   922.00   930.08   933.15
eigval :      933.85   934.23   952.88   978.53   989.47   994.09
eigval :     1001.83  1008.39  1035.85  1044.70  1062.11  1064.50
eigval :     1066.30  1070.77  1071.87  1077.76  1079.55  1080.62
eigval :     1086.31  1095.80  1103.17  1112.06  1118.23  1126.09
eigval :     1135.87  1139.35  1143.86  1147.36  1148.84  1163.62
eigval :     1166.38  1172.82  1174.11  1177.08  1180.44  1180.53
eigval :     1180.80  1181.03  1182.38  1184.21  1188.21  1199.27
eigval :     1200.58  1205.69  1209.72  1218.18  1222.65  1231.51
eigval :     1235.16  1238.62  1247.43  1249.56  1257.18  1273.17
eigval :     1273.61  1276.64  1286.10  1293.06  1300.11  1304.86
eigval :     1307.05  1309.99  1317.76  1320.48  1326.78  1335.05
eigval :     1343.10  1345.48  1347.24  1351.59  1352.69  1354.59
eigval :     1355.01  1362.69  1369.48  1388.13  1393.34  1396.53
eigval :     1400.28  1402.01  1410.73  1411.76  1416.71  1419.65
eigval :     1427.78  1434.41  1435.40  1436.66  1442.34  1451.63
eigval :     1457.59  1458.98  1474.20  1475.26  1478.23  1481.23
eigval :     1482.02  1482.77  1485.22  1490.48  1546.64  1558.16
eigval :     1560.73  1562.83  1564.86  1574.89  1576.49  1581.68
eigval :     1584.32  1586.75  1587.59  1589.47  1593.17  1593.95
eigval :     1596.21  1597.06  1600.78  1607.27  1621.41  3073.77
eigval :     3078.29  3078.95  3079.17  3079.29  3079.47  3080.01
eigval :     3080.90  3082.12  3083.53  3084.54  3084.81  3086.05
eigval :     3087.76  3088.25  3088.86  3089.88  3090.38  3091.54
eigval :     3093.86  3094.21  3094.50  3095.10  3095.32  3095.61
eigval :     3096.85  3097.42  3097.89  3099.92  3100.18  3101.71
eigval :     3102.03  3102.27  3102.72  3106.59  3117.74  3137.61

   temp. (K)  partition function   enthalpy   heat capacity  entropy
                                   cal/mol     cal/K/mol   cal/K/mol   J/K/mol
 298.15  VIB  0.438E+25            31952.646    204.920    198.471
         ROT  0.210E+09              888.752      2.981     41.059
         INT  0.918E+33            32841.398    207.901    239.530
         TR   0.272E+29             1481.254      4.968     46.325
         TOT                       34322.6522   212.8692   285.8547  1196.0161

       T/K    H(0)-H(T)+PV         H(T)/Eh          T*S/Eh         G(T)/Eh
   ------------------------------------------------------------------------
    298.15    0.546966E-01    0.857848E+00    0.135819E+00    0.722030E+00
   ------------------------------------------------------------------------

         :::::::::::::::::::::::::::::::::::::::::::::::::::::
         ::                  THERMODYNAMIC                  ::
         :::::::::::::::::::::::::::::::::::::::::::::::::::::
         :: total free energy        -177.249783283449 Eh   ::
         ::.................................................::
         :: total energy             -177.971812932222 Eh   ::
         :: zero point energy           0.803151821596 Eh   ::
         :: G(RRHO) w/o ZPVE           -0.081122172823 Eh   ::
         :: G(RRHO) contrib.            0.722029648773 Eh   ::
         :::::::::::::::::::::::::::::::::::::::::::::::::::::

           -------------------------------------------------
          | TOTAL ENERGY             -177.971812932222 Eh   |
          | TOTAL ENTHALPY           -177.113964482704 Eh   |
          | TOTAL FREE ENERGY        -177.249783283449 Eh   |
          | GRADIENT NORM               0.000067948337 Eh/α |
           -------------------------------------------------

 * finished run on 2025/09/13 at 06:44:49.020
