   * xtb version 6.7.1 (edcfbbe) compiled by 'albert@albert-system' on 2024-07-22

   ID    Z sym.   atoms
    1    6 C      1-5, 7-11, 13-29, 31-39, 41-48, 50-60, 62-68, 70, 71
    2    7 N      6, 12, 30, 40, 69
    3    8 O      49
    4   16 S      61
    5    1 H      72-108

          program call               : xtb data2507/gas/BTPBFCz-D3/BTPBFCz-D3.xyz --gfn 2 --ohess vtight --parallel 40 --molden --ceasefiles --namespace data2507/gas/BTPBFCz-D3/BTPBFCz-D3_gas_S0_preOpt
          :  Hamiltonian                  GFN2-xTB          :
 * total energy  :  -177.9824925 Eh     change       -0.8065484E-08 Eh
 * total energy  :  -178.0109298 Eh     change       -0.2843730E-01 Eh
 * total energy  :  -178.0203030 Eh     change       -0.9373231E-02 Eh
 * total energy  :  -178.0241548 Eh     change       -0.3851781E-02 Eh
 * total energy  :  -178.0273909 Eh     change       -0.3236111E-02 Eh
 * total energy  :  -178.0295439 Eh     change       -0.2153023E-02 Eh
 * total energy  :  -178.0310404 Eh     change       -0.1496485E-02 Eh
 * total energy  :  -178.0320596 Eh     change       -0.1019212E-02 Eh
 * total energy  :  -178.0327149 Eh     change       -0.6552675E-03 Eh
 * total energy  :  -178.0331811 Eh     change       -0.4662061E-03 Eh
 * total energy  :  -178.0423487 Eh     change       -0.5398223E-06 Eh
 * total energy  :  -178.0423492 Eh     change       -0.4966111E-06 Eh
 * total energy  :  -178.0423497 Eh     change       -0.5681139E-06 Eh
 * total energy  :  -178.0423504 Eh     change       -0.6836299E-06 Eh
 * total energy  :  -178.0423512 Eh     change       -0.8070368E-06 Eh
 * total energy  :  -178.0423520 Eh     change       -0.7973780E-06 Eh
 * total energy  :  -178.0423527 Eh     change       -0.6722117E-06 Eh
 * total energy  :  -178.0423532 Eh     change       -0.5384272E-06 Eh
 * total energy  :  -178.0423532 Eh     change       -0.3873367E-08 Eh
   *** GEOMETRY OPTIMIZATION CONVERGED AFTER 122 ITERATIONS ***

 final structure:
================
108
 xtb: 6.7.1 (edcfbbe)
C           -7.36481549936072        1.56645001574307       -1.39514155385461
C           -7.33225385151690        0.20118457712980       -1.15863273167192
C           -6.14570382176597       -0.49426104861024       -1.28164851668873
C           -4.97697092139080        0.17617078052315       -1.63779491129532
C           -3.70795137239820       -0.54820983934421       -1.67776312212157
N           -2.59360254193995        0.18327868596954       -1.63483499733301
C           -1.41868890153052       -0.41721009367580       -1.53072177026519
C           -0.23086865829961        0.39985544018505       -1.24337569676694
C            0.97978967989899        0.13229854873923       -1.87417695177062
C            2.11834618321082        0.84298582249752       -1.56058123347293
C            2.07216848959698        1.83553263274284       -0.58261449187975
N            3.24458923056699        2.51320314511507       -0.23486248043128
C            3.44124575455294        3.87556924359745       -0.39750046292438
C            2.51826517193245        4.87955458185533       -0.64034580140130
C            2.98906934738434        6.17224272318322       -0.77538690123389
C            4.34768798305532        6.46210857755400       -0.68323101674674
C            5.27424085532310        5.46161371881367       -0.46700912325496
C            4.82315698977693        4.15593334951858       -0.32561850035668
C            5.48765310377873        2.89951315473571       -0.12256494544549
C            6.83916001062563        2.56418590849412       -0.04984751911865
C            7.20421770486804        1.24759910058482        0.11281700380319
C            6.20355598917495        0.28995149085780        0.28024583322152
C            4.81994567646888        0.59231767279499        0.24068312529769
C            4.12582714578429       -0.63578662586806        0.52629549523997
C            2.80228979821569       -0.97593296487599        0.79270918599752
C            2.49247795508093       -2.28835254707995        1.08553186987757
C            3.47834986428894       -3.26913290370367        1.14422379976654
C            4.80661047270293       -2.95244951263674        0.94338719600510
C            5.12228591583117       -1.63594555641233        0.63984430854644
N            6.36544683625394       -1.06295701530298        0.48783652600673
C            7.58951833144861       -1.74242562013148        0.58431173072374
C            8.56467677615302       -1.31086422843693        1.47819862648870
C            9.76816535001174       -1.98593567350878        1.56449242410292
C           10.00397542350889       -3.09812265830459        0.77346664442224
C            9.03061703682009       -3.53402444471331       -0.11010112994712
C            7.82822001830381       -2.85907331487424       -0.21102537273801
C            4.47700698474298        1.91617314643613       -0.04759862427276
C            0.86547263171405        2.13099511308439        0.04145267814835
C           -0.28319840074834        1.42074287485187       -0.27911088921999
N           -1.48146394743628        1.72498567702857        0.38593353246902
C           -2.17922070943067        2.90767315270307        0.21649525144740
C           -1.77172221440574        4.10062480894924       -0.35871887165984
C           -2.68379188654381        5.13791036553327       -0.40960872635205
C           -3.97619706675780        4.99582153840454        0.09111927819982
C           -4.39736776095023        3.80300830320964        0.64384639763412
C           -3.49566484469759        2.74953163582063        0.70270900889886
C           -3.59629958654704        1.39311682078657        1.14979698862568
C           -4.61935284020454        0.57172966805626        1.59795511293061
O           -5.92394026128613        0.89994301308749        1.77742475078543
C           -6.55657270138596       -0.25305011379827        2.13017506203152
C           -7.90657607633851       -0.40430193224125        2.38575739301662
C           -8.35118101449434       -1.67154248732001        2.71983911140397
C           -7.47499060845122       -2.75084544569588        2.79638471169037
C           -6.12577709162899       -2.59817867687419        2.54341539190538
C           -5.65646066048065       -1.33544935902564        2.20648010771957
C           -4.37349318835964       -0.78767543528050        1.86105633842346
C           -3.08872242405237       -1.32322802753600        1.74493374194431
C           -2.05684520325890       -0.52518637978149        1.30412028691895
C           -2.33119144881651        0.79808654699751        0.95314589789936
C           -1.35931600837831       -1.81191204448859       -1.57346415570574
S            0.01180435891412       -2.87584064134173       -1.43199490488021
C           -1.04718135134883       -4.27329313178984       -1.45717310058159
C           -0.64788087557881       -5.59770494108760       -1.37842251776695
C           -1.62117477881313       -6.57791929011072       -1.40809359549661
C           -2.97094240066316       -6.24823046754303       -1.51367859303584
C           -3.36966278835852       -4.93059088953142       -1.59322389586771
C           -2.40352034416301       -3.92959733279069       -1.56678640510036
C           -2.58708497098450       -2.50525712260668       -1.62745116444773
N           -3.74912922928113       -1.87519337229329       -1.66028429071341
C           -5.01669285341468        1.54689310631208       -1.88194380345070
C           -6.20795184947735        2.23514755978520       -1.76234263535196
H           -8.29267226349963        2.10991347770047       -1.29030506320778
H           -8.23245296401591       -0.32002621281052       -0.86647940117943
H           -6.09907642155256       -1.55414971570364       -1.08460247089741
H            1.02174645230396       -0.62951065613667       -2.63754695705934
H            3.05194150373523        0.62754603897522       -2.05600368424374
H            1.46473860498973        4.66556459402323       -0.72916872492251
H            2.28783271310255        6.97291056890151       -0.95815798758196
H            4.67755847927461        7.48471195370111       -0.79074834822060
H            6.32889112675562        5.68481563350983       -0.40991007606093
H            7.58938094918463        3.33415796142142       -0.14079349042899
H            8.24322570095824        0.95742866485854        0.11955857298245
H            2.02718641528357       -0.22843919514962        0.80702944831207
H            1.46751406486814       -2.55899904875680        1.29024139882921
H            3.20338808330503       -4.28662780065761        1.37933008679420
H            5.57930633130326       -3.69976657962836        1.04371323677313
H            8.36747979919708       -0.45724425579693        2.10935902036904
H           10.52212902294284       -1.64672368229612        2.25929145684841
H           10.94351449046027       -3.62465772610148        0.84647544394899
H            9.21124023639495       -4.39990268300661       -0.72977323117015
H            7.07283961920845       -3.18368634751732       -0.91123165090106
H            0.82547042343843        2.88187107113382        0.81625646535768
H           -0.78004756717813        4.21497931036246       -0.76908355921976
H           -2.38860954606344        6.07850370698405       -0.85116371081501
H           -4.65720227700971        5.83215824608608        0.03482946762764
H           -5.40194965554180        3.67517994503113        1.01610504014280
H           -8.57881550522317        0.43628928670535        2.32160244090016
H           -9.39998082299815       -1.82671446060498        2.92427263333817
H           -7.86174510074263       -3.72462779158072        3.05842203962436
H           -5.44869861578409       -3.43690957967375        2.60119985138707
H           -2.91502917952489       -2.36111736614208        1.98527607802604
H           -1.05630925508067       -0.91992610467169        1.20177800180106
H            0.39818749891075       -5.84855595492767       -1.29484504358909
H           -1.32958146224254       -7.61577221892738       -1.34732633370630
H           -3.70899867566618       -7.03577017797370       -1.53290318227758
H           -4.40813189942879       -4.65113307696715       -1.67481399453905
H           -4.10609948946872        2.05678787711854       -2.15490860067510
H           -6.23258092971935        3.29919293534490       -1.94638357938196

          :  Hamiltonian                  GFN2-xTB          :
         :: gradient norm              0.000045532681 Eh/a0 ::
         :: HOMO-LUMO gap              1.928588332174 eV    ::
         :: SCC energy              -181.272563461596 Eh    ::
         :: -> dispersion             -0.192193171457 Eh    ::
         :: repulsion energy           3.230210219985 Eh    ::

    * Orbital Energies and Occupations

         #    Occupation            Energy/Eh            Energy/eV
      -------------------------------------------------------------
         1        2.0000           -0.7356550             -20.0182
       ...           ...                  ...                  ...
       153        2.0000           -0.4029295             -10.9643
       154        2.0000           -0.4011082             -10.9147
       155        2.0000           -0.3994274             -10.8690
       156        2.0000           -0.3959055             -10.7731
       157        2.0000           -0.3923857             -10.6774
       158        2.0000           -0.3883109             -10.5665
       159        2.0000           -0.3848783             -10.4731
       160        2.0000           -0.3788984             -10.3104
       161        2.0000           -0.3700277             -10.0690
       162        2.0000           -0.3650519              -9.9336
       163        2.0000           -0.3615613              -9.8386
       164        2.0000           -0.3586101              -9.7583
       165        2.0000           -0.3565251              -9.7015 (HOMO)
       166                         -0.2856508              -7.7730 (LUMO)
       167                         -0.2702677              -7.3544
       168                         -0.2516229              -6.8470
       169                         -0.2477878              -6.7426
       170                         -0.2468320              -6.7166
       171                         -0.2406607              -6.5487
       172                         -0.2395419              -6.5183
       173                         -0.2361110              -6.4249
       174                         -0.2352858              -6.4025
       175                         -0.2347937              -6.3891
       176                         -0.2327464              -6.3334
       ...                                ...                  ...
       326                          0.7711066              20.9829
      -------------------------------------------------------------
                  HL-Gap            0.0708743 Eh            1.9286 eV

     #   Z          covCN         q      C6AA      α(0)
     1   6 C        2.921    -0.022    28.559     8.764
     2   6 C        2.918    -0.025    28.630     8.774
     3   6 C        2.925    -0.024    28.607     8.771
     4   6 C        2.986     0.003    27.956     8.673
     5   6 C        2.953     0.179    24.156     8.061
     6   7 N        1.852    -0.272    27.920     7.831
     7   6 C        2.966     0.110    25.565     8.293
     8   6 C        2.978    -0.008    28.223     8.714
     9   6 C        2.923    -0.026    28.657     8.779
    10   6 C        2.921    -0.041    29.015     8.833
    11   6 C        2.914     0.073    26.363     8.420
    12   7 N        2.803    -0.043    22.075     6.978
    13   6 C        3.074     0.045    26.918     8.507
    14   6 C        2.910    -0.050    29.235     8.866
    15   6 C        2.924    -0.034    28.855     8.809
    16   6 C        2.920    -0.040    28.993     8.830
    17   6 C        2.913    -0.034    28.849     8.808
    18   6 C        3.069    -0.015    28.304     8.724
    19   6 C        3.067    -0.027    28.610     8.771
    20   6 C        2.916    -0.036    28.894     8.815
    21   6 C        2.912    -0.061    29.519     8.909
    22   6 C        3.077     0.044    26.936     8.509
    23   6 C        3.055    -0.038    28.881     8.813
    24   6 C        3.061    -0.017    28.373     8.735
    25   6 C        2.914    -0.036    28.905     8.816
    26   6 C        2.919    -0.039    28.968     8.826
    27   6 C        2.924    -0.033    28.826     8.805
    28   6 C        2.910    -0.051    29.275     8.872
    29   6 C        3.080     0.046    26.889     8.501
    30   7 N        2.804    -0.042    22.051     6.974
    31   6 C        2.914     0.065    26.538     8.447
    32   6 C        2.922    -0.041    29.026     8.835
    33   6 C        2.920    -0.028    28.693     8.784
    34   6 C        2.919    -0.033    28.812     8.802
    35   6 C        2.920    -0.028    28.696     8.785
    36   6 C        2.923    -0.041    29.030     8.836
    37   6 C        3.064     0.043    26.976     8.517
    38   6 C        2.924    -0.055    29.367     8.887
    39   6 C        2.916     0.073    26.378     8.422
    40   7 N        2.804    -0.037    21.957     6.959
    41   6 C        3.084     0.052    26.740     8.477
    42   6 C        2.910    -0.047    29.173     8.857
    43   6 C        2.924    -0.033    28.824     8.804
    44   6 C        2.921    -0.039    28.975     8.827
    45   6 C        2.912    -0.030    28.749     8.792
    46   6 C        3.067    -0.006    28.112     8.694
    47   6 C        3.066    -0.035    28.803     8.800
    48   6 C        3.108     0.127    25.080     8.205
    49   8 O        1.715    -0.222    17.676     5.676
    50   6 C        3.110     0.128    25.071     8.203
    51   6 C        2.909    -0.052    29.290     8.874
    52   6 C        2.926    -0.035    28.871     8.812
    53   6 C        2.921    -0.039    28.977     8.828
    54   6 C        2.913    -0.034    28.858     8.809
    55   6 C        3.062    -0.017    28.367     8.734
    56   6 C        3.053    -0.032    28.751     8.794
    57   6 C        2.916    -0.036    28.904     8.816
    58   6 C        2.911    -0.058    29.444     8.898
    59   6 C        3.078     0.050    26.787     8.485
    60   6 C        2.990    -0.000    28.028     8.684
    61  16 S        2.195    -0.085   144.606    20.239
    62   6 C        3.006     0.040    27.096     8.539
    63   6 C        2.934    -0.037    28.913     8.819
    64   6 C        2.924    -0.026    28.648     8.777
    65   6 C        2.919    -0.032    28.797     8.800
    66   6 C        2.916    -0.022    28.563     8.764
    67   6 C        3.103    -0.009    28.102     8.686
    68   6 C        3.114     0.101    25.612     8.290
    69   7 N        1.841    -0.266    27.764     7.809
    70   6 C        2.924    -0.023    28.568     8.765
    71   6 C        2.919    -0.025    28.623     8.773
    72   1 H        0.926     0.035     2.516     2.480
    73   1 H        0.926     0.034     2.535     2.490
    74   1 H        0.926     0.049     2.332     2.388
    75   1 H        0.926     0.050     2.319     2.381
    76   1 H        0.926     0.049     2.331     2.388
    77   1 H        0.926     0.025     2.656     2.548
    78   1 H        0.926     0.030     2.592     2.518
    79   1 H        0.926     0.028     2.612     2.527
    80   1 H        0.926     0.030     2.582     2.513
    81   1 H        0.926     0.033     2.540     2.492
    82   1 H        0.926     0.029     2.602     2.523
    83   1 H        0.926     0.022     2.696     2.568
    84   1 H        0.926     0.025     2.657     2.549
    85   1 H        0.926     0.028     2.615     2.529
    86   1 H        0.926     0.027     2.627     2.535
    87   1 H        0.926     0.042     2.423     2.434
    88   1 H        0.926     0.037     2.489     2.467
    89   1 H        0.926     0.036     2.505     2.475
    90   1 H        0.926     0.037     2.494     2.469
    91   1 H        0.926     0.041     2.439     2.442
    92   1 H        0.926     0.057     2.237     2.339
    93   1 H        0.926     0.025     2.657     2.549
    94   1 H        0.926     0.031     2.573     2.508
    95   1 H        0.926     0.030     2.592     2.518
    96   1 H        0.926     0.039     2.456     2.451
    97   1 H        0.926     0.043     2.409     2.427
    98   1 H        0.926     0.036     2.499     2.472
    99   1 H        0.926     0.034     2.534     2.489
   100   1 H        0.926     0.034     2.526     2.485
   101   1 H        0.926     0.034     2.535     2.490
   102   1 H        0.926     0.024     2.681     2.560
   103   1 H        0.926     0.044     2.397     2.421
   104   1 H        0.926     0.042     2.424     2.435
   105   1 H        0.926     0.041     2.433     2.439
   106   1 H        0.926     0.056     2.242     2.342
   107   1 H        0.926     0.049     2.333     2.389
   108   1 H        0.926     0.036     2.507     2.476

molecular dipole:
                 x           y           z       tot (Debye)
 q only:        0.870      -0.822      -0.129
   full:        1.112      -1.204      -0.206       4.200

 projected vibrational frequencies (cm⁻¹)
eigval :       -0.00    -0.00    -0.00     0.00     0.00     0.00
eigval :        8.41     9.30    12.21    17.19    21.41    32.06
eigval :       36.53    39.77    43.12    47.01    53.11    58.40
eigval :       64.65    66.52    71.74    73.41    73.70    84.86
eigval :       90.49    94.01   101.69   115.19   124.22   127.30
eigval :      138.24   139.74   144.23   158.57   169.66   170.99
eigval :      182.41   201.04   212.79   217.80   223.61   232.30
eigval :      236.36   242.19   246.61   257.46   263.28   267.54
eigval :      275.77   288.45   298.13   314.80   320.87   321.72
eigval :      332.16   351.72   356.42   372.85   377.28   380.36
eigval :      381.98   394.99   395.97   400.68   408.27   409.55
eigval :      417.11   420.25   427.64   435.99   438.66   441.16
eigval :      443.22   451.50   461.83   474.06   475.76   479.79
eigval :      494.59   502.61   508.35   515.69   531.66   535.78
eigval :      538.80   543.80   550.88   556.43   560.57   565.30
eigval :      569.36   578.73   587.63   587.75   595.17   598.31
eigval :      605.57   606.86   614.76   618.25   618.93   624.58
eigval :      630.31   637.36   647.60   661.72   665.22   669.72
eigval :      675.61   676.84   679.36   680.14   687.58   688.98
eigval :      698.18   700.81   701.64   701.92   707.07   709.31
eigval :      713.06   727.89   732.78   759.76   769.34   773.18
eigval :      774.81   775.48   776.39   777.48   778.84   820.20
eigval :      824.95   826.95   834.06   838.79   844.08   847.38
eigval :      857.32   861.20   862.69   867.57   870.72   871.01
eigval :      877.87   879.69   880.98   882.53   893.34   895.84
eigval :      899.49   900.92   903.56   904.54   905.00   908.00
eigval :      908.85   911.10   912.15   916.49   917.49   920.06
eigval :      921.83   922.11   923.10   925.84   932.08   933.26
eigval :      934.12   934.50   972.20   981.11   995.40  1003.45
eigval :     1008.96  1010.66  1043.49  1062.05  1063.20  1067.32
eigval :     1070.51  1072.87  1073.79  1077.95  1079.84  1087.32
eigval :     1094.72  1102.02  1104.11  1113.66  1117.80  1130.48
eigval :     1140.62  1143.64  1145.30  1148.40  1151.82  1166.54
eigval :     1175.02  1175.43  1175.67  1178.90  1181.02  1181.13
eigval :     1182.20  1182.40  1186.34  1189.50  1197.75  1201.60
eigval :     1202.75  1209.17  1215.16  1225.26  1228.49  1234.88
eigval :     1240.79  1242.62  1251.67  1260.45  1263.02  1273.68
eigval :     1274.29  1278.94  1288.81  1303.07  1304.04  1308.37
eigval :     1310.26  1315.27  1317.87  1327.27  1329.79  1337.81
eigval :     1340.66  1347.69  1356.06  1358.58  1362.29  1363.68
eigval :     1365.30  1380.43  1395.69  1397.20  1402.65  1403.95
eigval :     1409.58  1415.92  1419.32  1426.37  1429.50  1434.53
eigval :     1436.01  1437.13  1448.93  1460.08  1462.20  1465.44
eigval :     1474.18  1476.96  1479.55  1482.62  1483.17  1486.19
eigval :     1486.95  1501.37  1521.14  1545.90  1566.44  1569.93
eigval :     1570.72  1576.32  1580.24  1582.94  1583.45  1584.91
eigval :     1585.56  1590.43  1593.26  1596.00  1597.20  1598.72
eigval :     1603.21  1607.83  1610.30  1611.14  1630.09  3072.41
eigval :     3075.74  3076.05  3077.20  3077.92  3078.57  3079.25
eigval :     3079.53  3081.37  3083.55  3083.99  3084.36  3084.50
eigval :     3086.66  3088.42  3090.08  3090.89  3092.21  3092.45
eigval :     3092.79  3093.14  3093.23  3093.84  3094.30  3095.41
eigval :     3097.45  3099.53  3099.91  3101.13  3101.35  3102.38
eigval :     3103.45  3105.91  3106.15  3107.12  3108.73  3126.88

   temp. (K)  partition function   enthalpy   heat capacity  entropy
                                   cal/mol     cal/K/mol   cal/K/mol   J/K/mol
 298.15  VIB  0.180E+25            31688.942    203.452    196.676
         ROT  0.201E+09              888.752      2.981     40.971
         INT  0.361E+33            32577.695    206.433    237.647
         TR   0.272E+29             1481.254      4.968     46.325
         TOT                       34058.9485   211.4011   283.9723  1188.1402

       T/K    H(0)-H(T)+PV         H(T)/Eh          T*S/Eh         G(T)/Eh
   ------------------------------------------------------------------------
    298.15    0.542764E-01    0.860871E+00    0.134924E+00    0.725947E+00
   ------------------------------------------------------------------------

         :::::::::::::::::::::::::::::::::::::::::::::::::::::
         ::                  THERMODYNAMIC                  ::
         :::::::::::::::::::::::::::::::::::::::::::::::::::::
         :: total free energy        -177.316406567466 Eh   ::
         ::.................................................::
         :: total energy             -178.042353241610 Eh   ::
         :: zero point energy           0.806594696941 Eh   ::
         :: G(RRHO) w/o ZPVE           -0.080648022797 Eh   ::
         :: G(RRHO) contrib.            0.725946674144 Eh   ::
         :::::::::::::::::::::::::::::::::::::::::::::::::::::

           -------------------------------------------------
          | TOTAL ENERGY             -178.042353241610 Eh   |
          | TOTAL ENTHALPY           -177.181482155463 Eh   |
          | TOTAL FREE ENERGY        -177.316406567466 Eh   |
          | GRADIENT NORM               0.000045528947 Eh/α |
          | HOMO-LUMO GAP               1.928588998496 eV   |
           -------------------------------------------------

 * finished run on 2025/09/13 at 06:20:33.970
