   * xtb version 6.7.1 (edcfbbe) compiled by 'albert@albert-system' on 2024-07-22

   ID    Z sym.   atoms
    1    6 C      1-4, 6-39, 41-68
    2    7 N      5, 40
    3    1 H      69-112

          program call               : xtb data2507/gas/o-TPA-AP-TPA/o-TPA-AP-TPA.xyz --gfn 2 --ohess vtight --parallel 40 --molden --ceasefiles --namespace data2507/gas/o-TPA-AP-TPA/o-TPA-AP-TPA_gas_S0_preOpt
          :  Hamiltonian                  GFN2-xTB          :
 * total energy  :  -169.6327773 Eh     change       -0.1610033E-08 Eh
 * total energy  :  -169.6584089 Eh     change       -0.2563154E-01 Eh
 * total energy  :  -169.6693475 Eh     change       -0.1093858E-01 Eh
 * total energy  :  -169.6725784 Eh     change       -0.3230955E-02 Eh
 * total energy  :  -169.6742895 Eh     change       -0.1711137E-02 Eh
 * total energy  :  -169.6754440 Eh     change       -0.1154486E-02 Eh
 * total energy  :  -169.6764908 Eh     change       -0.1046761E-02 Eh
 * total energy  :  -169.6774563 Eh     change       -0.9654741E-03 Eh
 * total energy  :  -169.6782567 Eh     change       -0.8004309E-03 Eh
 * total energy  :  -169.6788636 Eh     change       -0.6069435E-03 Eh
 * total energy  :  -169.6827659 Eh     change       -0.2951069E-06 Eh
 * total energy  :  -169.6827662 Eh     change       -0.2754903E-06 Eh
 * total energy  :  -169.6827665 Eh     change       -0.2676269E-06 Eh
 * total energy  :  -169.6827667 Eh     change       -0.2579569E-06 Eh
 * total energy  :  -169.6827670 Eh     change       -0.2431484E-06 Eh
 * total energy  :  -169.6827672 Eh     change       -0.2505759E-06 Eh
 * total energy  :  -169.6827675 Eh     change       -0.2894548E-06 Eh
 * total energy  :  -169.6827678 Eh     change       -0.3492963E-06 Eh
 * total energy  :  -169.6827678 Eh     change       -0.2848680E-08 Eh
   *** GEOMETRY OPTIMIZATION CONVERGED AFTER 122 ITERATIONS ***

 final structure:
================
112
 xtb: 6.7.1 (edcfbbe)
C           -8.66518795630215       -3.49298973405446       -2.66547076402853
C           -8.46580875655104       -2.20637448416776       -3.13791947017537
C           -7.82271217638858       -1.26488170959282       -2.35913697331710
C           -7.35433165456803       -1.59792594631141       -1.08699621466890
N           -6.69508280322821       -0.64466834502616       -0.30789611560253
C           -5.95302261222075        0.36765777487386       -0.93185726459926
C           -5.10998190994406        0.06892004146683       -2.00112703055702
C           -4.37827659016460        1.07062882847891       -2.60572867475090
C           -4.46304833855133        2.37673915693617       -2.14976603545129
C           -5.30429259659580        2.67832323286412       -1.09281179558753
C           -6.05421774446974        1.68545990003108       -0.49269994940099
C           -6.81700029063340       -0.66264245124627        1.08851972552270
C           -8.05015192834185       -0.96236593407973        1.66763608854188
C           -8.19675942040774       -1.01647281786888        3.03914613431847
C           -7.11164992097240       -0.76297300825277        3.86239279932549
C           -5.88921347428690       -0.44593612718783        3.29959964774355
C           -5.71819756760819       -0.38979692196920        1.92069577836447
C           -4.39087797271305       -0.04766603942480        1.36523942603546
C           -3.86513972503796        1.23964805257669        1.55541887829566
C           -4.55769870090823        2.23766046602245        2.28986586281948
C           -4.04711414643719        3.49021657245181        2.43811036906743
C           -2.81082111922968        3.83006761131089        1.85427617277263
C           -2.11881098982731        2.90683502200353        1.13415270873644
C           -2.61514727513966        1.58894714272042        0.95851570934210
C           -1.91838593155017        0.64581607909335        0.19303619681604
C           -0.64887656627764        1.02416921482177       -0.46647273452139
C           -0.66098044297292        1.36124084275735       -1.81456074910592
C            0.49894053359718        1.72090862941923       -2.47002972172164
C            1.71961900783199        1.75041606510040       -1.79419154183240
C            2.93717472061293        2.10364387048598       -2.44257560400921
C            4.11517907938847        2.09514849378249       -1.77857546777135
C            4.18441151752324        1.74782184019849       -0.39714292804987
C            5.40248295254273        1.66162645053531        0.29403797775006
C            6.69771931107432        1.83093556198567       -0.39574619381514
C            7.11386988105716        3.06761782814997       -0.86972407785384
C            8.35694138199675        3.22137815880562       -1.45793065986983
C            9.20120231975003        2.12942074554177       -1.57835007836233
C            8.79837299554118        0.88812197645811       -1.12481728161230
C            7.54781309302790        0.72356283742015       -0.53484955790281
N            7.13646305719033       -0.54613490815761       -0.09125157343931
C            7.98650282787409       -1.32132421400014        0.69208470381873
C            8.93108022996560       -0.71846391774763        1.52467441955156
C            9.77862049571251       -1.49117202772559        2.29363907469662
C            9.69812788576473       -2.87338034624390        2.25663848300443
C            8.76104041211990       -3.47780763858537        1.43451180835448
C            7.91493578690583       -2.71488414510902        0.65459409771304
C            5.85285793318894       -0.99296118990542       -0.43500606017984
C            5.03785064364392       -1.63088358691910        0.49934988797625
C            3.75219109963698       -2.00045004658479        0.15954977749141
C            3.26301127232528       -1.75429987416187       -1.11326848761980
C            4.07891485211455       -1.15028568502587       -2.05373335963902
C            5.36579507839142       -0.77279273541041       -1.72157978899827
C            5.41000056756550        1.34213181217469        1.64719090896540
C            4.23956053105763        1.07068892393510        2.32339913870267
C            3.01568464413147        1.07487208894439        1.65375146785837
C            1.79763410698376        0.72006701844172        2.30133864955398
C            0.62392814958887        0.69833842486486        1.62998739906733
C            0.55906093103358        1.04470123352821        0.24799977656976
C            1.75395999381735        1.40996952124119       -0.42006054595534
C            2.98450900797776        1.42140123939225        0.28121332096042
C           -2.42768249182584       -0.64732071762750        0.02766031588720
C           -1.73489907028858       -1.62771610987599       -0.72915415938836
C           -2.23609288553134       -2.88331635075559       -0.88218594299675
C           -3.44794926323248       -3.24402142053493       -0.25980698609173
C           -4.13445077858369       -2.33492018781130        0.48406261853980
C           -3.66992011285279       -1.00343050921872        0.63559079449094
C           -7.56236967090627       -2.89529395077492       -0.61675834997722
C           -8.21289145576920       -3.82798728268267       -1.40014188299515
H           -9.17096511805396       -4.22584059732980       -3.27550356328652
H           -8.82315324631108       -1.92892233312919       -4.11890150824644
H           -7.68349284785855       -0.25993075946120       -2.72979374502719
H           -5.02883435334570       -0.95242448769904       -2.34345181746480
H           -3.73402570002152        0.82537560919353       -3.43804991120695
H           -3.87950653718996        3.15583512749577       -2.61691722784328
H           -5.38140164223427        3.69427900253334       -0.73485018691566
H           -6.71993536827619        1.92182214326623        0.32449920693365
H           -8.89613313227117       -1.15280727062857        1.02319326418292
H           -9.16068948360245       -1.25111057943836        3.46548301268316
H           -7.21759178618673       -0.80983189755469        4.93560019970495
H           -5.03471425800841       -0.25457768212926        3.93319440805540
H           -5.50932927796322        1.98743924628236        2.73451788152545
H           -4.58903915111834        4.23620332501768        3.00125873770205
H           -2.42230488179914        4.83017609430937        1.97962203973716
H           -1.17395465191718        3.16436838921490        0.67861502765172
H           -1.60254502269065        1.34124059914888       -2.34303938861894
H            0.46939618009424        1.98181571859083       -3.51852219177812
H            2.89719949741959        2.36923760323004       -3.48986210747786
H            5.03175891561003        2.35013413044988       -2.28967463331999
H            6.45897619113896        3.91912720510918       -0.75051039529768
H            8.66854780336278        4.19127851211172       -1.81533708152725
H           10.17324525245861        2.24304970203804       -2.03473848931903
H            9.44827715999654        0.03059734906917       -1.22298783806259
H            8.99518699764890        0.35933829557214        1.56498687881894
H           10.50311552224282       -1.00860507070518        2.93354186046522
H           10.36027428791083       -3.47390524936264        2.86163296426977
H            8.69431135216316       -4.55525864733539        1.39240788684861
H            7.19577141562786       -3.19180333146732        0.00500698217946
H            5.41348060709023       -1.81083218809257        1.49585037190999
H            3.12021708851950       -2.47102512844299        0.89834458969621
H            2.25174437465081       -2.03278547345263       -1.36839001829110
H            3.71029206775269       -0.96630877100430       -3.05209811879953
H            6.00094358062690       -0.29319305965842       -2.45232707365041
H            6.35582097391452        1.29508942707941        2.16885133885365
H            4.26643467150179        0.82440893857574        3.37528515871107
H            1.83754411999059        0.45640599402902        3.34894197759559
H           -0.29252167939934        0.41668584852850        2.12813307521908
H           -0.79286796521853       -1.35360125282832       -1.18147195087633
H           -1.70262989743811       -3.61852008894802       -1.46703800266169
H           -3.82110384740169       -4.25173859380719       -0.37050354784804
H           -5.04387047879402       -2.62244020259345        0.98856138911382
H           -7.21599791195531       -3.17195575096727        0.36768839365878
H           -8.36234778120008       -4.82805013956875       -1.01980594493069

          :  Hamiltonian                  GFN2-xTB          :
         :: gradient norm              0.000053874631 Eh/a0 ::
         :: HOMO-LUMO gap              1.846742498142 eV    ::
         :: SCC energy              -172.973644693774 Eh    ::
         :: -> dispersion             -0.196353928706 Eh    ::
         :: repulsion energy           3.290876848788 Eh    ::

    * Orbital Energies and Occupations

         #    Occupation            Energy/Eh            Energy/eV
      -------------------------------------------------------------
         1        2.0000           -0.6627844             -18.0353
       ...           ...                  ...                  ...
       147        2.0000           -0.4014939             -10.9252
       148        2.0000           -0.4010593             -10.9134
       149        2.0000           -0.3997744             -10.8784
       150        2.0000           -0.3992911             -10.8653
       151        2.0000           -0.3981913             -10.8353
       152        2.0000           -0.3969594             -10.8018
       153        2.0000           -0.3959920             -10.7755
       154        2.0000           -0.3940182             -10.7218
       155        2.0000           -0.3881540             -10.5622
       156        2.0000           -0.3607828              -9.8174
       157        2.0000           -0.3550462              -9.6613
       158        2.0000           -0.3477166              -9.4618
       159        2.0000           -0.3467725              -9.4362 (HOMO)
       160                         -0.2789059              -7.5894 (LUMO)
       161                         -0.2742412              -7.4625
       162                         -0.2411163              -6.5611
       163                         -0.2320345              -6.3140
       164                         -0.2304042              -6.2696
       165                         -0.2295970              -6.2477
       166                         -0.2266615              -6.1678
       167                         -0.2260443              -6.1510
       168                         -0.2251223              -6.1259
       169                         -0.2244943              -6.1088
       170                         -0.2209310              -6.0118
       ...                                ...                  ...
       316                          0.7344916              19.9865
      -------------------------------------------------------------
                  HL-Gap            0.0678666 Eh            1.8467 eV

     #   Z          covCN         q      C6AA      α(0)
     1   6 C        2.919    -0.040    28.998     8.831
     2   6 C        2.920    -0.029    28.734     8.790
     3   6 C        2.923    -0.050    29.235     8.867
     4   6 C        2.923     0.066    26.527     8.446
     5   7 N        2.752    -0.077    22.731     7.081
     6   6 C        2.925     0.067    26.500     8.442
     7   6 C        2.922    -0.044    29.094     8.845
     8   6 C        2.920    -0.028    28.706     8.786
     9   6 C        2.919    -0.037    28.911     8.817
    10   6 C        2.920    -0.028    28.701     8.785
    11   6 C        2.923    -0.045    29.111     8.848
    12   6 C        2.924     0.062    26.622     8.461
    13   6 C        2.922    -0.048    29.199     8.861
    14   6 C        2.919    -0.032    28.806     8.801
    15   6 C        2.917    -0.040    28.982     8.828
    16   6 C        2.925    -0.033    28.828     8.805
    17   6 C        2.976    -0.003    28.105     8.696
    18   6 C        2.976    -0.006    28.159     8.704
    19   6 C        2.983     0.006    27.892     8.663
    20   6 C        2.917    -0.034    28.846     8.807
    21   6 C        2.915    -0.030    28.754     8.793
    22   6 C        2.914    -0.030    28.755     8.793
    23   6 C        2.918    -0.033    28.810     8.802
    24   6 C        2.985     0.006    27.872     8.660
    25   6 C        2.979    -0.004    28.108     8.697
    26   6 C        2.978     0.008    27.837     8.655
    27   6 C        2.919    -0.035    28.878     8.812
    28   6 C        2.919    -0.038    28.947     8.823
    29   6 C        2.983     0.009    27.814     8.651
    30   6 C        2.914    -0.037    28.908     8.817
    31   6 C        2.913    -0.035    28.865     8.810
    32   6 C        2.984     0.006    27.870     8.660
    33   6 C        2.978     0.003    27.941     8.671
    34   6 C        2.980    -0.003    28.104     8.696
    35   6 C        2.923    -0.033    28.832     8.806
    36   6 C        2.918    -0.038    28.942     8.822
    37   6 C        2.919    -0.032    28.799     8.800
    38   6 C        2.921    -0.045    29.130     8.851
    39   6 C        2.930     0.061    26.627     8.463
    40   7 N        2.752    -0.080    22.786     7.090
    41   6 C        2.921     0.066    26.526     8.446
    42   6 C        2.923    -0.051    29.261     8.871
    43   6 C        2.919    -0.030    28.747     8.792
    44   6 C        2.919    -0.041    29.022     8.834
    45   6 C        2.920    -0.029    28.736     8.791
    46   6 C        2.923    -0.051    29.261     8.871
    47   6 C        2.925     0.066    26.516     8.445
    48   6 C        2.922    -0.045    29.114     8.848
    49   6 C        2.920    -0.028    28.702     8.786
    50   6 C        2.920    -0.036    28.891     8.814
    51   6 C        2.920    -0.028    28.695     8.784
    52   6 C        2.924    -0.046    29.147     8.854
    53   6 C        2.921    -0.033    28.824     8.804
    54   6 C        2.919    -0.038    28.935     8.821
    55   6 C        2.983     0.010    27.795     8.648
    56   6 C        2.914    -0.036    28.890     8.814
    57   6 C        2.913    -0.034    28.842     8.806
    58   6 C        2.985     0.007    27.852     8.657
    59   6 C        2.996     0.003    27.957     8.673
    60   6 C        2.997     0.003    27.950     8.672
    61   6 C        2.985     0.006    27.885     8.662
    62   6 C        2.918    -0.033    28.811     8.802
    63   6 C        2.915    -0.030    28.752     8.793
    64   6 C        2.915    -0.030    28.752     8.793
    65   6 C        2.918    -0.032    28.802     8.801
    66   6 C        2.984     0.006    27.878     8.661
    67   6 C        2.923    -0.048    29.201     8.862
    68   6 C        2.920    -0.030    28.747     8.792
    69   1 H        0.926     0.028     2.609     2.526
    70   1 H        0.926     0.030     2.591     2.517
    71   1 H        0.926     0.029     2.602     2.522
    72   1 H        0.926     0.031     2.571     2.507
    73   1 H        0.926     0.029     2.597     2.520
    74   1 H        0.926     0.030     2.589     2.516
    75   1 H        0.926     0.030     2.585     2.514
    76   1 H        0.926     0.030     2.582     2.513
    77   1 H        0.926     0.033     2.548     2.496
    78   1 H        0.926     0.031     2.571     2.508
    79   1 H        0.926     0.030     2.583     2.513
    80   1 H        0.926     0.032     2.557     2.501
    81   1 H        0.926     0.031     2.566     2.505
    82   1 H        0.926     0.028     2.614     2.528
    83   1 H        0.926     0.028     2.612     2.527
    84   1 H        0.926     0.030     2.585     2.514
    85   1 H        0.926     0.032     2.561     2.502
    86   1 H        0.926     0.030     2.585     2.514
    87   1 H        0.926     0.029     2.594     2.518
    88   1 H        0.926     0.032     2.563     2.503
    89   1 H        0.926     0.033     2.543     2.494
    90   1 H        0.926     0.032     2.565     2.504
    91   1 H        0.926     0.032     2.552     2.498
    92   1 H        0.926     0.034     2.526     2.485
    93   1 H        0.926     0.026     2.642     2.542
    94   1 H        0.926     0.029     2.607     2.525
    95   1 H        0.926     0.027     2.625     2.533
    96   1 H        0.926     0.029     2.602     2.523
    97   1 H        0.926     0.029     2.601     2.522
    98   1 H        0.926     0.032     2.563     2.504
    99   1 H        0.926     0.030     2.581     2.512
   100   1 H        0.926     0.027     2.629     2.536
   101   1 H        0.926     0.029     2.594     2.518
   102   1 H        0.926     0.029     2.598     2.521
   103   1 H        0.926     0.029     2.607     2.525
   104   1 H        0.926     0.031     2.574     2.509
   105   1 H        0.926     0.030     2.590     2.516
   106   1 H        0.926     0.030     2.586     2.515
   107   1 H        0.926     0.029     2.603     2.523
   108   1 H        0.926     0.028     2.619     2.531
   109   1 H        0.926     0.028     2.616     2.529
   110   1 H        0.926     0.030     2.589     2.516
   111   1 H        0.926     0.029     2.607     2.525
   112   1 H        0.926     0.030     2.590     2.517

molecular dipole:
                 x           y           z       tot (Debye)
 q only:       -0.079       0.208      -0.053
   full:       -0.081       0.206      -0.048       0.577

 projected vibrational frequencies (cm⁻¹)
eigval :       -0.00    -0.00     0.00     0.00     0.00     0.00
eigval :        2.11     9.73    14.19    17.01    18.87    24.25
eigval :       27.41    37.33    43.39    52.82    55.42    58.69
eigval :       60.86    66.24    70.26    73.65    77.64    81.55
eigval :       82.12    84.38    89.53   103.13   105.01   120.51
eigval :      123.66   126.56   145.80   159.74   165.48   176.84
eigval :      179.97   195.50   204.19   210.58   218.53   222.40
eigval :      225.32   237.67   241.24   242.61   257.64   279.61
eigval :      285.62   293.72   302.74   319.72   325.73   334.29
eigval :      338.96   360.19   371.80   376.44   379.73   381.57
eigval :      387.00   387.69   391.88   395.89   397.83   402.98
eigval :      408.94   414.21   427.40   442.79   448.62   459.01
eigval :      460.04   470.00   472.90   476.59   478.10   482.08
eigval :      487.96   488.93   500.04   503.21   508.67   520.41
eigval :      528.25   546.73   562.91   577.55   580.39   583.86
eigval :      584.10   586.91   589.79   592.28   595.53   599.87
eigval :      600.54   601.92   606.11   621.18   640.21   649.01
eigval :      652.12   657.06   657.38   659.54   662.93   664.74
eigval :      675.44   681.64   691.51   693.54   698.20   704.86
eigval :      709.30   716.24   728.46   737.21   743.25   754.80
eigval :      755.83   756.84   758.90   760.29   773.89   776.27
eigval :      783.67   783.93   801.22   806.51   822.85   843.36
eigval :      845.37   851.28   869.68   871.94   873.75   874.64
eigval :      876.19   878.57   885.09   885.58   886.73   889.50
eigval :      891.20   892.40   897.43   902.71   908.72   909.19
eigval :      909.25   912.42   913.73   916.23   916.65   917.52
eigval :      920.77   921.62   922.97   923.91   925.13   925.67
eigval :      926.00   926.75   927.32   927.57   927.98   929.54
eigval :      930.61   930.78   932.28   933.26   934.94   957.24
eigval :      986.03   986.89   996.91  1004.55  1004.81  1059.17
eigval :     1079.69  1082.11  1083.00  1083.46  1085.20  1086.43
eigval :     1092.44  1098.15  1107.99  1111.80  1119.62  1121.84
eigval :     1123.86  1126.86  1127.73  1135.92  1150.31  1159.41
eigval :     1166.18  1178.87  1179.75  1180.11  1180.34  1181.08
eigval :     1181.26  1181.80  1183.24  1186.04  1189.12  1189.75
eigval :     1196.55  1197.16  1197.64  1205.63  1206.13  1215.29
eigval :     1220.09  1225.69  1228.58  1237.05  1245.30  1249.16
eigval :     1257.09  1263.50  1266.70  1278.78  1278.92  1280.78
eigval :     1282.18  1290.24  1307.80  1308.05  1308.82  1312.17
eigval :     1317.07  1319.57  1321.63  1323.45  1323.90  1327.71
eigval :     1329.74  1329.82  1330.17  1350.92  1355.98  1376.96
eigval :     1381.27  1386.59  1387.71  1410.96  1417.12  1422.84
eigval :     1426.56  1430.97  1431.64  1437.10  1437.34  1444.14
eigval :     1445.61  1447.26  1452.56  1467.80  1470.55  1473.80
eigval :     1474.08  1477.99  1480.19  1486.94  1501.04  1506.82
eigval :     1527.65  1531.60  1535.11  1543.89  1562.45  1563.92
eigval :     1566.16  1567.79  1577.16  1577.35  1581.71  1581.82
eigval :     1587.72  1588.77  1596.59  1596.75  1601.76  1602.07
eigval :     1606.33  1608.79  1609.63  1623.85  3066.06  3066.73
eigval :     3069.36  3069.88  3071.91  3071.98  3072.33  3072.78
eigval :     3074.60  3074.79  3074.93  3075.13  3075.30  3075.94
eigval :     3076.75  3077.32  3078.01  3078.31  3078.89  3079.28
eigval :     3080.46  3083.80  3084.12  3084.76  3085.21  3086.59
eigval :     3086.74  3087.41  3087.67  3088.06  3088.55  3088.86
eigval :     3089.73  3090.09  3090.43  3093.21  3095.47  3095.69
eigval :     3096.23  3096.49  3096.58  3097.13  3097.39  3100.63

   temp. (K)  partition function   enthalpy   heat capacity  entropy
                                   cal/mol     cal/K/mol   cal/K/mol   J/K/mol
 298.15  VIB  0.203E+26            31709.831    202.789    199.279
         ROT  0.181E+09              888.752      2.981     40.771
         INT  0.368E+34            32598.583    205.770    240.050
         TR   0.246E+29             1481.254      4.968     46.129
         TOT                       34079.8371   210.7384   286.1783  1197.3701

       T/K    H(0)-H(T)+PV         H(T)/Eh          T*S/Eh         G(T)/Eh
   ------------------------------------------------------------------------
    298.15    0.543097E-01    0.924295E+00    0.135973E+00    0.788323E+00
   ------------------------------------------------------------------------

         :::::::::::::::::::::::::::::::::::::::::::::::::::::
         ::                  THERMODYNAMIC                  ::
         :::::::::::::::::::::::::::::::::::::::::::::::::::::
         :: total free energy        -168.894445237619 Eh   ::
         ::.................................................::
         :: total energy             -169.682767844984 Eh   ::
         :: zero point energy           0.869985482506 Eh   ::
         :: G(RRHO) w/o ZPVE           -0.081662875141 Eh   ::
         :: G(RRHO) contrib.            0.788322607365 Eh   ::
         :::::::::::::::::::::::::::::::::::::::::::::::::::::

           -------------------------------------------------
          | TOTAL ENERGY             -169.682767844984 Eh   |
          | TOTAL ENTHALPY           -168.758472685063 Eh   |
          | TOTAL FREE ENERGY        -168.894445237619 Eh   |
          | GRADIENT NORM               0.000053856102 Eh/α |
          | HOMO-LUMO GAP               1.846743684215 eV   |
           -------------------------------------------------

 * finished run on 2025/09/03 at 18:48:57.832
