   * xtb version 6.7.1 (edcfbbe) compiled by 'albert@albert-system' on 2024-07-22

   ID    Z sym.   atoms
    1    6 C      1-4, 6-39, 41-68
    2    7 N      5, 40
    3    1 H      69-112

          program call               : xtb data2507/gas/o-TPA-AP-TPA/o-TPA-AP-TPA_gas_T1_crest.xyz --gfn 2 --spinpol --tblite --uhf 2 --ohess vtight --parallel 40 --molden --ceasefiles --namespace data2507/gas/o-TPA-AP-TPA/o-TPA-AP-TPA_gas_T1_finalOpt
 * total energy  :  -169.6230514 Eh     change       -0.2457108E-07 Eh
 * total energy  :  -169.6231411 Eh     change       -0.8965162E-04 Eh
 * total energy  :  -169.6232216 Eh     change       -0.8054956E-04 Eh
 * total energy  :  -169.6232316 Eh     change       -0.1003064E-04 Eh
 * total energy  :  -169.6232426 Eh     change       -0.1095227E-04 Eh
 * total energy  :  -169.6232456 Eh     change       -0.2983319E-05 Eh
 * total energy  :  -169.6232505 Eh     change       -0.4904128E-05 Eh
 * total energy  :  -169.6232537 Eh     change       -0.3206851E-05 Eh
 * total energy  :  -169.6232561 Eh     change       -0.2446552E-05 Eh
 * total energy  :  -169.6232584 Eh     change       -0.2303382E-05 Eh
 * total energy  :  -169.6232733 Eh     change       -0.2492776E-06 Eh
 * total energy  :  -169.6232737 Eh     change       -0.4540204E-06 Eh
 * total energy  :  -169.6232742 Eh     change       -0.5234108E-06 Eh
 * total energy  :  -169.6232746 Eh     change       -0.3925005E-06 Eh
 * total energy  :  -169.6232750 Eh     change       -0.3952038E-06 Eh
 * total energy  :  -169.6232753 Eh     change       -0.3002054E-06 Eh
 * total energy  :  -169.6232760 Eh     change       -0.6669082E-06 Eh
 * total energy  :  -169.6232767 Eh     change       -0.6957079E-06 Eh
 * total energy  :  -169.6232767 Eh     change       -0.2688395E-07 Eh
   *** GEOMETRY OPTIMIZATION CONVERGED AFTER 33 ITERATIONS ***

 final structure:
================
112
 xtb: 6.7.1 (edcfbbe)
C           -6.46378709730158       -5.07202089431225        1.25582380294831
C           -6.67886402304457       -3.98579805432230        2.08758245679165
C           -6.48595056851577       -2.69859711737135        1.62709134073469
C           -6.07327832963968       -2.47068820363519        0.31306173893083
N           -5.87222025269160       -1.17683211168069       -0.16485804653528
C           -4.96303208411709       -0.94002159300921       -1.20650724651627
C           -5.31567473166352       -0.09737627591731       -2.25896513536269
C           -4.42113837408801        0.15200877337798       -3.28111345371039
C           -3.17060279724330       -0.44176714140093       -3.27361021422340
C           -2.81763720282534       -1.28755175636630       -2.23367418564726
C           -3.70463697036375       -1.54168275432415       -1.20734327049384
C           -6.60832695661949       -0.09754696921507        0.34576614539002
C           -7.96861544315602       -0.24038898804286        0.60706521569471
C           -8.70872016242935        0.81599163908372        1.10260001752290
C           -8.10035521743021        2.03909887612893        1.33434844188970
C           -6.75332728705609        2.19647178283231        1.06524119281525
C           -5.98489366682299        1.14382192625799        0.57591942613868
C           -4.54914180611259        1.32749781633266        0.31779062452731
C           -4.10893381465528        2.23302466777585       -0.68803486580387
C           -5.01066081863077        3.02397734434041       -1.41221812468115
C           -4.57268149352617        3.94196253394256       -2.35278141815367
C           -3.21762190349979        4.10728840857234       -2.57204118959852
C           -2.30458057689815        3.31705756711428       -1.88840910506311
C           -2.71952338764372        2.33356705096637       -0.98509962194056
C           -1.77447547558313        1.48922964659963       -0.31444872800547
C           -0.38750308974402        1.51183474092654       -0.71368445194992
C           -0.06884805515256        1.31530597299578       -2.06941533488606
C            1.22611631597217        1.19290658082456       -2.49563098835943
C            2.30084306366285        1.30085347420870       -1.59271890189492
C            3.64649425644569        1.17809855628786       -2.00475438880063
C            4.66791088997159        1.25710146353503       -1.10774441921803
C            4.41888721886184        1.47790533215178        0.27006939508511
C            5.45038929918851        1.47812629524317        1.23161492375749
C            6.81382449079379        1.01810713983587        0.92469170471888
C            7.88469827317827        1.84496902088564        1.25656041700304
C            9.19418887102051        1.46154194894883        1.04437271968419
C            9.45772844670652        0.20904062369181        0.51338856595123
C            8.41438506322429       -0.63581763567918        0.19540421364241
C            7.08494950360501       -0.25167471769611        0.38009187306637
N            6.07308015276249       -1.15433083059770        0.01943546996089
C            6.23451255209366       -1.93863966623437       -1.12893072667416
C            6.85951846051311       -1.42615860566390       -2.26627792487663
C            7.01104607914983       -2.20907262434763       -3.39377637777153
C            6.54225625711064       -3.51219257825492       -3.41340601833675
C            5.92483989704770       -4.02941248832468       -2.28642362469653
C            5.77453446402581       -3.25580488641151       -1.15239727532237
C            4.92259963722209       -1.31036745328073        0.79991075984795
C            4.98908586649756       -1.21929645506771        2.18871345057212
C            3.83826136060760       -1.31394100486691        2.94737967060972
C            2.61072971170652       -1.51722073406163        2.34063754525261
C            2.54451834252457       -1.64433463975251        0.96285328385200
C            3.68653118306367       -1.54245369514689        0.19558147901301
C            5.16739475541697        1.87480796602502        2.53706227206237
C            3.88438645051913        2.17446391252672        2.93420292226663
C            2.81466021251000        2.05073443109368        2.03765492200721
C            1.47108602739822        2.27211188294369        2.42665592843715
C            0.44549592263572        2.09642334235076        1.55070199555458
C            0.67837059337392        1.69530719996714        0.21161737460205
C            2.01858561091154        1.56916682747919       -0.23008771132688
C            3.08510531534001        1.70654838160669        0.69166698771936
C           -2.22857100787435        0.58573015781844        0.70277638526668
C           -1.38031826288931       -0.35327251874405        1.29713079908443
C           -1.82769965207106       -1.21136106302435        2.29077378122330
C           -3.13809353877664       -1.13996895887807        2.72892592656361
C           -4.01586027482515       -0.26200861241764        2.11575369833565
C           -3.60644527459285        0.56096874474842        1.05880351109584
C           -5.87077553223085       -3.57067071803820       -0.52296444028510
C           -6.05998566235133       -4.85428547597477       -0.05102187952759
H           -6.61332681651474       -6.07673308273461        1.62075233922263
H           -6.99557369767720       -4.14131798335902        3.10872367786767
H           -6.65787016190624       -1.86340005087212        2.28878248189703
H           -6.29384090284853        0.36108865166565       -2.26497121435634
H           -4.70414682943428        0.81083966430951       -4.08866451532149
H           -2.47682780089129       -0.25261484500921       -4.07918853740129
H           -1.83943245817819       -1.74534972707859       -2.21738867601213
H           -3.42793405082179       -2.19356292315809       -0.39181665435500
H           -8.44174824800569       -1.19151128414269        0.41007768081228
H           -9.76237714265300        0.68593456749369        1.29922790171792
H           -8.67279777570676        2.86710633493723        1.72438085263749
H           -6.26863645598516        3.14202280611654        1.26230549442658
H           -6.06936162906561        2.91842294095959       -1.23069128823632
H           -5.29132639378632        4.53605460909233       -2.89788352080563
H           -2.86366145532043        4.84659243050705       -3.27517634236620
H           -1.24964734708438        3.47144642188388       -2.05642218312292
H           -0.88203070174902        1.18245043459681       -2.76801320146601
H            1.43812197985549        0.98643356325122       -3.53528203068918
H            3.85224690012332        1.01610191831431       -3.05380672238441
H            5.69117805165699        1.17448380650184       -1.44057286183908
H            7.66958881021137        2.82195536085786        1.66527368695100
H           10.00319873584564        2.13050815604029        1.29566232697246
H           10.47582123817263       -0.11497304216584        0.35741816646033
H            8.61987334215557       -1.62018037617076       -0.19985554222534
H            7.23240660708101       -0.41261316274096       -2.26250178241101
H            7.49472106630733       -1.79508628060798       -4.26650438407650
H            6.66064187141187       -4.12027309093297       -4.29733399672810
H            5.56540831357180       -5.04807342472380       -2.28605887841324
H            5.30333722037547       -3.66820904330926       -0.27224937677954
H            5.94652198385840       -1.06750849737168        2.66574687026511
H            3.90255751914053       -1.23013547833491        4.02226447492717
H            1.71284621183393       -1.57652042400444        2.93671754049533
H            1.59434633455463       -1.81249459491648        0.47694150771040
H            3.62598850924667       -1.61765437626353       -0.87995164043535
H            5.97240900204520        1.90511523622966        3.25805868180794
H            3.68522935563245        2.47099861547025        3.95385880146420
H            1.27386822050906        2.58011353975114        3.44363025956335
H           -0.57240954760097        2.26829080547898        1.86805431125140
H           -0.35138536988981       -0.41302572350536        0.97861711500260
H           -1.14455485891028       -1.92481482171163        2.72756597378993
H           -3.48457913154624       -1.77581561424628        3.52998394016218
H           -5.03803605510949       -0.20455025439378        2.45625007131821
H           -5.57071590796210       -3.41098295040073       -1.54811385326307
H           -5.89971784035297       -5.69188265183812       -0.71417372558700

 projected vibrational frequencies (cm⁻¹)
eigval :       -0.00    -0.00    -0.00     0.00     0.00     0.00
eigval :        9.63    10.83    14.67    18.54    21.62    26.18
eigval :       33.30    40.33    44.96    55.18    62.37    65.59
eigval :       68.24    69.92    74.26    76.93    80.36    84.16
eigval :       86.92    89.50   101.34   107.76   114.25   120.58
eigval :      124.57   147.19   149.46   159.99   171.18   175.60
eigval :      177.69   195.55   207.18   212.11   221.98   229.84
eigval :      237.06   244.03   245.19   254.30   259.84   281.16
eigval :      287.45   290.03   302.19   320.45   323.48   333.52
eigval :      340.96   352.38   369.46   370.04   380.39   381.44
eigval :      384.89   386.57   387.35   390.36   394.29   400.99
eigval :      404.56   410.05   424.36   432.01   438.87   460.05
eigval :      462.65   467.64   470.17   474.57   477.32   480.98
eigval :      485.19   492.61   496.96   502.95   506.86   517.73
eigval :      524.99   547.03   559.46   572.12   577.94   582.59
eigval :      583.60   584.37   588.13   589.27   593.01   598.07
eigval :      598.56   600.05   602.91   610.63   635.86   637.62
eigval :      643.49   654.37   658.08   659.64   662.86   663.75
eigval :      673.55   676.80   678.45   689.24   693.70   701.89
eigval :      705.27   715.05   718.80   728.54   741.77   751.95
eigval :      752.14   755.50   755.69   759.83   760.76   765.31
eigval :      781.03   781.66   800.34   804.62   811.55   838.43
eigval :      841.36   841.67   853.93   857.13   872.39   873.81
eigval :      875.08   875.78   882.41   884.22   888.30   890.42
eigval :      892.12   894.97   896.04   896.96   897.83   901.52
eigval :      906.16   908.15   908.50   909.05   910.19   911.00
eigval :      914.30   917.99   919.68   920.55   921.61   925.27
eigval :      925.43   926.79   927.23   927.29   927.40   928.91
eigval :      929.17   930.35   930.48   932.93   948.42   956.77
eigval :      985.32   986.44   998.22  1003.34  1004.12  1059.94
eigval :     1082.50  1084.12  1085.54  1086.91  1095.47  1100.60
eigval :     1102.60  1102.98  1106.33  1118.56  1119.75  1121.85
eigval :     1122.53  1123.98  1126.64  1128.27  1135.65  1148.83
eigval :     1157.81  1168.16  1175.89  1178.75  1179.50  1180.33
eigval :     1180.76  1181.05  1182.42  1184.97  1187.42  1187.95
eigval :     1190.00  1194.86  1196.95  1197.82  1199.66  1209.12
eigval :     1210.91  1215.46  1223.55  1236.72  1237.54  1248.79
eigval :     1251.27  1256.22  1265.02  1278.08  1278.30  1280.95
eigval :     1281.29  1290.19  1292.25  1301.43  1303.33  1307.80
eigval :     1311.12  1314.30  1319.73  1321.66  1322.09  1323.59
eigval :     1323.85  1324.60  1327.41  1330.07  1330.27  1339.92
eigval :     1348.02  1371.06  1380.80  1388.23  1390.51  1398.32
eigval :     1408.15  1416.63  1420.87  1423.08  1425.43  1436.00
eigval :     1436.16  1444.03  1444.36  1451.57  1455.16  1460.11
eigval :     1464.37  1470.33  1471.09  1472.51  1476.09  1476.78
eigval :     1489.48  1497.84  1513.12  1527.08  1528.14  1536.73
eigval :     1540.23  1550.94  1555.06  1558.79  1568.72  1574.85
eigval :     1576.63  1577.87  1578.35  1579.97  1581.19  1587.04
eigval :     1592.82  1594.87  1599.55  1600.13  3066.00  3066.97
eigval :     3070.43  3071.13  3073.76  3074.63  3074.70  3075.02
eigval :     3075.04  3075.53  3075.71  3076.14  3076.20  3076.33
eigval :     3076.50  3077.70  3078.36  3078.79  3080.90  3083.26
eigval :     3084.40  3085.28  3085.60  3086.07  3086.96  3087.42
eigval :     3087.88  3088.30  3088.47  3088.99  3090.43  3091.33
eigval :     3092.11  3093.98  3095.25  3095.73  3096.05  3096.29
eigval :     3096.53  3096.99  3097.10  3097.65  3100.29  3103.80

   temp. (K)  partition function   enthalpy   heat capacity  entropy
                                   cal/mol     cal/K/mol   cal/K/mol   J/K/mol
 298.15  VIB  0.867E+24            31633.466    204.441    196.030
         ROT  0.163E+09              888.752      2.981     40.557
         INT  0.141E+33            32522.219    207.422    236.587
         TR   0.246E+29             1481.254      4.968     46.129
         TOT                       34003.4727   212.3897   282.7157  1182.8825

       T/K    H(0)-H(T)+PV         H(T)/Eh          T*S/Eh         G(T)/Eh
   ------------------------------------------------------------------------
    298.15    0.541880E-01    0.921463E+00    0.134327E+00    0.787136E+00
   ------------------------------------------------------------------------

         :::::::::::::::::::::::::::::::::::::::::::::::::::::
         ::                  THERMODYNAMIC                  ::
         :::::::::::::::::::::::::::::::::::::::::::::::::::::
         :: total free energy        -168.836141239326 Eh   ::
         ::.................................................::
         :: total energy             -169.623276822183 Eh   ::
         :: zero point energy           0.867274949228 Eh   ::
         :: G(RRHO) w/o ZPVE           -0.080139366372 Eh   ::
         :: G(RRHO) contrib.            0.787135582856 Eh   ::
         :::::::::::::::::::::::::::::::::::::::::::::::::::::

           -------------------------------------------------
          | TOTAL ENERGY             -169.623276822183 Eh   |
          | TOTAL ENTHALPY           -168.701813890031 Eh   |
          | TOTAL FREE ENERGY        -168.836141239326 Eh   |
          | GRADIENT NORM               0.000094143704 Eh/α |
           -------------------------------------------------

 * finished run on 2025/09/03 at 19:38:58.324
