   * xtb version 6.7.1 (edcfbbe) compiled by 'albert@albert-system' on 2024-07-22

   ID    Z sym.   atoms
    1    6 C      1-4, 6-39, 41-68
    2    7 N      5, 40
    3    1 H      69-112

          program call               : xtb data2507/gas/o-TPA-AP-TPA/o-TPA-AP-TPA_gas_S0_crest.xyz --gfn 2 --ohess vtight --parallel 40 --molden --ceasefiles --namespace data2507/gas/o-TPA-AP-TPA/o-TPA-AP-TPA_gas_S0_finalOpt
          :  Hamiltonian                  GFN2-xTB          :
 * total energy  :  -169.6835224 Eh     change       -0.9820752E-08 Eh
 * total energy  :  -169.6835251 Eh     change       -0.2654387E-05 Eh
 * total energy  :  -169.6835268 Eh     change       -0.1738772E-05 Eh
 * total energy  :  -169.6835307 Eh     change       -0.3898741E-05 Eh
 * total energy  :  -169.6835356 Eh     change       -0.4856868E-05 Eh
 * total energy  :  -169.6835414 Eh     change       -0.5837738E-05 Eh
 * total energy  :  -169.6835482 Eh     change       -0.6821831E-05 Eh
 * total energy  :  -169.6835557 Eh     change       -0.7492792E-05 Eh
 * total energy  :  -169.6835629 Eh     change       -0.7128752E-05 Eh
 * total energy  :  -169.6835679 Eh     change       -0.5051411E-05 Eh
 * total energy  :  -169.6836497 Eh     change       -0.3110221E-06 Eh
 * total energy  :  -169.6836500 Eh     change       -0.2336658E-06 Eh
 * total energy  :  -169.6836501 Eh     change       -0.1788819E-06 Eh
 * total energy  :  -169.6836503 Eh     change       -0.1466275E-06 Eh
 * total energy  :  -169.6836504 Eh     change       -0.1605984E-06 Eh
 * total energy  :  -169.6836506 Eh     change       -0.1911332E-06 Eh
 * total energy  :  -169.6836508 Eh     change       -0.2143390E-06 Eh
 * total energy  :  -169.6836511 Eh     change       -0.2421088E-06 Eh
 * total energy  :  -169.6836511 Eh     change       -0.2920274E-08 Eh
   *** GEOMETRY OPTIMIZATION CONVERGED AFTER 94 ITERATIONS ***

 final structure:
================
112
 xtb: 6.7.1 (edcfbbe)
C           -4.41640657775723        2.16114591148071       -2.53220485842741
C           -5.50040958965999        2.44567561300643       -1.72003410703706
C           -6.15038095391955        1.43072289998220       -1.04521612983229
C           -5.71114200557083        0.11455930733074       -1.16624313833473
N           -6.36219785498462       -0.90977001849770       -0.46234409152948
C           -6.69650166506612       -2.09905588109789       -1.10882899746683
C           -6.92835804314050       -2.11185678315204       -2.48561984862648
C           -7.24886920761307       -3.28911925754799       -3.13185490236134
C           -7.35606804034082       -4.47463307280481       -2.42387097480869
C           -7.13910331581231       -4.46803373623422       -1.05616432178567
C           -6.81093939237865       -3.29725294085155       -0.40194307304480
C           -6.72131190611256       -0.69357269850904        0.87629172353382
C           -7.97995998584503       -1.08374447055686        1.33119191832656
C           -8.34705774670960       -0.89178227149189        2.64849764451211
C           -7.46427646790953       -0.29639292205079        3.53481966570127
C           -6.21812770099928        0.10684024044510        3.09052215240120
C           -5.82598956478619       -0.08345866865364        1.77074770418371
C           -4.47978414618837        0.34337596458605        1.33084992586606
C           -4.15826368628441        1.70722057199768        1.27330187097944
C           -5.08046141898496        2.71497529587159        1.65865753084622
C           -4.75688034158388        4.03459746000545        1.58780867313099
C           -3.48501541810203        4.43230049645664        1.13064191798797
C           -2.57590343330341        3.49891042086989        0.74016859189992
C           -2.88092345050095        2.11341649452654        0.77857510037256
C           -1.96095951069570        1.15129292259382        0.34325418234825
C           -0.66492113015191        1.57107609813046       -0.22930903844860
C           -0.63682690271065        2.14594597757530       -1.49508064776275
C            0.55586305353241        2.49863342965796       -2.09234826700209
C            1.77122742310709        2.27999303950789       -1.44168922029157
C            3.02208237695345        2.59310674389138       -2.04544670232181
C            4.19074538901473        2.32905258661567       -1.41811065958670
C            4.21720579624823        1.75062350510662       -0.11500196573893
C            5.41448112931604        1.39107517578201        0.52215445448158
C            6.71699912003608        1.47530648206987       -0.16965184562867
C            7.32154166536302        2.69274952914830       -0.45013297299695
C            8.57209662144337        2.74453478214272       -1.04071057942077
C            9.23324548117555        1.56901485199013       -1.35779896520977
C            8.64058392038585        0.34807291367367       -1.09840279702824
C            7.38098272015711        0.28676086268618       -0.50855557245933
N            6.77312736613598       -0.95805923050134       -0.26192324557185
C            7.48676151082880       -1.96937138261632        0.37399437777459
C            8.51234301158139       -1.65887540624749        1.26885051921447
C            9.22456877173013       -2.66476654150858        1.89142401443822
C            8.92666582565864       -3.99457546580855        1.64409586501215
C            7.90868819248352       -4.30946216387690        0.75873152121930
C            7.19639686514811       -3.31166335785168        0.12374310415573
C            5.44031274936679       -1.14207839346456       -0.65594723961562
C            4.52457446616790       -1.78748817820299        0.17429678869596
C            3.20337525889194       -1.90373665252111       -0.20858212148537
C            2.77696726632468       -1.39406751118481       -1.42439202101075
C            3.68729472444289       -0.77611574961086       -2.26371543410915
C            5.01021785625020       -0.64998287888649       -1.88647858604815
C            5.38422803635709        0.86327775982478        1.80805560431632
C            4.19057398370089        0.64792435322495        2.46347474904239
C            2.97631137269340        0.91381552395507        1.83025176374991
C            1.72403250887663        0.62442016966294        2.44375558349313
C            0.55698027849760        0.83673875620624        1.79457765069137
C            0.53508853504132        1.37273116841275        0.47289485534959
C            1.76400926524784        1.71688257379745       -0.14241992470039
C            2.98680733755433        1.47324945829150        0.52960474506956
C           -2.27440325104143       -0.21300814692287        0.41944260982526
C           -1.37657517748972       -1.21264174128621       -0.03786655869819
C           -1.68846491553911       -2.53428676359261        0.04847440680039
C           -2.91028309424973       -2.93921227275525        0.62170406460166
C           -3.80153556624003       -2.00986544176943        1.06097385930954
C           -3.53722081868887       -0.62108507369995        0.94609188436291
C           -4.62319940257729       -0.16854826576168       -1.99020770039346
C           -3.98469646593981        0.85086042993697       -2.66695309185541
H           -3.91475821816253        2.95787603054235       -3.06140526379930
H           -5.84507700667648        3.46354782179576       -1.61352850563262
H           -7.00110690148051        1.64915161859342       -0.41629168770330
H           -6.86179632364348       -1.18993908137165       -3.04437291697178
H           -7.42627199987705       -3.27760833205019       -4.19744480459987
H           -7.60967072075072       -5.39268035502044       -2.93169835559504
H           -7.22041863441128       -5.38551870352213       -0.49150809892524
H           -6.64480848332336       -3.31011171357187        0.66461708310221
H           -8.66862374869014       -1.53983470098228        0.63476852124306
H           -9.32648360202195       -1.20126138505326        2.98163089432254
H           -7.74493313053590       -0.14690932862361        4.56640074801838
H           -5.51851265849618        0.56176486831056        3.77737223052697
H           -6.05457313653200        2.41578633576560        2.01564900323139
H           -5.47157237413725        4.78812944711482        1.88553879477630
H           -3.24016474550575        5.48379639594286        1.09366323744276
H           -1.59807532285622        3.79982694522088        0.39387010991778
H           -1.57232330775101        2.30174192674568       -2.01209537507542
H            0.55734523881066        2.93768717217218       -3.08005038611183
H            3.01427704572698        3.03478055540120       -3.03225261467537
H            5.13164792585803        2.55201792004967       -1.89917579200826
H            6.80997924149319        3.60490368545957       -0.17731976511674
H            9.03244823780332        3.69916353520632       -1.24643488571454
H           10.21030969908649        1.60309231445826       -1.81634201473242
H            9.14697085815713       -0.57256694041927       -1.35015316818635
H            8.74639655315617       -0.62401213014726        1.47289591546570
H           10.01436532553056       -2.40692995819892        2.58205995728200
H            9.48346882574214       -4.77802856954454        2.13526728376723
H            7.67270117864550       -5.34335145133632        0.55249227378372
H            6.41363199365125       -3.56366464975059       -0.57650462485868
H            4.85372451901469       -2.17491313910024        1.12717720933025
H            2.49695208468333       -2.38300012702789        0.45344635195366
H            1.74141260106174       -1.48009746695263       -1.71744409568620
H            3.36509616365670       -0.38574670399424       -3.21776627287871
H            5.72026451259328       -0.16080829242594       -2.53760548832090
H            6.31697775210801        0.60725785246540        2.29107248655375
H            4.18769533948334        0.23936146914454        3.46391868221616
H            1.73059013426028        0.21768455233258        3.44527408268004
H           -0.38635011358051        0.60563567217280        2.26756060055894
H           -0.43162083976731       -0.90193771190328       -0.45799402144171
H           -0.99746317142981       -3.28356055632269       -0.30982742148811
H           -3.13166916176613       -3.99275440857169        0.71033965675267
H           -4.72700997231406       -2.31966801429176        1.52123440488798
H           -4.27979662144433       -1.18850352370067       -2.08340186562029
H           -3.13872129347302        0.61902868832079       -3.29778445873723

          :  Hamiltonian                  GFN2-xTB          :
         :: gradient norm              0.000032147227 Eh/a0 ::
         :: HOMO-LUMO gap              1.810218468707 eV    ::
         :: SCC energy              -172.974306200508 Eh    ::
         :: -> dispersion             -0.197938308559 Eh    ::
         :: repulsion energy           3.290655107142 Eh    ::

    * Orbital Energies and Occupations

         #    Occupation            Energy/Eh            Energy/eV
      -------------------------------------------------------------
         1        2.0000           -0.6627165             -18.0334
       ...           ...                  ...                  ...
       147        2.0000           -0.4007612             -10.9053
       148        2.0000           -0.4004342             -10.8964
       149        2.0000           -0.3997300             -10.8772
       150        2.0000           -0.3993313             -10.8664
       151        2.0000           -0.3983874             -10.8407
       152        2.0000           -0.3969204             -10.8008
       153        2.0000           -0.3961493             -10.7798
       154        2.0000           -0.3944358             -10.7331
       155        2.0000           -0.3884097             -10.5692
       156        2.0000           -0.3618533              -9.8465
       157        2.0000           -0.3544109              -9.6440
       158        2.0000           -0.3474265              -9.4540
       159        2.0000           -0.3469417              -9.4408 (HOMO)
       160                         -0.2804174              -7.6305 (LUMO)
       161                         -0.2730511              -7.4301
       162                         -0.2411651              -6.5624
       163                         -0.2316548              -6.3036
       164                         -0.2307387              -6.2787
       165                         -0.2298241              -6.2538
       166                         -0.2264547              -6.1621
       167                         -0.2263204              -6.1585
       168                         -0.2252366              -6.1290
       169                         -0.2246412              -6.1128
       170                         -0.2212965              -6.0218
       ...                                ...                  ...
       316                          0.7345860              19.9891
      -------------------------------------------------------------
                  HL-Gap            0.0665243 Eh            1.8102 eV

     #   Z          covCN         q      C6AA      α(0)
     1   6 C        2.920    -0.036    28.903     8.816
     2   6 C        2.920    -0.028    28.705     8.786
     3   6 C        2.923    -0.045    29.108     8.848
     4   6 C        2.926     0.067    26.494     8.441
     5   7 N        2.752    -0.078    22.750     7.084
     6   6 C        2.921     0.066    26.528     8.446
     7   6 C        2.923    -0.051    29.262     8.871
     8   6 C        2.920    -0.029    28.736     8.791
     9   6 C        2.919    -0.041    29.015     8.833
    10   6 C        2.920    -0.030    28.748     8.793
    11   6 C        2.923    -0.049    29.228     8.866
    12   6 C        2.926     0.062    26.615     8.460
    13   6 C        2.922    -0.048    29.186     8.859
    14   6 C        2.919    -0.032    28.805     8.801
    15   6 C        2.917    -0.039    28.973     8.827
    16   6 C        2.924    -0.033    28.828     8.805
    17   6 C        2.977    -0.003    28.093     8.694
    18   6 C        2.977    -0.006    28.161     8.705
    19   6 C        2.983     0.006    27.892     8.663
    20   6 C        2.917    -0.034    28.844     8.807
    21   6 C        2.915    -0.030    28.753     8.793
    22   6 C        2.915    -0.030    28.758     8.794
    23   6 C        2.918    -0.033    28.829     8.805
    24   6 C        2.985     0.006    27.883     8.662
    25   6 C        2.979    -0.004    28.115     8.698
    26   6 C        2.978     0.008    27.846     8.656
    27   6 C        2.919    -0.035    28.879     8.813
    28   6 C        2.919    -0.038    28.952     8.824
    29   6 C        2.983     0.009    27.810     8.650
    30   6 C        2.914    -0.036    28.906     8.816
    31   6 C        2.913    -0.035    28.864     8.810
    32   6 C        2.984     0.007    27.869     8.660
    33   6 C        2.978     0.003    27.941     8.671
    34   6 C        2.980    -0.003    28.097     8.695
    35   6 C        2.922    -0.033    28.833     8.806
    36   6 C        2.918    -0.038    28.938     8.821
    37   6 C        2.919    -0.032    28.798     8.800
    38   6 C        2.921    -0.045    29.124     8.850
    39   6 C        2.930     0.061    26.626     8.462
    40   7 N        2.752    -0.080    22.793     7.091
    41   6 C        2.921     0.066    26.525     8.446
    42   6 C        2.923    -0.051    29.264     8.871
    43   6 C        2.919    -0.030    28.747     8.792
    44   6 C        2.919    -0.041    29.024     8.835
    45   6 C        2.920    -0.029    28.736     8.791
    46   6 C        2.923    -0.051    29.266     8.871
    47   6 C        2.924     0.066    26.514     8.444
    48   6 C        2.922    -0.045    29.113     8.848
    49   6 C        2.920    -0.028    28.698     8.785
    50   6 C        2.920    -0.036    28.889     8.814
    51   6 C        2.920    -0.028    28.697     8.785
    52   6 C        2.924    -0.046    29.147     8.853
    53   6 C        2.921    -0.033    28.823     8.804
    54   6 C        2.919    -0.037    28.932     8.821
    55   6 C        2.983     0.010    27.793     8.648
    56   6 C        2.914    -0.036    28.892     8.814
    57   6 C        2.913    -0.034    28.839     8.806
    58   6 C        2.985     0.008    27.844     8.656
    59   6 C        2.996     0.003    27.956     8.673
    60   6 C        2.997     0.003    27.950     8.672
    61   6 C        2.985     0.006    27.872     8.660
    62   6 C        2.918    -0.033    28.813     8.802
    63   6 C        2.915    -0.030    28.753     8.793
    64   6 C        2.915    -0.030    28.753     8.793
    65   6 C        2.918    -0.032    28.804     8.801
    66   6 C        2.985     0.006    27.878     8.661
    67   6 C        2.922    -0.043    29.067     8.841
    68   6 C        2.920    -0.028    28.707     8.786
    69   1 H        0.926     0.028     2.610     2.526
    70   1 H        0.926     0.030     2.579     2.512
    71   1 H        0.926     0.030     2.583     2.513
    72   1 H        0.926     0.028     2.613     2.528
    73   1 H        0.926     0.029     2.600     2.522
    74   1 H        0.926     0.028     2.619     2.531
    75   1 H        0.926     0.029     2.600     2.521
    76   1 H        0.926     0.028     2.613     2.528
    77   1 H        0.926     0.033     2.539     2.492
    78   1 H        0.926     0.031     2.567     2.506
    79   1 H        0.926     0.031     2.579     2.511
    80   1 H        0.926     0.032     2.555     2.500
    81   1 H        0.926     0.031     2.568     2.506
    82   1 H        0.926     0.028     2.614     2.528
    83   1 H        0.926     0.028     2.609     2.526
    84   1 H        0.926     0.031     2.571     2.508
    85   1 H        0.926     0.032     2.552     2.498
    86   1 H        0.926     0.030     2.586     2.515
    87   1 H        0.926     0.030     2.593     2.518
    88   1 H        0.926     0.032     2.563     2.504
    89   1 H        0.926     0.033     2.541     2.493
    90   1 H        0.926     0.032     2.563     2.503
    91   1 H        0.926     0.033     2.550     2.497
    92   1 H        0.926     0.034     2.524     2.484
    93   1 H        0.926     0.026     2.644     2.543
    94   1 H        0.926     0.029     2.608     2.525
    95   1 H        0.926     0.027     2.625     2.534
    96   1 H        0.926     0.029     2.603     2.523
    97   1 H        0.926     0.029     2.603     2.523
    98   1 H        0.926     0.032     2.563     2.504
    99   1 H        0.926     0.030     2.583     2.513
   100   1 H        0.926     0.026     2.639     2.540
   101   1 H        0.926     0.030     2.593     2.518
   102   1 H        0.926     0.029     2.599     2.521
   103   1 H        0.926     0.029     2.606     2.524
   104   1 H        0.926     0.031     2.573     2.508
   105   1 H        0.926     0.030     2.588     2.516
   106   1 H        0.926     0.030     2.581     2.512
   107   1 H        0.926     0.030     2.592     2.517
   108   1 H        0.926     0.027     2.625     2.534
   109   1 H        0.926     0.028     2.616     2.529
   110   1 H        0.926     0.030     2.593     2.518
   111   1 H        0.926     0.032     2.564     2.504
   112   1 H        0.926     0.031     2.569     2.507

molecular dipole:
                 x           y           z       tot (Debye)
 q only:       -0.042       0.298      -0.023
   full:       -0.045       0.281      -0.028       0.728

 projected vibrational frequencies (cm⁻¹)
eigval :       -0.00    -0.00    -0.00     0.00     0.00     0.00
eigval :        6.65    11.48    14.95    19.74    21.79    26.89
eigval :       30.68    38.46    44.88    53.29    54.95    59.47
eigval :       62.73    67.04    68.48    74.74    79.09    82.27
eigval :       83.22    85.72    90.57   101.10   106.53   120.28
eigval :      123.99   130.38   150.88   158.19   164.66   176.84
eigval :      179.19   194.61   206.15   208.98   219.32   222.20
eigval :      223.96   237.92   242.85   244.83   258.14   282.07
eigval :      285.06   294.43   301.65   319.52   322.86   335.98
eigval :      339.06   363.15   371.26   374.77   379.67   381.07
eigval :      387.00   387.42   391.81   393.80   399.23   403.21
eigval :      410.12   414.43   428.05   443.46   449.79   459.24
eigval :      461.29   469.47   472.48   476.06   477.82   481.47
eigval :      487.06   488.47   500.03   502.78   508.21   521.37
eigval :      529.50   546.86   562.91   577.37   580.39   583.63
eigval :      584.28   586.91   590.27   591.87   596.09   599.02
eigval :      600.83   601.02   605.37   621.83   643.18   647.01
eigval :      651.78   656.89   657.21   659.40   663.13   665.04
eigval :      675.64   681.17   692.46   693.59   698.06   706.24
eigval :      709.55   716.31   728.22   737.22   743.12   755.03
eigval :      755.39   756.65   759.24   760.49   774.12   776.62
eigval :      783.66   783.91   801.88   806.35   823.36   843.46
eigval :      845.69   851.91   868.75   871.82   873.52   874.73
eigval :      875.78   878.87   885.14   885.51   886.55   888.77
eigval :      891.49   894.14   897.55   902.59   908.94   909.12
eigval :      909.19   912.89   915.57   916.42   916.95   917.84
eigval :      920.87   922.16   923.30   924.08   924.92   925.72
eigval :      925.90   926.86   927.31   927.49   927.67   929.78
eigval :      930.17   931.32   932.27   932.75   935.92   957.35
eigval :      985.94   986.81   997.11  1004.47  1004.69  1059.39
eigval :     1081.45  1082.21  1082.68  1083.55  1085.23  1087.04
eigval :     1091.94  1096.36  1107.55  1111.98  1119.65  1121.69
eigval :     1123.68  1127.07  1128.19  1135.86  1150.18  1159.31
eigval :     1166.43  1177.38  1178.86  1179.46  1181.07  1181.16
eigval :     1181.92  1182.24  1184.77  1186.64  1189.37  1189.62
eigval :     1196.71  1197.95  1198.33  1205.55  1206.53  1215.48
eigval :     1220.41  1226.48  1229.42  1237.18  1245.18  1248.88
eigval :     1256.60  1263.47  1267.10  1278.92  1279.23  1280.69
eigval :     1282.26  1290.20  1307.70  1308.13  1309.03  1311.65
eigval :     1316.12  1320.14  1322.95  1323.81  1323.85  1327.28
eigval :     1329.86  1330.03  1330.35  1350.89  1355.73  1376.98
eigval :     1381.69  1385.69  1388.66  1410.74  1416.86  1422.69
eigval :     1427.49  1430.61  1431.80  1437.12  1437.66  1444.11
eigval :     1445.72  1446.87  1452.57  1467.40  1469.68  1473.71
eigval :     1473.80  1478.80  1480.29  1487.06  1499.70  1506.31
eigval :     1527.59  1530.19  1535.05  1543.15  1562.83  1563.72
eigval :     1566.06  1567.44  1577.09  1577.28  1581.58  1581.70
eigval :     1587.40  1588.85  1596.56  1596.74  1602.10  1602.16
eigval :     1606.00  1608.44  1609.59  1623.65  3066.07  3067.13
eigval :     3069.79  3071.65  3071.95  3072.61  3072.80  3072.89
eigval :     3074.21  3074.29  3074.85  3075.12  3075.44  3075.66
eigval :     3075.88  3076.77  3077.99  3078.25  3078.75  3080.67
eigval :     3081.60  3083.13  3083.41  3084.04  3086.21  3086.58
eigval :     3086.91  3087.59  3087.63  3088.43  3088.64  3089.77
eigval :     3090.09  3090.75  3092.62  3092.72  3093.75  3095.13
eigval :     3095.59  3095.71  3096.34  3096.64  3097.20  3100.29

   temp. (K)  partition function   enthalpy   heat capacity  entropy
                                   cal/mol     cal/K/mol   cal/K/mol   J/K/mol
 298.15  VIB  0.270E+25            31657.845    202.967    197.323
         ROT  0.178E+09              888.752      2.981     40.736
         INT  0.481E+33            32546.597    205.948    238.058
         TR   0.246E+29             1481.254      4.968     46.129
         TOT                       34027.8513   210.9157   284.1870  1189.0382

       T/K    H(0)-H(T)+PV         H(T)/Eh          T*S/Eh         G(T)/Eh
   ------------------------------------------------------------------------
    298.15    0.542268E-01    0.924331E+00    0.135026E+00    0.789305E+00
   ------------------------------------------------------------------------

         :::::::::::::::::::::::::::::::::::::::::::::::::::::
         ::                  THERMODYNAMIC                  ::
         :::::::::::::::::::::::::::::::::::::::::::::::::::::
         :: total free energy        -168.894346415215 Eh   ::
         ::.................................................::
         :: total energy             -169.683651093367 Eh   ::
         :: zero point energy           0.870104238219 Eh   ::
         :: G(RRHO) w/o ZPVE           -0.080799560066 Eh   ::
         :: G(RRHO) contrib.            0.789304678153 Eh   ::
         :::::::::::::::::::::::::::::::::::::::::::::::::::::

           -------------------------------------------------
          | TOTAL ENERGY             -169.683651093367 Eh   |
          | TOTAL ENTHALPY           -168.759320022397 Eh   |
          | TOTAL FREE ENERGY        -168.894346415215 Eh   |
          | GRADIENT NORM               0.000032150628 Eh/α |
          | HOMO-LUMO GAP               1.810218286396 eV   |
           -------------------------------------------------

 * finished run on 2025/09/03 at 19:12:04.886
