   * xtb version 6.7.1 (edcfbbe) compiled by 'albert@albert-system' on 2024-07-22

   ID    Z sym.   atoms
    1    6 C      1-4, 6-39, 41-68
    2    7 N      5, 40
    3    1 H      69-112

          program call               : xtb data2507/gas/o-TPA-AP-TPA/o-TPA-AP-TPA_gas_S0_finalOpt.xtbopt.xyz --gfn 2 --spinpol --tblite --uhf 2 --ohess vtight --parallel 40 --molden --ceasefiles --namespace data2507/gas/o-TPA-AP-TPA/o-TPA-AP-TPA_gas_T1_preOpt
 * total energy  :  -169.6142190 Eh     change       -0.1716310E-07 Eh
 * total energy  :  -169.6193106 Eh     change       -0.5091542E-02 Eh
 * total energy  :  -169.6209070 Eh     change       -0.1596409E-02 Eh
 * total energy  :  -169.6210466 Eh     change       -0.1395580E-03 Eh
 * total energy  :  -169.6212124 Eh     change       -0.1658950E-03 Eh
 * total energy  :  -169.6212869 Eh     change       -0.7441506E-04 Eh
 * total energy  :  -169.6214025 Eh     change       -0.1156286E-03 Eh
 * total energy  :  -169.6214979 Eh     change       -0.9543477E-04 Eh
 * total energy  :  -169.6215659 Eh     change       -0.6801051E-04 Eh
 * total energy  :  -169.6216180 Eh     change       -0.5202947E-04 Eh
 * total energy  :  -169.6222782 Eh     change       -0.1479067E-05 Eh
 * total energy  :  -169.6222794 Eh     change       -0.1262626E-05 Eh
 * total energy  :  -169.6222809 Eh     change       -0.1502460E-05 Eh
 * total energy  :  -169.6222819 Eh     change       -0.9918857E-06 Eh
 * total energy  :  -169.6222830 Eh     change       -0.1052578E-05 Eh
 * total energy  :  -169.6222842 Eh     change       -0.1199914E-05 Eh
 * total energy  :  -169.6222854 Eh     change       -0.1234853E-05 Eh
 * total energy  :  -169.6222854 Eh     change        0.7696940E-08 Eh
 * total energy  :  -169.6222854 Eh     change       -0.1519072E-07 Eh
   *** GEOMETRY OPTIMIZATION CONVERGED AFTER 69 ITERATIONS ***

 final structure:
================
112
 xtb: 6.7.1 (edcfbbe)
C           -4.32903631427212        2.01151511057261       -2.58945429710853
C           -5.48259134620625        2.29742099693237       -1.87949567456339
C           -6.13600148930803        1.29952135836051       -1.18351785476897
C           -5.63285236391914        0.00015076674406       -1.18164490967873
N           -6.29606013720453       -1.00811152733050       -0.46436392546484
C           -6.54575920987315       -2.24126428798520       -1.06339417698518
C           -6.68664578394427       -2.33489722628067       -2.44953411320044
C           -6.92754562611145       -3.55523472665113       -3.04849636038458
C           -7.04254027470546       -4.70436220762493       -2.28386248755488
C           -6.91300397571236       -4.61808234697672       -0.90763233416868
C           -6.66553251863738       -3.40348741805061       -0.29955824951267
C           -6.76042811011182       -0.72133311528550        0.82657766189236
C           -8.02671106180565       -1.13982186641321        1.22795478475069
C           -8.49863387322478       -0.84914123818057        2.49359173890930
C           -7.71547005342556       -0.12183815130197        3.37545716609215
C           -6.46175972843568        0.30949567348750        2.98310438927241
C           -5.95940664862904        0.01624698673109        1.71867696773132
C           -4.60928916690638        0.45569975498765        1.33508579033070
C           -4.31814480729665        1.84350329422516        1.19630570732508
C           -5.27194916989216        2.82649530671498        1.48261636178376
C           -4.97834087310299        4.17750916945306        1.35965476473104
C           -3.71607143892152        4.57272957390128        0.96351716256961
C           -2.75395325468267        3.61720929022079        0.66050314706494
C           -3.03594173201163        2.25000894601805        0.72704377691878
C           -2.04594597112182        1.26751985203366        0.40531118118424
C           -0.76243762720162        1.68470671238484       -0.12520345980198
C           -0.72933304229497        2.43006202947408       -1.31268234387424
C            0.45440269200270        2.74234819588231       -1.93083082091961
C            1.68536327623407        2.37766642948553       -1.36105170990436
C            2.92128870891019        2.66595202147945       -1.98750552226329
C            4.10269001156133        2.32559911499126       -1.40865379725437
C            4.14399283086168        1.69677907663925       -0.13508374023319
C            5.35235506162994        1.31694316822733        0.47849415368536
C            6.64916854336031        1.46672455607131       -0.20870565828488
C            7.18749103129834        2.71678905035811       -0.48602116486748
C            8.43220313283961        2.83972624934833       -1.07739094043915
C            9.15659683159313        1.70364977646521       -1.40118669388367
C            8.63249909719383        0.45142726048702       -1.14449809256265
C            7.37929829749089        0.31856589247470       -0.55228553679175
N            6.84555664610731       -0.96089534054714       -0.31241312283867
C            7.62471083313567       -1.92847390756587        0.31546734429841
C            8.62668587376726       -1.55702343616842        1.21426688424569
C            9.40423478193058       -2.51769972135707        1.82981041234423
C            9.19653538765165       -3.86239044378142        1.57054991669227
C            8.20318483038304       -4.23781434466080        0.68060723695773
C            7.42553621108706       -3.28502169372441        0.05308478555484
C            5.51610522287187       -1.21291938499732       -0.67581893434647
C            4.66549650826077       -1.94079869739268        0.15576861986012
C            3.34041362513436       -2.11491935453799       -0.18926786110240
C            2.84418723372697       -1.57977553612747       -1.36697322095241
C            3.69119693674016       -0.88169283099127       -2.21011069958533
C            5.01831438445300       -0.70070356049154       -1.87254937503391
C            5.33475495811043        0.72755666196110        1.73852848502799
C            4.14949496263851        0.47238894684068        2.39143570243665
C            2.92460796093901        0.77110332480173        1.78450302075404
C            1.68349235847651        0.47600447360046        2.40513631825201
C            0.50412449779494        0.75055070301507        1.79089993268601
C            0.46381585619393        1.35030824911911        0.50492489408859
C            1.68783928849801        1.70542804256798       -0.11373543540573
C            2.91995813321756        1.39442240948868        0.51321603178074
C           -2.33865876292734       -0.12493983854926        0.56751431660367
C           -1.44594301142694       -1.11960636205311        0.15962901286476
C           -1.73769658987364       -2.46813755137462        0.32277811715672
C           -2.92831518401143       -2.85092260763522        0.90984650978556
C           -3.85216994779590       -1.88504221315221        1.28291208545696
C           -3.60790042814046       -0.52337060103243        1.07449402307179
C           -4.47650946989125       -0.28552524332762       -1.90683658583902
C           -3.83092429694846        0.71786813187535       -2.60060161608073
H           -3.82531183782147        2.79365289992868       -3.13795512913735
H           -5.87811583438883        3.30220560622843       -1.86950663778586
H           -7.03878634090330        1.51812457108603       -0.63192958835220
H           -6.61351113110742       -1.44182008460042       -3.05254389481379
H           -7.03664418633422       -3.60661994536579       -4.12203713766089
H           -7.23449407280706       -5.65624619797785       -2.75508907340700
H           -7.00026292664845       -5.50706942587137       -0.29997890959059
H           -6.56549319765781       -3.35280589862941        0.77398887120264
H           -8.64134750669029       -1.69109775430865        0.53113998564354
H           -9.48269974528641       -1.18244934927305        2.78748868682613
H           -8.07901261534358        0.10654419187621        4.36596017538956
H           -5.83759716029886        0.86005058916243        3.67241171152975
H           -6.25705524648807        2.52846829631550        1.80785622371066
H           -5.73666619697165        4.91265308593080        1.58549680219996
H           -3.46919818641688        5.62137136661887        0.88801819919778
H           -1.76574841234814        3.94100029358390        0.37148233739653
H           -1.66919138711935        2.69304200073685       -1.77581153928941
H            0.45070559411953        3.26299568956487       -2.87812236923477
H            2.90549869082080        3.16248343070754       -2.94787013294433
H            5.03423303262869        2.53813015234243       -1.91160623739342
H            6.62818280545617        3.59854445600431       -0.20737175825013
H            8.83910826901058        3.81913421844487       -1.27930532814424
H           10.12889017017026        1.79308108306831       -1.86232030059852
H            9.18778635527886       -0.43906757526733       -1.40156952416346
H            8.78992239003919       -0.51051862846993        1.42771667978019
H           10.17373844743397       -2.21314167776139        2.52425849734672
H            9.80410406153236       -4.61065385577266        2.05634991256186
H            8.03815717145230       -5.28350396983033        0.46544765702614
H            6.66220330291623       -3.58259617146175       -0.65068469799331
H            5.04577471064336       -2.34404534856447        1.08268885739362
H            2.68505976913464       -2.65894477300713        0.47505673018541
H            1.80407252676269       -1.70771915738465       -1.62629842963071
H            3.31571136561701       -0.47014148164396       -3.13531976781765
H            5.67809372757815       -0.14948528881526       -2.52687645700780
H            6.27330032583628        0.46094229142244        2.20458146828978
H            4.15573997400252        0.01872052717035        3.37202614984205
H            1.69658968992686        0.02403210453978        3.38685542331085
H           -0.43053770371828        0.52418981004996        2.28251507343339
H           -0.50840304783424       -0.83543576840453       -0.29362738204382
H           -1.02457246044614       -3.21139207700365       -0.00203498499482
H           -3.15139448838724       -3.89559783837884        1.06791826653156
H           -4.77750107628841       -2.18616936276138        1.74901228442979
H           -4.08658029058066       -1.29281233477974       -1.90751645625140
H           -2.92748250661498        0.48976588648647       -3.14706065502511

 projected vibrational frequencies (cm⁻¹)
eigval :       -0.00    -0.00     0.00     0.00     0.00     0.00
eigval :        6.17    11.58    12.40    18.24    19.53    25.08
eigval :       31.73    38.72    44.19    52.66    53.88    60.80
eigval :       65.30    66.78    68.27    75.01    77.89    83.83
eigval :       84.53    85.90    91.90   103.01   106.23   116.25
eigval :      122.67   137.77   147.56   157.79   165.63   175.50
eigval :      176.75   192.91   205.68   209.56   220.54   221.68
eigval :      229.03   237.47   243.10   247.73   258.29   282.68
eigval :      284.09   294.87   301.20   319.42   320.59   332.07
eigval :      339.35   354.11   366.07   374.70   379.31   380.34
eigval :      384.25   385.60   386.45   387.14   389.53   398.66
eigval :      402.42   409.87   421.03   428.01   436.15   458.14
eigval :      465.50   466.98   470.24   471.70   473.96   479.30
eigval :      484.59   488.74   496.82   501.47   504.86   520.87
eigval :      526.19   545.16   559.32   571.10   576.58   581.13
eigval :      582.84   583.78   586.26   589.26   592.13   595.72
eigval :      599.38   600.64   603.34   610.63   633.01   642.87
eigval :      645.22   653.48   657.08   657.90   662.35   663.31
eigval :      671.67   676.25   677.78   691.69   696.15   704.36
eigval :      708.47   714.30   717.33   727.65   741.02   749.46
eigval :      754.25   754.64   754.84   758.96   759.56   763.43
eigval :      780.52   783.48   799.99   804.36   812.92   838.17
eigval :      842.44   845.15   848.78   852.82   871.41   871.63
eigval :      874.46   874.56   883.33   885.15   887.34   887.53
eigval :      891.85   892.95   893.64   894.65   895.67   901.09
eigval :      906.98   907.82   908.49   909.02   909.26   911.60
eigval :      913.61   918.70   919.51   921.46   921.71   924.92
eigval :      925.22   925.91   926.32   926.74   927.24   927.35
eigval :      928.80   929.05   929.94   930.85   947.44   956.69
eigval :      985.24   986.33   998.04  1003.34  1004.46  1060.98
eigval :     1081.94  1083.62  1084.95  1086.45  1092.30  1095.10
eigval :     1100.17  1103.47  1105.79  1116.89  1119.57  1120.14
eigval :     1121.32  1123.59  1127.05  1127.92  1145.72  1151.29
eigval :     1162.44  1177.13  1178.78  1178.85  1180.60  1180.92
eigval :     1180.98  1181.36  1183.01  1185.05  1186.80  1189.13
eigval :     1192.03  1193.50  1195.88  1196.43  1198.58  1207.35
eigval :     1215.39  1216.29  1223.44  1235.65  1236.81  1244.80
eigval :     1248.23  1255.17  1268.46  1278.09  1278.79  1280.75
eigval :     1281.03  1284.34  1295.51  1302.24  1306.91  1308.61
eigval :     1310.73  1312.73  1316.92  1321.40  1322.28  1323.64
eigval :     1324.38  1326.31  1328.30  1329.60  1329.92  1339.03
eigval :     1355.18  1371.75  1381.19  1383.70  1391.16  1398.59
eigval :     1409.81  1415.40  1423.08  1425.63  1430.39  1436.67
eigval :     1436.77  1444.29  1445.41  1454.88  1458.75  1460.11
eigval :     1463.75  1470.28  1472.58  1473.54  1476.76  1478.24
eigval :     1492.59  1503.92  1506.90  1529.38  1530.86  1535.32
eigval :     1545.25  1553.59  1555.41  1563.42  1574.24  1575.28
eigval :     1576.05  1578.57  1580.00  1580.73  1585.84  1588.03
eigval :     1592.75  1594.98  1599.28  1600.49  3065.24  3066.96
eigval :     3070.32  3070.37  3073.56  3074.48  3074.73  3074.93
eigval :     3075.21  3075.60  3075.86  3075.86  3076.19  3076.41
eigval :     3076.65  3077.83  3078.31  3078.82  3080.75  3083.26
eigval :     3084.08  3084.22  3084.56  3084.77  3086.87  3086.97
eigval :     3087.76  3088.22  3088.42  3089.07  3089.63  3090.53
eigval :     3090.79  3091.95  3093.94  3095.22  3095.30  3095.83
eigval :     3096.15  3096.28  3096.68  3097.15  3097.54  3100.30

   temp. (K)  partition function   enthalpy   heat capacity  entropy
                                   cal/mol     cal/K/mol   cal/K/mol   J/K/mol
 298.15  VIB  0.473E+25            31823.285    204.141    198.477
         ROT  0.180E+09              888.752      2.981     40.756
         INT  0.851E+33            32712.037    207.122    239.233
         TR   0.246E+29             1481.254      4.968     46.129
         TOT                       34193.2909   212.0898   285.3618  1193.9537

       T/K    H(0)-H(T)+PV         H(T)/Eh          T*S/Eh         G(T)/Eh
   ------------------------------------------------------------------------
    298.15    0.544905E-01    0.921366E+00    0.135585E+00    0.785781E+00
   ------------------------------------------------------------------------

         :::::::::::::::::::::::::::::::::::::::::::::::::::::
         ::                  THERMODYNAMIC                  ::
         :::::::::::::::::::::::::::::::::::::::::::::::::::::
         :: total free energy        -168.836504438715 Eh   ::
         ::.................................................::
         :: total energy             -169.622285417012 Eh   ::
         :: zero point energy           0.866875091041 Eh   ::
         :: G(RRHO) w/o ZPVE           -0.081094112744 Eh   ::
         :: G(RRHO) contrib.            0.785780978297 Eh   ::
         :::::::::::::::::::::::::::::::::::::::::::::::::::::

           -------------------------------------------------
          | TOTAL ENERGY             -169.622285417012 Eh   |
          | TOTAL ENTHALPY           -168.700919848512 Eh   |
          | TOTAL FREE ENERGY        -168.836504438715 Eh   |
          | GRADIENT NORM               0.000198490825 Eh/α |
           -------------------------------------------------

 * finished run on 2025/09/03 at 19:12:31.602
