   * xtb version 6.7.1 (edcfbbe) compiled by 'albert@albert-system' on 2024-07-22

   ID    Z sym.   atoms
    1    6 C      1-8, 10-15, 19-25, 28, 29
    2    7 N      9, 16-18, 26, 27
    3    1 H      30-45

          program call               : xtb data2507/toluene/ICz-2/ICz-2_toluene_T1_crest.xyz --gfn 2 --uhf 2 --gbsa toluene --ohess vtight --parallel 40 --molden --ceasefiles --namespace data2507/toluene/ICz-2/ICz-2_toluene_T1_finalOpt
      * Solvation model:               GBSA
        Solvent                        toluene
        Solvent mass                       9.2140E+01 g/mol
          :  Hamiltonian                  GFN2-xTB          :
 * total energy  :   -74.8814435 Eh     change       -0.4807390E-09 Eh
 * total energy  :   -74.8814810 Eh     change       -0.3745993E-04 Eh
 * total energy  :   -74.8814976 Eh     change       -0.1662374E-04 Eh
 * total energy  :   -74.8815065 Eh     change       -0.8885638E-05 Eh
 * total energy  :   -74.8815174 Eh     change       -0.1089645E-04 Eh
 * total energy  :   -74.8815260 Eh     change       -0.8664177E-05 Eh
 * total energy  :   -74.8815296 Eh     change       -0.3566340E-05 Eh
 * total energy  :   -74.8815316 Eh     change       -0.1964825E-05 Eh
 * total energy  :   -74.8815328 Eh     change       -0.1290843E-05 Eh
 * total energy  :   -74.8815337 Eh     change       -0.8347171E-06 Eh
 * total energy  :   -74.8815362 Eh     change       -0.5981345E-06 Eh
 * total energy  :   -74.8815368 Eh     change       -0.5716355E-06 Eh
 * total energy  :   -74.8815373 Eh     change       -0.5133848E-06 Eh
 * total energy  :   -74.8815377 Eh     change       -0.4287445E-06 Eh
 * total energy  :   -74.8815380 Eh     change       -0.3122121E-06 Eh
 * total energy  :   -74.8815383 Eh     change       -0.2670728E-06 Eh
 * total energy  :   -74.8815385 Eh     change       -0.2140677E-06 Eh
 * total energy  :   -74.8815387 Eh     change       -0.1542167E-06 Eh
 * total energy  :   -74.8815387 Eh     change       -0.3254229E-08 Eh
   *** GEOMETRY OPTIMIZATION CONVERGED AFTER 22 ITERATIONS ***

 final structure:
================
45
 xtb: 6.7.1 (edcfbbe)
C           -3.63698560138726        1.30946437984574       -1.17719394141823
C           -4.42932811547001        0.38207210015791       -0.47330743283756
C           -3.88409663760361       -0.81512448110116       -0.03140723619514
C           -2.56483206022914       -1.14500867881903       -0.26871177342194
C           -1.93979039778220       -2.38022692268108        0.09501926847527
C           -2.63277254561117       -3.54666843528101        0.43194465910878
C           -1.93501494375352       -4.71714180672358        0.66630150428886
C           -0.54886253584116       -4.70013248912592        0.52606843781453
N            0.14167057147922       -3.61418081606864        0.25168573302692
C           -0.51184819965138       -2.45920208371938        0.06831088826598
C            0.27794442618740       -1.26964762044130       -0.08035640004768
C            1.65446186242444       -1.28583139605771       -0.01955198929243
C            2.39222109726222       -0.09961747550369       -0.08096158780263
C            3.82938717835394       -0.08801401656434       -0.08346493934044
C            4.73895701129636       -1.13926674774535       -0.13413295558789
N            5.94584724264886       -0.53027725354259       -0.11810325589868
N            5.79931376870591        0.79217507294568       -0.06222574345742
N            4.55655825946425        1.06449698621923       -0.04277898354825
C            1.66665762369247        1.11141380304751       -0.04448631484341
C            0.29806865372662        1.11996485671853       -0.07452554012425
C           -0.42926763671684        2.34519546349383        0.23151593620861
C           -1.60025483318993        2.30756955452142        1.00188149365107
C           -2.22289254444199        3.49843562934457        1.32184135272600
C           -1.67411734563760        4.68928282783402        0.86456054094548
C           -0.50173300268892        4.62338157360697        0.12422650534602
N            0.10764658473297        3.49540301356341       -0.18345224045993
N           -0.40303179842775       -0.06113954352191       -0.23705929134517
C           -1.66186756714515       -0.18676373868603       -1.00071217916309
C           -2.31810681946826        1.08753256760630       -1.39612488678809
H           -4.08790907191521        2.22715090592816       -1.52489845424565
H           -5.46506020869034        0.60745817496830       -0.27568766281682
H           -4.50830087056520       -1.50030233630320        0.52263082948537
H           -3.71161679412957       -3.54267458462409        0.47356419599393
H           -2.44849660422887       -5.63076053507021        0.92108168883150
H            0.03589964228775       -5.60356299713832        0.64684457811505
H            2.13101614984500       -2.24563849801136        0.09311117024183
H            4.62279132269512       -2.20033917319967       -0.17980614524072
H            6.86176801726376       -0.95274431681798       -0.14255048352062
H            2.19420888153726        2.04416024110012        0.06678866692459
H           -1.97793013853429        1.36582308863317        1.36866796598153
H           -3.12146762253702        3.50010460346407        1.92185721476835
H           -2.13338539419134        5.63973961764909        1.08560217886292
H           -0.02161777747171        5.52086040564500       -0.24553449444777
H           -1.35322450813777       -0.68400560532765       -1.94792262793476
H           -1.71431377435692        1.79373628528256       -1.94543963398384

          :  Hamiltonian                  GFN2-xTB          :
         :: gradient norm              0.000037164900 Eh/a0 ::
         :: HOMO-LUMO gap              0.764222061376 eV    ::
         :: SCC energy               -76.109150933500 Eh    ::
         :: -> dispersion             -0.062434454198 Eh    ::
         :: -> Gsolv                  -0.031192116218 Eh    ::
         :: repulsion energy           1.227612274256 Eh    ::

    * Orbital Energies and Occupations

         #    Occupation            Energy/Eh            Energy/eV
      -------------------------------------------------------------
         1        2.0000           -0.7155123             -19.4701
       ...           ...                  ...                  ...
        58        2.0000           -0.4375461             -11.9062
        59        2.0000           -0.4334840             -11.7957
        60        2.0000           -0.4279749             -11.6458
        61        2.0000           -0.4190958             -11.4042
        62        2.0000           -0.4124897             -11.2244
        63        2.0000           -0.4028255             -10.9614
        64        2.0000           -0.3986957             -10.8491
        65        2.0000           -0.3958063             -10.7704
        66        2.0000           -0.3791459             -10.3171
        67        2.0000           -0.3710108             -10.0957
        68        2.0000           -0.3696666             -10.0591
        69        1.0000           -0.3302985              -8.9879
        70        1.0000           -0.2997837              -8.1575 (HOMO)
        71        0.0000           -0.2716991              -7.3933 (LUMO)
        72                         -0.2572172              -6.9992
        73                         -0.2446993              -6.6586
        74                         -0.2383800              -6.4866
        75                         -0.2356031              -6.4111
        76                         -0.2063789              -5.6159
        77                         -0.1961034              -5.3362
        78                         -0.1776469              -4.8340
        79                         -0.1472385              -4.0066
        80                         -0.1122547              -3.0546
        81                         -0.1016555              -2.7662
       ...                                ...                  ...
       132                          0.6782688              18.4566
      -------------------------------------------------------------
                  HL-Gap            0.0280846 Eh            0.7642 eV

     #   Z          covCN         q      C6AA      α(0)
     1   6 C        2.903    -0.028    28.703     8.784
     2   6 C        2.914    -0.035    28.879     8.812
     3   6 C        2.906    -0.034    28.851     8.807
     4   6 C        2.968    -0.009    28.228     8.715
     5   6 C        2.974    -0.015    28.390     8.740
     6   6 C        2.925    -0.024    28.594     8.769
     7   6 C        2.909    -0.052    29.287     8.874
     8   6 C        2.899     0.059    26.683     8.469
     9   7 N        1.841    -0.266    27.752     7.807
    10   6 C        2.964     0.074    26.336     8.418
    11   6 C        2.931     0.039    27.135     8.543
    12   6 C        2.921    -0.045    29.118     8.849
    13   6 C        2.969    -0.005    28.147     8.702
    14   6 C        3.104     0.057    26.592     8.450
    15   6 C        2.958    -0.018    28.462     8.750
    16   7 N        2.963     0.003    21.207     6.840
    17   7 N        2.147    -0.111    23.946     7.261
    18   7 N        2.063    -0.180    25.579     7.502
    19   6 C        2.926    -0.039    28.966     8.826
    20   6 C        2.915     0.049    26.894     8.504
    21   6 C        2.964     0.091    25.982     8.361
    22   6 C        2.918    -0.043    29.056     8.839
    23   6 C        2.926    -0.014    28.358     8.733
    24   6 C        2.914    -0.045    29.110     8.847
    25   6 C        2.904     0.062    26.621     8.460
    26   7 N        1.842    -0.251    27.391     7.756
    27   7 N        2.750    -0.064    22.482     7.042
    28   6 C        3.814     0.047    19.780     6.330
    29   6 C        2.903    -0.042    29.033     8.835
    30   1 H        0.926     0.042     2.423     2.434
    31   1 H        0.926     0.043     2.408     2.427
    32   1 H        0.926     0.044     2.401     2.423
    33   1 H        0.926     0.038     2.479     2.462
    34   1 H        0.926     0.034     2.529     2.487
    35   1 H        0.925     0.030     2.589     2.516
    36   1 H        0.926     0.062     2.171     2.304
    37   1 H        0.927     0.044     2.391     2.418
    38   1 H        0.860     0.167     1.290     1.779
    39   1 H        0.926     0.077     2.008     2.216
    40   1 H        0.926     0.037     2.488     2.467
    41   1 H        0.926     0.042     2.419     2.432
    42   1 H        0.926     0.043     2.414     2.430
    43   1 H        0.925     0.039     2.463     2.454
    44   1 H        0.921     0.058     2.218     2.329
    45   1 H        0.926     0.037     2.485     2.465

molecular dipole:
                 x           y           z       tot (Debye)
 q only:       -0.811      -0.328      -0.070
   full:       -1.353      -1.052       0.066       4.360

 projected vibrational frequencies (cm⁻¹)
eigval :       -0.00    -0.00    -0.00    -0.00    -0.00     0.00
eigval :       23.95    41.86    50.66    53.68    58.55    66.65
eigval :       87.30   102.71   117.79   141.12   173.47   203.94
eigval :      220.89   227.22   252.43   259.89   267.84   281.77
eigval :      304.11   353.07   373.17   397.28   402.54   405.54
eigval :      425.62   440.34   467.54   492.80   507.69   532.21
eigval :      558.45   576.50   592.36   597.05   606.65   609.12
eigval :      612.62   622.48   647.36   667.28   700.76   704.93
eigval :      710.22   720.84   735.11   740.40   759.49   771.25
eigval :      771.73   803.23   826.71   842.63   852.25   874.73
eigval :      880.61   887.65   890.31   893.00   908.31   909.25
eigval :      928.68   930.40   932.91   968.06   974.04   994.41
eigval :     1031.60  1042.37  1054.22  1068.76  1087.45  1090.43
eigval :     1097.89  1106.19  1117.33  1120.01  1132.17  1140.88
eigval :     1161.52  1166.24  1177.88  1200.35  1210.99  1216.48
eigval :     1229.99  1248.42  1254.81  1262.21  1286.66  1289.03
eigval :     1290.05  1304.77  1320.70  1330.91  1342.63  1354.48
eigval :     1362.40  1371.91  1383.18  1386.22  1402.84  1414.78
eigval :     1427.19  1434.63  1449.60  1482.35  1497.51  1516.74
eigval :     1528.56  1538.20  1555.98  1568.22  1580.41  2692.70
eigval :     3043.96  3048.63  3071.56  3077.32  3077.62  3083.16
eigval :     3090.44  3092.87  3096.01  3097.29  3104.86  3120.70
eigval :     3123.45  3198.79  3430.08

   temp. (K)  partition function   enthalpy   heat capacity  entropy
                                   cal/mol     cal/K/mol   cal/K/mol   J/K/mol
 298.15  VIB  0.229E+09            12220.855     81.196     74.492
         ROT  0.158E+08              888.752      2.981     35.927
         INT  0.362E+16            13109.607     84.177    110.419
         TR   0.707E+28             1481.254      4.968     43.649
         TOT                       14590.8610    89.1449   154.0679   644.6203

       T/K    H(0)-H(T)+PV         H(T)/Eh          T*S/Eh         G(T)/Eh
   ------------------------------------------------------------------------
    298.15    0.232520E-01    0.355461E+00    0.732027E-01    0.282259E+00
   ------------------------------------------------------------------------

         :::::::::::::::::::::::::::::::::::::::::::::::::::::
         ::                  THERMODYNAMIC                  ::
         :::::::::::::::::::::::::::::::::::::::::::::::::::::
         :: total free energy         -74.599280038492 Eh   ::
         ::.................................................::
         :: total energy              -74.881538658166 Eh   ::
         :: zero point energy           0.332209254180 Eh   ::
         :: G(RRHO) w/o ZPVE           -0.049950634506 Eh   ::
         :: G(RRHO) contrib.            0.282258619674 Eh   ::
         :::::::::::::::::::::::::::::::::::::::::::::::::::::

           -------------------------------------------------
          | TOTAL ENERGY              -74.881538658166 Eh   |
          | TOTAL ENTHALPY            -74.526077386896 Eh   |
          | TOTAL FREE ENERGY         -74.599280038492 Eh   |
          | GRADIENT NORM               0.000037174151 Eh/α |
          | HOMO-LUMO GAP               0.764222012203 eV   |
           -------------------------------------------------

 * finished run on 2025/09/08 at 22:12:39.824
