   * xtb version 6.7.1 (edcfbbe) compiled by 'albert@albert-system' on 2024-07-22

   ID    Z sym.   atoms
    1    6 C      1-8, 10-15, 19-25, 28, 29
    2    7 N      9, 16-18, 26, 27
    3    1 H      30-45

          program call               : xtb data2507/toluene/ICz-2/ICz-2.xyz --gfn 2 --gbsa toluene --ohess vtight --parallel 40 --molden --ceasefiles --namespace data2507/toluene/ICz-2/ICz-2_toluene_S0_preOpt
      * Solvation model:               GBSA
        Solvent                        toluene
        Solvent mass                       9.2140E+01 g/mol
          :  Hamiltonian                  GFN2-xTB          :
 * total energy  :   -74.9250009 Eh     change       -0.8794672E-09 Eh
 * total energy  :   -74.9352826 Eh     change       -0.1028171E-01 Eh
 * total energy  :   -74.9376646 Eh     change       -0.2382009E-02 Eh
 * total energy  :   -74.9379617 Eh     change       -0.2970675E-03 Eh
 * total energy  :   -74.9382242 Eh     change       -0.2624878E-03 Eh
 * total energy  :   -74.9384159 Eh     change       -0.1917629E-03 Eh
 * total energy  :   -74.9387160 Eh     change       -0.3000568E-03 Eh
 * total energy  :   -74.9391000 Eh     change       -0.3839960E-03 Eh
 * total energy  :   -74.9394470 Eh     change       -0.3469885E-03 Eh
 * total energy  :   -74.9397115 Eh     change       -0.2645201E-03 Eh
 * total energy  :   -74.9405460 Eh     change       -0.2473399E-05 Eh
 * total energy  :   -74.9405484 Eh     change       -0.2323225E-05 Eh
 * total energy  :   -74.9405505 Eh     change       -0.2155094E-05 Eh
 * total energy  :   -74.9405525 Eh     change       -0.2001394E-05 Eh
 * total energy  :   -74.9405544 Eh     change       -0.1901480E-05 Eh
 * total energy  :   -74.9405563 Eh     change       -0.1844923E-05 Eh
 * total energy  :   -74.9405581 Eh     change       -0.1849397E-05 Eh
 * total energy  :   -74.9405600 Eh     change       -0.1928606E-05 Eh
 * total energy  :   -74.9405601 Eh     change       -0.1051627E-07 Eh
   *** GEOMETRY OPTIMIZATION CONVERGED AFTER 68 ITERATIONS ***

 final structure:
================
45
 xtb: 6.7.1 (edcfbbe)
C           -2.95009567728741        1.88410958403112       -1.89698525210770
C           -3.63321267121769        1.64883835863621       -0.71609186415171
C           -3.41631318826703        0.47974930257676       -0.00809615928171
C           -2.50420546920698       -0.46404763651915       -0.46946115103692
C           -2.29833183852285       -1.72233309524713        0.26406582510271
C           -3.38301158492442       -2.54126799133563        0.56795023288349
C           -3.17204860278825       -3.75918262376744        1.19098320918038
C           -1.86498510335230       -4.12935876251038        1.47187719238039
N           -0.82602668044755       -3.35759911999966        1.21413408425574
C           -1.02376027858049       -2.17302809461887        0.64484741793669
C            0.18017314673455       -1.34313745794537        0.45918723976637
C            1.40700173437362       -1.93997655918024        0.18239854532636
C            2.52213284305240       -1.12484320108428       -0.00008426593623
C            3.81343008368823       -1.71174220253056       -0.31210385283497
C            5.05637385073317       -1.11503692935947       -0.45990013314055
N            5.88130460553439       -2.14345065819021       -0.74798990318215
N            5.20116846421371       -3.28889238418324       -0.77845064068921
N            3.98105508481341       -3.04390674172728       -0.52168291293251
C            2.35553554074912        0.25286208983913        0.11654452792567
C            1.09155645276330        0.75434441838048        0.41893740373346
C            0.87452590726227        2.20139845739125        0.56320762615827
C           -0.39220115433073        2.70264485092143        0.86656936508416
C           -0.55454907002852        4.07034304498932        0.98907665063854
C            0.54723874895147        4.89392713256340        0.80788201046745
C            1.76431935187912        4.29890782223052        0.50941061118333
N            1.93147541925961        2.99487455719818        0.38928058806076
N            0.03018074214526       -0.02939873618496        0.58405305231654
C           -1.82843254323418       -0.22405740546928       -1.66322565926923
C           -2.04972453230237        0.94270866480175       -2.36971378073407
H           -3.11869839815049        2.79662355681793       -2.44975294988506
H           -4.33781330677746        2.37862962817926       -0.34399233467989
H           -3.94162595082547        0.30184406203045        0.91963166818804
H           -4.38048346936692       -2.22539945200723        0.29635256848732
H           -3.99569682753148       -4.41017356651130        1.43890618795563
H           -1.63197432545989       -5.08149734152200        1.93082666298741
H            1.49049879586375       -3.01112760066294        0.10507809034064
H            5.39073682935405       -0.10301877035600       -0.38162965643071
H            6.87515965984709       -2.12101823100047       -0.92536795701292
H            3.16947507836402        0.94571627603791       -0.01675737204317
H           -1.20948702733825        2.01126688096976        0.98812252507686
H           -1.52273291270580        4.48911309357786        1.22229788768801
H            0.46702346577223        5.96621717706187        0.89445735596586
H            2.65644343704714        4.89405763471937        0.35738523371655
H           -1.13278413311363       -0.96243419459210       -2.03780360058851
H           -1.51861549664563        1.11775216354917       -3.29437331688042

          :  Hamiltonian                  GFN2-xTB          :
         :: gradient norm              0.000067196245 Eh/a0 ::
         :: HOMO-LUMO gap              2.347114325489 eV    ::
         :: SCC energy               -76.205553092194 Eh    ::
         :: -> dispersion             -0.059353499217 Eh    ::
         :: -> Gsolv                  -0.034139613283 Eh    ::
         :: repulsion energy           1.264993034233 Eh    ::

    * Orbital Energies and Occupations

         #    Occupation            Energy/Eh            Energy/eV
      -------------------------------------------------------------
         1        2.0000           -0.7288914             -19.8341
       ...           ...                  ...                  ...
        57        2.0000           -0.4355650             -11.8523
        58        2.0000           -0.4278467             -11.6423
        59        2.0000           -0.4258044             -11.5867
        60        2.0000           -0.4246328             -11.5548
        61        2.0000           -0.4188092             -11.3964
        62        2.0000           -0.4119233             -11.2090
        63        2.0000           -0.4070236             -11.0757
        64        2.0000           -0.4031327             -10.9698
        65        2.0000           -0.3948205             -10.7436
        66        2.0000           -0.3912977             -10.6478
        67        2.0000           -0.3831585             -10.4263
        68        2.0000           -0.3742924             -10.1850
        69        2.0000           -0.3670876              -9.9890 (HOMO)
        70                         -0.2808328              -7.6418 (LUMO)
        71                         -0.2746279              -7.4730
        72                         -0.2550599              -6.9405
        73                         -0.2503770              -6.8131
        74                         -0.2486086              -6.7650
        75                         -0.2417194              -6.5775
        76                         -0.2255001              -6.1362
        77                         -0.2158229              -5.8728
        78                         -0.2015778              -5.4852
        79                         -0.1720411              -4.6815
        80                         -0.1203662              -3.2753
       ...                                ...                  ...
       132                          0.6783514              18.4589
      -------------------------------------------------------------
                  HL-Gap            0.0862548 Eh            2.3471 eV

     #   Z          covCN         q      C6AA      α(0)
     1   6 C        2.920    -0.031    28.783     8.798
     2   6 C        2.919    -0.029    28.728     8.789
     3   6 C        2.925    -0.032    28.806     8.802
     4   6 C        2.977     0.017    27.631     8.622
     5   6 C        2.974     0.003    27.944     8.671
     6   6 C        2.933    -0.019    28.473     8.751
     7   6 C        2.911    -0.041    29.021     8.834
     8   6 C        2.903     0.058    26.690     8.471
     9   7 N        1.844    -0.249    27.334     7.748
    10   6 C        2.967     0.090    26.005     8.365
    11   6 C        2.961     0.099    25.806     8.332
    12   6 C        2.924    -0.042    29.042     8.838
    13   6 C        2.977     0.023    27.492     8.601
    14   6 C        3.115     0.056    26.581     8.445
    15   6 C        2.962    -0.011    28.286     8.724
    16   7 N        2.970     0.010    21.084     6.820
    17   7 N        2.155    -0.102    23.749     7.231
    18   7 N        2.067    -0.168    25.310     7.463
    19   6 C        2.922    -0.053    29.311     8.878
    20   6 C        2.960     0.092    25.962     8.357
    21   6 C        2.968     0.090    25.990     8.362
    22   6 C        2.918    -0.039    28.964     8.825
    23   6 C        2.927    -0.011    28.282     8.721
    24   6 C        2.914    -0.040    28.996     8.830
    25   6 C        2.906     0.060    26.649     8.465
    26   7 N        1.842    -0.252    27.414     7.759
    27   7 N        1.850    -0.267    27.798     7.814
    28   6 C        2.925    -0.028    28.697     8.785
    29   6 C        2.919    -0.030    28.737     8.791
    30   1 H        0.926     0.035     2.511     2.478
    31   1 H        0.926     0.038     2.470     2.458
    32   1 H        0.926     0.036     2.507     2.476
    33   1 H        0.926     0.047     2.353     2.399
    34   1 H        0.926     0.048     2.346     2.395
    35   1 H        0.925     0.042     2.427     2.436
    36   1 H        0.926     0.069     2.092     2.262
    37   1 H        0.927     0.056     2.252     2.347
    38   1 H        0.860     0.174     1.252     1.753
    39   1 H        0.926     0.058     2.227     2.334
    40   1 H        0.926     0.056     2.242     2.342
    41   1 H        0.926     0.048     2.344     2.394
    42   1 H        0.926     0.048     2.348     2.396
    43   1 H        0.925     0.040     2.448     2.447
    44   1 H        0.925     0.019     2.746     2.591
    45   1 H        0.926     0.031     2.567     2.505

molecular dipole:
                 x           y           z       tot (Debye)
 q only:        0.149       0.947      -0.208
   full:        0.193       1.612      -0.257       4.178

 projected vibrational frequencies (cm⁻¹)
eigval :       -0.00    -0.00    -0.00     0.00     0.00     0.00
eigval :       -9.51    18.33    26.81    39.82    54.26    61.64
eigval :       67.05    68.24    89.93   102.74   113.91   152.71
eigval :      192.22   216.64   220.87   235.74   267.03   275.13
eigval :      293.81   332.74   340.38   364.23   374.86   383.57
eigval :      414.16   429.75   452.12   498.27   529.47   555.13
eigval :      565.45   588.52   591.49   596.10   611.92   616.48
eigval :      626.53   646.23   669.55   671.25   701.08   711.54
eigval :      719.29   739.83   744.66   759.51   767.70   779.39
eigval :      791.41   802.59   842.52   853.18   876.09   884.89
eigval :      895.60   900.69   909.33   913.95   921.42   928.73
eigval :      930.42   932.07   939.20   962.72   975.01  1003.86
eigval :     1009.96  1037.43  1046.74  1081.12  1086.97  1089.61
eigval :     1091.59  1108.61  1115.93  1120.84  1129.62  1136.85
eigval :     1146.93  1158.47  1180.62  1197.05  1201.36  1222.20
eigval :     1226.08  1247.81  1266.71  1274.21  1283.44  1286.08
eigval :     1290.10  1301.68  1315.79  1320.22  1366.15  1373.36
eigval :     1392.83  1405.81  1414.39  1425.56  1428.71  1434.16
eigval :     1449.69  1483.95  1524.98  1535.78  1548.18  1554.40
eigval :     1562.75  1569.32  1576.83  1581.40  1598.48  3044.69
eigval :     3053.02  3064.03  3068.63  3070.86  3073.97  3075.96
eigval :     3078.48  3089.60  3096.13  3096.67  3118.58  3120.03
eigval :     3124.35  3197.11  3423.43

   temp. (K)  partition function   enthalpy   heat capacity  entropy
                                   cal/mol     cal/K/mol   cal/K/mol   J/K/mol
 298.15  VIB  0.196E+11            12709.031     79.482     80.386
         ROT  0.167E+08              888.752      2.981     36.034
         INT  0.328E+18            13597.784     82.462    116.419
         TR   0.707E+28             1481.254      4.968     43.649
         TOT                       15079.0376    87.4306   160.0687   669.7274

       T/K    H(0)-H(T)+PV         H(T)/Eh          T*S/Eh         G(T)/Eh
   ------------------------------------------------------------------------
    298.15    0.240300E-01    0.357890E+00    0.760538E-01    0.281836E+00
   ------------------------------------------------------------------------

         :::::::::::::::::::::::::::::::::::::::::::::::::::::
         ::                  THERMODYNAMIC                  ::
         :::::::::::::::::::::::::::::::::::::::::::::::::::::
         :: total free energy         -74.658723929949 Eh   ::
         ::.................................................::
         :: total energy              -74.940560057212 Eh   ::
         :: zero point energy           0.333859955390 Eh   ::
         :: G(RRHO) w/o ZPVE           -0.052023828127 Eh   ::
         :: G(RRHO) contrib.            0.281836127263 Eh   ::
         :::::::::::::::::::::::::::::::::::::::::::::::::::::

           -------------------------------------------------
          | TOTAL ENERGY              -74.940560057212 Eh   |
          | TOTAL ENTHALPY            -74.582670125782 Eh   |
          | TOTAL FREE ENERGY         -74.658723929949 Eh   |
          | GRADIENT NORM               0.000067195267 Eh/α |
          | HOMO-LUMO GAP               2.347113831743 eV   |
           -------------------------------------------------

 * finished run on 2025/09/08 at 22:10:35.703
