   * xtb version 6.7.1 (edcfbbe) compiled by 'albert@albert-system' on 2024-07-22

   ID    Z sym.   atoms
    1    6 C      1-8, 10-15, 19-25, 28, 29
    2    7 N      9, 16-18, 26, 27
    3    1 H      30-45

          program call               : xtb data2507/toluene/ICz-2/ICz-2_toluene_S0_finalOpt.xtbopt.xyz --gfn 2 --uhf 2 --gbsa toluene --ohess vtight --parallel 40 --molden --ceasefiles --namespace data2507/toluene/ICz-2/ICz-2_toluene_T1_preOpt
      * Solvation model:               GBSA
        Solvent                        toluene
        Solvent mass                       9.2140E+01 g/mol
          :  Hamiltonian                  GFN2-xTB          :
 * total energy  :   -74.8476221 Eh     change       -0.4597212E-10 Eh
 * total energy  :   -74.8510996 Eh     change       -0.3477523E-02 Eh
 * total energy  :   -74.8523234 Eh     change       -0.1223828E-02 Eh
 * total energy  :   -74.8525290 Eh     change       -0.2055362E-03 Eh
 * total energy  :   -74.8527483 Eh     change       -0.2193519E-03 Eh
 * total energy  :   -74.8528696 Eh     change       -0.1213013E-03 Eh
 * total energy  :   -74.8530157 Eh     change       -0.1460440E-03 Eh
 * total energy  :   -74.8531896 Eh     change       -0.1739864E-03 Eh
 * total energy  :   -74.8534476 Eh     change       -0.2579677E-03 Eh
 * total energy  :   -74.8538379 Eh     change       -0.3902769E-03 Eh
 * total energy  :   -74.8812309 Eh     change       -0.3361804E-06 Eh
 * total energy  :   -74.8812312 Eh     change       -0.3201534E-06 Eh
 * total energy  :   -74.8812315 Eh     change       -0.2990767E-06 Eh
 * total energy  :   -74.8812318 Eh     change       -0.2778398E-06 Eh
 * total energy  :   -74.8812320 Eh     change       -0.2586552E-06 Eh
 * total energy  :   -74.8812323 Eh     change       -0.2413746E-06 Eh
 * total energy  :   -74.8812325 Eh     change       -0.2275416E-06 Eh
 * total energy  :   -74.8812327 Eh     change       -0.2151239E-06 Eh
 * total energy  :   -74.8812327 Eh     change       -0.3718853E-08 Eh
   *** GEOMETRY OPTIMIZATION CONVERGED AFTER 94 ITERATIONS ***

 final structure:
================
45
 xtb: 6.7.1 (edcfbbe)
C           -3.70357418194300        1.06037639321327       -1.30559545143497
C           -4.44420397975009        0.10574580465946       -0.58155369391303
C           -3.82699142908237       -1.03406492327791       -0.08648014403080
C           -2.48447436416784       -1.28234851093266       -0.29236846779041
C           -1.78336055066004       -2.45810047996917        0.12487901559200
C           -2.40338624058047       -3.65408996529336        0.50208389902980
C           -1.63442401500261       -4.76622115886428        0.78681454436431
C           -0.25013941057937       -4.66497718270393        0.65533991680332
N            0.36948836235665       -3.54746481422995        0.34457733117652
C           -0.35349151263957       -2.44631451818841        0.11254793300999
C            0.36211465249934       -1.21413476917792       -0.07695248520488
C            1.73396526772726       -1.13678933587269       -0.02029863582988
C            2.39236801131795        0.09581199581170       -0.12553150511471
C            3.82772867423811        0.16498245569753       -0.14321661413503
C            4.67488119149731        1.26370645394607       -0.24440237741614
N            5.91506139676026        0.72574102798975       -0.21938931626884
N            5.84502603017305       -0.60012849059048       -0.11323309599876
N            4.62040147119775       -0.94184887421924       -0.06871347616304
C            1.58935052105337        1.25386165949655       -0.12057756172148
C            0.22042582092095        1.17042352437262       -0.14467655616159
C           -0.58192755353600        2.35299344179108        0.12827887529546
C           -1.77496396227364        2.25797259054623        0.86019913234463
C           -2.47797347526948        3.41351510547778        1.13820518289858
C           -1.98562781866174        4.62891962907849        0.67968442701338
C           -0.78356237618747        4.62304365457735       -0.01385879102712
N           -0.09646964242126        3.52986243598018       -0.28222019681182
N           -0.39903565781021       -0.05876177479478       -0.27420576617253
C           -1.63637605365291       -0.29269694214311       -1.04764528994408
C           -2.36904367573959        0.92131379606584       -1.49525477605737
H           -4.20896326346961        1.93321485298338       -1.69193839962062
H           -5.49631103622252        0.26660821970867       -0.40890266527163
H           -4.41304199768686       -1.73944026038452        0.48348633173051
H           -3.48065971374851       -3.71795693875068        0.53472758292688
H           -2.09044231354197       -5.70075902469576        1.07334707682290
H            0.39118158773608       -5.52276354719743        0.81336534353569
H            2.29988934918648       -2.04318715666118        0.11524971294891
H            4.49867851970203        2.31407385605115       -0.32919450450279
H            6.80454901315503        1.19906577556270       -0.27139031435599
H            2.02592417375750        2.23508395659522       -0.03097053619135
H           -2.10549365762020        1.30140140131952        1.23349111188327
H           -3.39521115422257        3.37041309371396        1.70752360723783
H           -2.50904560809051        5.55307024842223        0.86676107977135
H           -0.34385969731316        5.54353156242541       -0.37810213838027
H           -1.28294014630139       -0.80102865464827       -1.97308829184302
H           -1.80352056693787        1.64812118088794       -2.05855274058979

          :  Hamiltonian                  GFN2-xTB          :
         :: gradient norm              0.000043322549 Eh/a0 ::
         :: HOMO-LUMO gap              0.756184262812 eV    ::
         :: SCC energy               -76.108616679606 Eh    ::
         :: -> dispersion             -0.062427802163 Eh    ::
         :: -> Gsolv                  -0.031234279109 Eh    ::
         :: repulsion energy           1.227383975549 Eh    ::

    * Orbital Energies and Occupations

         #    Occupation            Energy/Eh            Energy/eV
      -------------------------------------------------------------
         1        2.0000           -0.7153294             -19.4651
       ...           ...                  ...                  ...
        58        2.0000           -0.4377423             -11.9116
        59        2.0000           -0.4342050             -11.8153
        60        2.0000           -0.4278476             -11.6423
        61        2.0000           -0.4187960             -11.3960
        62        2.0000           -0.4123140             -11.2196
        63        2.0000           -0.4032936             -10.9742
        64        2.0000           -0.3987714             -10.8511
        65        2.0000           -0.3951345             -10.7522
        66        2.0000           -0.3787624             -10.3066
        67        2.0000           -0.3744191             -10.1885
        68        2.0000           -0.3664858              -9.9726
        69        1.0000           -0.3299986              -8.9797
        70        1.0000           -0.3001598              -8.1678 (HOMO)
        71        0.0000           -0.2723705              -7.4116 (LUMO)
        72                         -0.2565665              -6.9815
        73                         -0.2459485              -6.6926
        74                         -0.2389146              -6.5012
        75                         -0.2356005              -6.4110
        76                         -0.2058377              -5.6011
        77                         -0.1961187              -5.3367
        78                         -0.1770385              -4.8175
        79                         -0.1470381              -4.0011
        80                         -0.1132936              -3.0829
        81                         -0.1016342              -2.7656
       ...                                ...                  ...
       132                          0.6836411              18.6028
      -------------------------------------------------------------
                  HL-Gap            0.0277893 Eh            0.7562 eV

     #   Z          covCN         q      C6AA      α(0)
     1   6 C        2.903    -0.028    28.706     8.785
     2   6 C        2.914    -0.036    28.887     8.813
     3   6 C        2.906    -0.034    28.849     8.807
     4   6 C        2.968    -0.008    28.218     8.713
     5   6 C        2.974    -0.015    28.382     8.739
     6   6 C        2.925    -0.023    28.586     8.768
     7   6 C        2.909    -0.050    29.250     8.868
     8   6 C        2.900     0.060    26.664     8.467
     9   7 N        1.842    -0.258    27.552     7.779
    10   6 C        2.965     0.076    26.299     8.412
    11   6 C        2.931     0.040    27.096     8.537
    12   6 C        2.922    -0.036    28.896     8.815
    13   6 C        2.969    -0.006    28.158     8.704
    14   6 C        3.103     0.057    26.594     8.450
    15   6 C        2.958    -0.018    28.466     8.751
    16   7 N        2.963     0.002    21.219     6.842
    17   7 N        2.147    -0.110    23.938     7.260
    18   7 N        2.063    -0.179    25.566     7.501
    19   6 C        2.924    -0.047    29.172     8.857
    20   6 C        2.915     0.047    26.936     8.511
    21   6 C        2.963     0.089    26.020     8.367
    22   6 C        2.917    -0.043    29.061     8.840
    23   6 C        2.925    -0.014    28.361     8.733
    24   6 C        2.913    -0.046    29.143     8.852
    25   6 C        2.903     0.061    26.638     8.463
    26   7 N        1.842    -0.258    27.553     7.779
    27   7 N        2.751    -0.066    22.510     7.047
    28   6 C        3.814     0.047    19.779     6.330
    29   6 C        2.903    -0.042    29.035     8.835
    30   1 H        0.926     0.041     2.432     2.439
    31   1 H        0.926     0.043     2.411     2.428
    32   1 H        0.926     0.044     2.395     2.420
    33   1 H        0.926     0.039     2.462     2.454
    34   1 H        0.926     0.036     2.501     2.473
    35   1 H        0.925     0.033     2.539     2.492
    36   1 H        0.926     0.082     1.955     2.186
    37   1 H        0.927     0.044     2.397     2.421
    38   1 H        0.860     0.167     1.290     1.780
    39   1 H        0.926     0.058     2.227     2.333
    40   1 H        0.926     0.037     2.484     2.465
    41   1 H        0.926     0.041     2.431     2.438
    42   1 H        0.926     0.041     2.435     2.440
    43   1 H        0.925     0.036     2.502     2.474
    44   1 H        0.921     0.058     2.219     2.330
    45   1 H        0.926     0.036     2.506     2.475

molecular dipole:
                 x           y           z       tot (Debye)
 q only:       -0.888       1.095      -0.122
   full:       -1.476       1.763      -0.030       5.844

 projected vibrational frequencies (cm⁻¹)
eigval :       -0.00     0.00     0.00     0.00     0.00     0.00
eigval :       26.36    43.43    53.85    56.95    64.73    67.37
eigval :       91.16   102.67   119.89   139.17   174.90   207.12
eigval :      222.88   228.36   255.46   257.52   269.77   280.78
eigval :      306.04   354.85   376.32   397.07   403.41   407.17
eigval :      424.31   440.89   467.96   492.69   507.16   533.61
eigval :      558.54   576.64   592.33   597.02   607.90   608.93
eigval :      612.05   622.17   646.90   665.31   701.99   705.97
eigval :      711.68   722.62   732.52   735.57   759.29   770.78
eigval :      775.45   803.37   826.87   836.05   852.04   881.54
eigval :      882.94   887.84   893.28   897.77   909.30   914.13
eigval :      928.36   929.67   932.19   967.64   972.03   992.90
eigval :     1030.00  1040.14  1051.83  1068.30  1086.65  1089.31
eigval :     1091.18  1102.43  1119.03  1125.11  1129.75  1140.77
eigval :     1162.79  1166.52  1173.72  1199.02  1213.61  1219.12
eigval :     1227.20  1247.77  1252.70  1262.21  1286.19  1288.58
eigval :     1290.04  1302.07  1320.68  1327.37  1339.25  1356.14
eigval :     1361.85  1369.64  1382.72  1394.28  1404.85  1410.71
eigval :     1426.28  1433.98  1446.47  1482.03  1498.94  1516.89
eigval :     1526.27  1536.28  1555.41  1568.47  1580.72  2691.86
eigval :     3043.43  3048.48  3072.29  3077.44  3077.55  3083.90
eigval :     3088.86  3094.38  3095.23  3098.62  3104.69  3116.18
eigval :     3128.43  3197.59  3431.04

   temp. (K)  partition function   enthalpy   heat capacity  entropy
                                   cal/mol     cal/K/mol   cal/K/mol   J/K/mol
 298.15  VIB  0.154E+09            12178.397     81.440     74.102
         ROT  0.159E+08              888.752      2.981     35.929
         INT  0.244E+16            13067.149     84.421    110.031
         TR   0.707E+28             1481.254      4.968     43.649
         TOT                       14548.4031    89.3890   153.6800   642.9973

       T/K    H(0)-H(T)+PV         H(T)/Eh          T*S/Eh         G(T)/Eh
   ------------------------------------------------------------------------
    298.15    0.231844E-01    0.355434E+00    0.730183E-01    0.282416E+00
   ------------------------------------------------------------------------

         :::::::::::::::::::::::::::::::::::::::::::::::::::::
         ::                  THERMODYNAMIC                  ::
         :::::::::::::::::::::::::::::::::::::::::::::::::::::
         :: total free energy         -74.598817072603 Eh   ::
         ::.................................................::
         :: total energy              -74.881232700274 Eh   ::
         :: zero point energy           0.332249613880 Eh   ::
         :: G(RRHO) w/o ZPVE           -0.049833986210 Eh   ::
         :: G(RRHO) contrib.            0.282415627671 Eh   ::
         :::::::::::::::::::::::::::::::::::::::::::::::::::::

           -------------------------------------------------
          | TOTAL ENERGY              -74.881232700274 Eh   |
          | TOTAL ENTHALPY            -74.525798730267 Eh   |
          | TOTAL FREE ENERGY         -74.598817072603 Eh   |
          | GRADIENT NORM               0.000043317418 Eh/α |
          | HOMO-LUMO GAP               0.756184363008 eV   |
           -------------------------------------------------

 * finished run on 2025/09/08 at 22:11:40.945
