   * xtb version 6.7.1 (edcfbbe) compiled by 'albert@albert-system' on 2024-07-22

   ID    Z sym.   atoms
    1    6 C      1-8, 10-15, 19-25, 28, 29
    2    7 N      9, 16-18, 26, 27
    3    1 H      30-45

          program call               : xtb data2507/toluene/ICz-2/ICz-2_toluene_S0_crest.xyz --gfn 2 --gbsa toluene --ohess vtight --parallel 40 --molden --ceasefiles --namespace data2507/toluene/ICz-2/ICz-2_toluene_S0_finalOpt
      * Solvation model:               GBSA
        Solvent                        toluene
        Solvent mass                       9.2140E+01 g/mol
          :  Hamiltonian                  GFN2-xTB          :
 * total energy  :   -74.9403350 Eh     change       -0.9540742E-09 Eh
 * total energy  :   -74.9403761 Eh     change       -0.4105478E-04 Eh
 * total energy  :   -74.9404058 Eh     change       -0.2965672E-04 Eh
 * total energy  :   -74.9404288 Eh     change       -0.2309103E-04 Eh
 * total energy  :   -74.9404479 Eh     change       -0.1906975E-04 Eh
 * total energy  :   -74.9404756 Eh     change       -0.2766397E-04 Eh
 * total energy  :   -74.9404818 Eh     change       -0.6250693E-05 Eh
 * total energy  :   -74.9404867 Eh     change       -0.4863280E-05 Eh
 * total energy  :   -74.9404914 Eh     change       -0.4695956E-05 Eh
 * total energy  :   -74.9404954 Eh     change       -0.4059995E-05 Eh
 * total energy  :   -74.9405585 Eh     change       -0.1533537E-06 Eh
 * total energy  :   -74.9405587 Eh     change       -0.1116148E-06 Eh
 * total energy  :   -74.9405588 Eh     change       -0.1070435E-06 Eh
 * total energy  :   -74.9405589 Eh     change       -0.1089531E-06 Eh
 * total energy  :   -74.9405590 Eh     change       -0.1096822E-06 Eh
 * total energy  :   -74.9405591 Eh     change       -0.1286896E-06 Eh
 * total energy  :   -74.9405593 Eh     change       -0.1535489E-06 Eh
 * total energy  :   -74.9405594 Eh     change       -0.1360285E-06 Eh
 * total energy  :   -74.9405595 Eh     change       -0.9054951E-07 Eh
   *** GEOMETRY OPTIMIZATION CONVERGED AFTER 36 ITERATIONS ***

 final structure:
================
45
 xtb: 6.7.1 (edcfbbe)
C           -3.94423749605823        0.71601385117469       -1.81930511341424
C           -4.42342402847398        0.13330758916363       -0.65847417994703
C           -3.70625502433073       -0.87590782485379       -0.04019594183629
C           -2.49485438907028       -1.30711618030236       -0.57191058972226
C           -1.75650736188457       -2.40783876456612        0.06612401932797
C           -2.39298274686065       -3.62486656934285        0.29951178322018
C           -1.68110489878835       -4.68400476694531        0.83480001525993
C           -0.33378035260231       -4.49187166495849        1.10380887974341
N            0.28124328271373       -3.34064011265651        0.91330932699992
C           -0.40265437103547       -2.30933335470209        0.42637663630631
C            0.35173643284253       -1.04786967363206        0.31813747925894
C            1.72344598993895       -1.07871008118616        0.07960631182777
C            2.41654132023538        0.12641528411903       -0.00850143809826
C            3.84679237970903        0.12997532790794       -0.26037933682273
C            4.74198439169078        1.18660310918709       -0.33068712242478
N            5.92812701184552        0.59474757408165       -0.58400838698245
N            5.77856842053031       -0.72677731489439       -0.66630246858555
N            4.55460742931501       -1.00982044580907       -0.47609386044574
C            1.69926700243454        1.30926321559430        0.15066815594249
C            0.33071434045759        1.23767638501658        0.40132018154666
C           -0.45808595221752        2.46456612732556        0.58782320152036
C           -1.83214280153367        2.39873255294889        0.82237542772597
C           -2.53585874942853        3.57728867559929        0.98934442953354
C           -1.85055132975238        4.78172381100110        0.92040169657773
C           -0.48418400148563        4.74182324228971        0.68383929303550
N            0.19786225396561        3.62336752394335        0.52102586003336
N           -0.32463805384456        0.08332496815151        0.48356741056847
C           -2.02482084742486       -0.72263336945303       -1.74505263530732
C           -2.74471929232184        0.28300885019168       -2.36166449322825
H           -4.50285805074300        1.50442612349651       -2.30203231983500
H           -5.35909947882403        0.46532263111877       -0.23208538063110
H           -4.07480473336664       -1.32277518129521        0.87238320244993
H           -3.43679027140727       -3.73617991756484        0.04151047287221
H           -2.15278694467620       -5.63523642910819        1.02538205371628
H            0.28503191666696       -5.28844824953326        1.49639096559175
H            2.23796981319407       -2.01828169213563       -0.03264106707576
H            4.62889222552406        2.24377422499802       -0.22258754705216
H            6.83296839608321        1.02642176367371       -0.70474264670206
H            2.16494512279132        2.27876877004120        0.09148786384800
H           -2.30802787015674        1.43294803613748        0.85905965624558
H           -3.60069498647972        3.55908013631632        1.17075762427260
H           -2.35857741181474        5.72513797496253        1.04540669893287
H            0.10015198092516        5.65159592968139        0.62031991114563
H           -1.09440249922238       -1.06727714848837       -2.17474869001068
H           -2.36950886365862        0.72996807310643       -3.27112552147860

          :  Hamiltonian                  GFN2-xTB          :
         :: gradient norm              0.000037879345 Eh/a0 ::
         :: HOMO-LUMO gap              2.340677363753 eV    ::
         :: SCC energy               -76.205379154385 Eh    ::
         :: -> dispersion             -0.059369918358 Eh    ::
         :: -> Gsolv                  -0.034037745856 Eh    ::
         :: repulsion energy           1.264819660700 Eh    ::

    * Orbital Energies and Occupations

         #    Occupation            Energy/Eh            Energy/eV
      -------------------------------------------------------------
         1        2.0000           -0.7287127             -19.8293
       ...           ...                  ...                  ...
        57        2.0000           -0.4353595             -11.8467
        58        2.0000           -0.4276901             -11.6380
        59        2.0000           -0.4257141             -11.5843
        60        2.0000           -0.4244546             -11.5500
        61        2.0000           -0.4186864             -11.3930
        62        2.0000           -0.4117307             -11.2038
        63        2.0000           -0.4069271             -11.0731
        64        2.0000           -0.4030859             -10.9685
        65        2.0000           -0.3946696             -10.7395
        66        2.0000           -0.3910760             -10.6417
        67        2.0000           -0.3830151             -10.4224
        68        2.0000           -0.3741958             -10.1824
        69        2.0000           -0.3667788              -9.9806 (HOMO)
        70                         -0.2807605              -7.6399 (LUMO)
        71                         -0.2750819              -7.4854
        72                         -0.2548831              -6.9357
        73                         -0.2502952              -6.8109
        74                         -0.2484337              -6.7602
        75                         -0.2414669              -6.5706
        76                         -0.2254065              -6.1336
        77                         -0.2158476              -5.8735
        78                         -0.2008759              -5.4661
        79                         -0.1716997              -4.6722
        80                         -0.1202312              -3.2717
       ...                                ...                  ...
       132                          0.6787611              18.4700
      -------------------------------------------------------------
                  HL-Gap            0.0860183 Eh            2.3407 eV

     #   Z          covCN         q      C6AA      α(0)
     1   6 C        2.920    -0.031    28.779     8.797
     2   6 C        2.919    -0.029    28.729     8.789
     3   6 C        2.925    -0.033    28.810     8.802
     4   6 C        2.977     0.017    27.625     8.621
     5   6 C        2.974     0.004    27.941     8.671
     6   6 C        2.934    -0.019    28.474     8.751
     7   6 C        2.911    -0.041    29.020     8.833
     8   6 C        2.902     0.058    26.688     8.471
     9   7 N        1.845    -0.249    27.335     7.748
    10   6 C        2.966     0.089    26.019     8.367
    11   6 C        2.961     0.098    25.816     8.334
    12   6 C        2.925    -0.042    29.044     8.838
    13   6 C        2.977     0.023    27.494     8.601
    14   6 C        3.115     0.056    26.582     8.445
    15   6 C        2.962    -0.011    28.286     8.724
    16   7 N        2.970     0.009    21.087     6.820
    17   7 N        2.155    -0.102    23.749     7.231
    18   7 N        2.067    -0.168    25.305     7.462
    19   6 C        2.923    -0.053    29.311     8.878
    20   6 C        2.960     0.091    25.965     8.358
    21   6 C        2.968     0.090    25.992     8.362
    22   6 C        2.918    -0.039    28.968     8.826
    23   6 C        2.927    -0.011    28.282     8.721
    24   6 C        2.914    -0.040    28.997     8.830
    25   6 C        2.906     0.060    26.649     8.465
    26   7 N        1.842    -0.252    27.417     7.760
    27   7 N        1.849    -0.268    27.800     7.814
    28   6 C        2.924    -0.027    28.682     8.783
    29   6 C        2.919    -0.029    28.732     8.790
    30   1 H        0.926     0.036     2.509     2.477
    31   1 H        0.926     0.038     2.473     2.459
    32   1 H        0.926     0.035     2.513     2.479
    33   1 H        0.926     0.047     2.355     2.400
    34   1 H        0.926     0.048     2.347     2.396
    35   1 H        0.925     0.042     2.428     2.437
    36   1 H        0.926     0.071     2.076     2.253
    37   1 H        0.927     0.055     2.253     2.347
    38   1 H        0.860     0.173     1.252     1.753
    39   1 H        0.926     0.058     2.226     2.333
    40   1 H        0.926     0.056     2.241     2.341
    41   1 H        0.926     0.048     2.346     2.395
    42   1 H        0.926     0.048     2.350     2.397
    43   1 H        0.925     0.040     2.450     2.448
    44   1 H        0.925     0.020     2.739     2.588
    45   1 H        0.926     0.031     2.566     2.505

molecular dipole:
                 x           y           z       tot (Debye)
 q only:       -0.248       0.923      -0.157
   full:       -0.485       1.548      -0.181       4.149

 projected vibrational frequencies (cm⁻¹)
eigval :       -0.00    -0.00    -0.00     0.00     0.00     0.00
eigval :       11.05    31.78    40.10    49.91    53.99    63.18
eigval :       66.04    68.91    82.61   101.78   115.17   152.78
eigval :      190.38   215.36   221.94   234.31   267.25   275.05
eigval :      293.65   332.31   339.31   365.71   371.57   384.78
eigval :      414.26   429.81   451.64   498.09   529.02   554.60
eigval :      565.59   588.44   590.93   596.30   609.98   616.60
eigval :      632.46   646.21   668.17   685.99   700.86   710.38
eigval :      720.06   739.98   744.25   760.33   768.75   777.05
eigval :      791.81   802.24   842.36   853.06   876.82   886.66
eigval :      896.22   899.88   912.06   915.22   919.64   928.73
eigval :      931.08   931.86   936.08   962.58   975.88  1005.40
eigval :     1010.20  1037.75  1047.13  1080.70  1086.72  1089.93
eigval :     1093.39  1109.65  1115.61  1118.45  1127.21  1136.87
eigval :     1145.86  1156.59  1180.04  1195.83  1200.95  1222.96
eigval :     1226.75  1248.03  1267.05  1273.54  1282.56  1286.17
eigval :     1289.04  1301.76  1315.44  1320.56  1365.81  1373.66
eigval :     1392.14  1405.64  1413.65  1425.39  1428.43  1433.24
eigval :     1449.15  1483.33  1524.73  1535.39  1548.12  1554.58
eigval :     1563.11  1569.36  1576.92  1580.98  1598.09  3045.09
eigval :     3053.59  3062.42  3068.34  3070.45  3074.03  3074.83
eigval :     3078.70  3089.38  3096.16  3096.74  3120.01  3121.48
eigval :     3126.39  3198.30  3423.66

   temp. (K)  partition function   enthalpy   heat capacity  entropy
                                   cal/mol     cal/K/mol   cal/K/mol   J/K/mol
 298.15  VIB  0.606E+10            12665.432     79.990     79.907
         ROT  0.168E+08              888.752      2.981     36.046
         INT  0.102E+18            13554.184     82.971    115.953
         TR   0.707E+28             1481.254      4.968     43.649
         TOT                       15035.4384    87.9391   159.6020   667.7747

       T/K    H(0)-H(T)+PV         H(T)/Eh          T*S/Eh         G(T)/Eh
   ------------------------------------------------------------------------
    298.15    0.239605E-01    0.357904E+00    0.758320E-01    0.282072E+00
   ------------------------------------------------------------------------

         :::::::::::::::::::::::::::::::::::::::::::::::::::::
         ::                  THERMODYNAMIC                  ::
         :::::::::::::::::::::::::::::::::::::::::::::::::::::
         :: total free energy         -74.658487521858 Eh   ::
         ::.................................................::
         :: total energy              -74.940559493193 Eh   ::
         :: zero point energy           0.333943523684 Eh   ::
         :: G(RRHO) w/o ZPVE           -0.051871552349 Eh   ::
         :: G(RRHO) contrib.            0.282071971335 Eh   ::
         :::::::::::::::::::::::::::::::::::::::::::::::::::::

           -------------------------------------------------
          | TOTAL ENERGY              -74.940559493193 Eh   |
          | TOTAL ENTHALPY            -74.582655473279 Eh   |
          | TOTAL FREE ENERGY         -74.658487521858 Eh   |
          | GRADIENT NORM               0.000037845455 Eh/α |
          | HOMO-LUMO GAP               2.340676939140 eV   |
           -------------------------------------------------

 * finished run on 2025/09/08 at 22:11:36.262
