   * xtb version 6.7.1 (edcfbbe) compiled by 'albert@albert-system' on 2024-07-22

   ID    Z sym.   atoms
    1    6 C      1-23, 25-37
    2    7 N      24
    3    1 H      38-60

          program call               : xtb data2507/toluene/D1–D6/D1–D6_toluene_T1_crest.xyz --gfn 2 --uhf 2 --gbsa toluene --ohess vtight --parallel 40 --molden --ceasefiles --namespace data2507/toluene/D1–D6/D1–D6_toluene_T1_finalOpt
      * Solvation model:               GBSA
        Solvent                        toluene
        Solvent mass                       9.2140E+01 g/mol
          :  Hamiltonian                  GFN2-xTB          :
 * total energy  :   -91.7286462 Eh     change       -0.1821476E-08 Eh
 * total energy  :   -91.7286678 Eh     change       -0.2160906E-04 Eh
 * total energy  :   -91.7286728 Eh     change       -0.4974751E-05 Eh
 * total energy  :   -91.7286777 Eh     change       -0.4895993E-05 Eh
 * total energy  :   -91.7286820 Eh     change       -0.4264379E-05 Eh
 * total energy  :   -91.7286876 Eh     change       -0.5681609E-05 Eh
 * total energy  :   -91.7286947 Eh     change       -0.7045973E-05 Eh
 * total energy  :   -91.7287008 Eh     change       -0.6162145E-05 Eh
 * total energy  :   -91.7287056 Eh     change       -0.4723050E-05 Eh
 * total energy  :   -91.7287097 Eh     change       -0.4101850E-05 Eh
 * total energy  :   -91.7287236 Eh     change       -0.2214002E-05 Eh
 * total energy  :   -91.7287256 Eh     change       -0.1981992E-05 Eh
 * total energy  :   -91.7287278 Eh     change       -0.2172765E-05 Eh
 * total energy  :   -91.7287300 Eh     change       -0.2203026E-05 Eh
 * total energy  :   -91.7287321 Eh     change       -0.2093780E-05 Eh
 * total energy  :   -91.7287339 Eh     change       -0.1871178E-05 Eh
 * total energy  :   -91.7287355 Eh     change       -0.1554610E-05 Eh
 * total energy  :   -91.7287367 Eh     change       -0.1194889E-05 Eh
 * total energy  :   -91.7287367 Eh     change       -0.6023882E-08 Eh
   *** GEOMETRY OPTIMIZATION CONVERGED AFTER 22 ITERATIONS ***

 final structure:
================
60
 xtb: 6.7.1 (edcfbbe)
C           -2.27106625079666       -3.41509377449699        1.56216435789168
C           -0.93036404604853       -3.18950004748300        1.37649640890083
C           -0.45048860119030       -1.98303284966291        0.78856087095251
C            0.93632839774768       -1.73190603274712        0.60323097487105
C            1.91993786359292       -2.77000030103025        0.65304079619497
C            3.22716384516412       -2.51861118188582        0.42015649099372
C            3.72364346846636       -1.20042058964913        0.12778069428005
C            5.03847684056342       -0.95368569255828       -0.28748554156526
C            5.98345061603081       -2.00472016135373       -0.49298518230061
C            7.22914116044203       -1.76730735203893       -0.99320475017980
C            7.61466198200281       -0.46234347717826       -1.32827617415702
C            6.73989823290584        0.58476592336833       -1.11041297901740
C            5.46988548957645        0.39212163951587       -0.57411802769185
C            4.58407569067586        1.49933493230945       -0.27333589949735
C            5.02420010377676        2.82841272916227       -0.33394236052872
C            4.19249675525979        3.88712263944276       -0.02341321748060
C            2.89272314456092        3.64142136353937        0.37938605608738
C            2.43924473317244        2.33590680608894        0.46141184305449
C            3.25193602314344        1.25154075117547        0.12830853379725
C            2.76690300679839       -0.12156056471968        0.22237362512610
C            1.43953489197284       -0.41200515730687        0.39522364885601
C           -1.43490756061935       -1.04503330010545        0.38694555831797
C           -2.77736723446539       -1.28256587049629        0.57594368726420
N           -3.71833560352449       -0.31758421108547        0.18013334410975
C           -4.83101052048494       -0.54639523657290       -0.60068067020194
C           -5.26189630087768       -1.72252383278199       -1.20090130575171
C           -6.41623635931589       -1.67386163215178       -1.95994858815467
C           -7.12311002687621       -0.48571516957117       -2.13211017419976
C           -6.68500301399906        0.69398808983331       -1.55785637054070
C           -5.53024504560861        0.66987936500892       -0.78936216266086
C           -4.79068615102426        1.67815567158938       -0.07796326751763
C           -4.97540591881262        3.03897279501436        0.12052050448305
C           -4.06096357172466        3.72502754379034        0.89891342290641
C           -2.98415579119126        3.06683187604862        1.48922960966300
C           -2.77923809364129        1.71225688322603        1.30552239740849
C           -3.67875947256860        1.02283272270842        0.50268457264044
C           -3.21931002143809       -2.47219982128320        1.17635764489526
H           -2.60057697477158       -4.33280026716308        2.02797349815713
H           -0.22592179238013       -3.92863642586487        1.72202457142634
H            1.60983598577041       -3.78610713901119        0.84084193175762
H            3.92151295593602       -3.34271996329559        0.45201045898345
H            5.70389580415776       -3.01967207686100       -0.26242669328140
H            7.91989488753708       -2.58466407297467       -1.14403612313369
H            8.59109847198638       -0.27625443935868       -1.74947810016106
H            7.06653986582356        1.57686904728587       -1.38002502334220
H            6.04151198338277        3.04853994429252       -0.61472934284716
H            4.56479396618844        4.89957778534678       -0.08416250177574
H            2.23480214734016        4.45777445619325        0.63925627649415
H            1.43210266885982        2.17149626765000        0.81034467462151
H            0.72906198477457        0.39630264349374        0.42061099612428
H           -1.14282602039574       -0.14311581282503       -0.12724384523575
H           -4.70835325797822       -2.64226228489850       -1.08797008536416
H           -6.77515833253299       -2.57568558900278       -2.43376302687730
H           -8.02111536606749       -0.48787467653840       -2.73214391558554
H           -7.22635735853460        1.61629094840985       -1.70574932705070
H           -5.81889292886031        3.54803946549495       -0.32095579343132
H           -4.18540519256601        4.78535951753493        1.06228330300257
H           -2.29700770352021        3.62626979095503        2.10702977669675
H           -1.95482777047899        1.20398727234149        1.78234079548073
H           -4.27012436331646       -2.62999631696692        1.35946422229296

          :  Hamiltonian                  GFN2-xTB          :
         :: gradient norm              0.000063733203 Eh/a0 ::
         :: HOMO-LUMO gap              0.628229705858 eV    ::
         :: SCC energy               -93.492768806239 Eh    ::
         :: -> dispersion             -0.082015944534 Eh    ::
         :: -> Gsolv                  -0.037132697845 Eh    ::
         :: repulsion energy           1.764032107651 Eh    ::

    * Orbital Energies and Occupations

         #    Occupation            Energy/Eh            Energy/eV
      -------------------------------------------------------------
         1        2.0000           -0.6821483             -18.5622
       ...           ...                  ...                  ...
        75        2.0000           -0.4201102             -11.4318
        76        2.0000           -0.4188433             -11.3973
        77        2.0000           -0.4108500             -11.1798
        78        2.0000           -0.4100648             -11.1584
        79        2.0000           -0.4053546             -11.0303
        80        2.0000           -0.4021163             -10.9421
        81        2.0000           -0.3968318             -10.7983
        82        2.0000           -0.3897903             -10.6067
        83        2.0000           -0.3843337             -10.4583
        84        2.0000           -0.3793037             -10.3214
        85        1.9390           -0.3676732             -10.0049
        86        1.0610           -0.3624793              -9.8636
        87        1.0000           -0.2736465              -7.4463 (HOMO)
        88        0.0000           -0.2505600              -6.8181 (LUMO)
        89        0.0000           -0.2495950              -6.7918
        90                         -0.2389189              -6.5013
        91                         -0.2290827              -6.2337
        92                         -0.2279833              -6.2037
        93                         -0.2237032              -6.0873
        94                         -0.1964430              -5.3455
        95                         -0.1915730              -5.2130
        96                         -0.1893920              -5.1536
        97                         -0.1857147              -5.0536
        98                         -0.1739464              -4.7333
       ...                                ...                  ...
       171                          0.7393520              20.1188
      -------------------------------------------------------------
                  HL-Gap            0.0230865 Eh            0.6282 eV

     #   Z          covCN         q      C6AA      α(0)
     1   6 C        2.911    -0.031    28.775     8.796
     2   6 C        2.919    -0.037    28.931     8.820
     3   6 C        2.967     0.006    27.890     8.663
     4   6 C        2.967     0.001    27.999     8.679
     5   6 C        2.911    -0.039    28.966     8.825
     6   6 C        2.910    -0.039    28.960     8.824
     7   6 C        2.975    -0.002    28.078     8.692
     8   6 C        2.973     0.004    27.931     8.669
     9   6 C        2.917    -0.039    28.970     8.826
    10   6 C        2.911    -0.033    28.810     8.801
    11   6 C        2.915    -0.036    28.905     8.816
    12   6 C        2.917    -0.036    28.901     8.816
    13   6 C        2.975     0.001    28.008     8.681
    14   6 C        2.977     0.004    27.921     8.668
    15   6 C        2.923    -0.038    28.950     8.824
    16   6 C        2.916    -0.033    28.825     8.804
    17   6 C        2.916    -0.034    28.840     8.806
    18   6 C        2.923    -0.038    28.934     8.821
    19   6 C        2.979     0.003    27.949     8.672
    20   6 C        2.969     0.002    27.975     8.676
    21   6 C        2.920    -0.046    29.145     8.853
    22   6 C        2.924    -0.055    29.376     8.888
    23   6 C        2.906     0.060    26.655     8.466
    24   7 N        2.803    -0.031    21.835     6.940
    25   6 C        3.076     0.049    26.830     8.492
    26   6 C        2.909    -0.046    29.152     8.853
    27   6 C        2.923    -0.033    28.822     8.804
    28   6 C        2.920    -0.038    28.938     8.821
    29   6 C        2.912    -0.032    28.796     8.799
    30   6 C        3.066    -0.015    28.325     8.727
    31   6 C        3.066    -0.015    28.326     8.727
    32   6 C        2.912    -0.032    28.797     8.800
    33   6 C        2.920    -0.038    28.942     8.822
    34   6 C        2.923    -0.033    28.821     8.804
    35   6 C        2.909    -0.046    29.152     8.853
    36   6 C        3.076     0.048    26.838     8.494
    37   6 C        2.919    -0.050    29.235     8.867
    38   1 H        0.926     0.035     2.512     2.478
    39   1 H        0.926     0.038     2.479     2.462
    40   1 H        0.926     0.031     2.579     2.511
    41   1 H        0.926     0.031     2.575     2.509
    42   1 H        0.926     0.032     2.560     2.502
    43   1 H        0.926     0.027     2.625     2.534
    44   1 H        0.926     0.027     2.625     2.534
    45   1 H        0.926     0.031     2.573     2.508
    46   1 H        0.926     0.033     2.550     2.497
    47   1 H        0.926     0.029     2.595     2.519
    48   1 H        0.926     0.030     2.588     2.516
    49   1 H        0.926     0.033     2.550     2.497
    50   1 H        0.926     0.034     2.536     2.490
    51   1 H        0.926     0.038     2.480     2.463
    52   1 H        0.926     0.037     2.495     2.470
    53   1 H        0.926     0.036     2.509     2.477
    54   1 H        0.926     0.034     2.527     2.486
    55   1 H        0.926     0.036     2.498     2.471
    56   1 H        0.926     0.036     2.499     2.472
    57   1 H        0.926     0.034     2.530     2.487
    58   1 H        0.926     0.035     2.516     2.481
    59   1 H        0.926     0.035     2.518     2.482
    60   1 H        0.926     0.038     2.482     2.463

molecular dipole:
                 x           y           z       tot (Debye)
 q only:       -0.898      -0.061       0.067
   full:       -0.842      -0.104       0.081       2.165

 projected vibrational frequencies (cm⁻¹)
eigval :       -0.00    -0.00    -0.00    -0.00     0.00     0.00
eigval :       -4.15    16.08    22.68    32.84    42.00    54.98
eigval :       69.17    72.37    88.91   104.11   117.29   140.72
eigval :      141.88   176.06   200.26   214.18   233.91   239.16
eigval :      251.95   269.67   283.38   289.19   311.19   348.96
eigval :      361.14   374.74   388.60   391.15   394.13   400.99
eigval :      410.69   422.00   434.56   446.53   460.50   472.47
eigval :      497.63   510.51   516.65   537.29   540.61   551.88
eigval :      560.72   573.90   579.44   585.58   590.91   606.82
eigval :      613.77   635.93   648.67   665.77   667.22   674.70
eigval :      685.77   709.34   723.48   731.89   734.11   749.84
eigval :      755.60   756.46   758.73   769.81   776.23   779.33
eigval :      808.40   826.42   830.25   833.44   840.24   844.18
eigval :      871.94   875.44   881.76   888.83   892.13   896.33
eigval :      902.93   904.87   906.73   909.49   914.96   921.51
eigval :      923.31   930.26   945.62   972.63   986.70  1007.65
eigval :     1011.72  1044.50  1067.08  1070.14  1080.21  1111.12
eigval :     1112.75  1120.81  1123.57  1140.49  1145.26  1164.16
eigval :     1172.81  1175.13  1179.61  1181.99  1185.72  1191.31
eigval :     1208.17  1231.54  1232.62  1240.95  1242.88  1251.48
eigval :     1255.51  1269.06  1284.82  1292.04  1293.99  1312.20
eigval :     1327.82  1332.24  1343.47  1346.22  1349.82  1356.14
eigval :     1361.95  1365.26  1375.24  1381.12  1402.59  1410.70
eigval :     1415.65  1433.10  1434.87  1448.02  1461.47  1464.99
eigval :     1482.28  1485.28  1489.97  1495.56  1534.39  1550.40
eigval :     1560.73  1566.33  1572.73  1580.14  1583.26  1590.13
eigval :     1606.35  3068.50  3069.51  3073.27  3075.06  3076.41
eigval :     3079.30  3080.99  3081.78  3081.84  3085.69  3088.10
eigval :     3089.02  3094.18  3094.29  3095.49  3097.34  3098.42
eigval :     3100.51  3102.45  3105.97  3107.25  3110.14  3121.07

   temp. (K)  partition function   enthalpy   heat capacity  entropy
                                   cal/mol     cal/K/mol   cal/K/mol   J/K/mol
 298.15  VIB  0.184E+13            16044.044    106.457     98.499
         ROT  0.402E+08              888.752      2.981     37.776
         INT  0.741E+20            16932.796    109.438    136.275
         TR   0.984E+28             1481.254      4.968     44.308
         TOT                       18414.0504   114.4059   180.5834   755.5608

       T/K    H(0)-H(T)+PV         H(T)/Eh          T*S/Eh         G(T)/Eh
   ------------------------------------------------------------------------
    298.15    0.293447E-01    0.487862E+00    0.858010E-01    0.402061E+00
   ------------------------------------------------------------------------

         :::::::::::::::::::::::::::::::::::::::::::::::::::::
         ::                  THERMODYNAMIC                  ::
         :::::::::::::::::::::::::::::::::::::::::::::::::::::
         :: total free energy         -91.326676142549 Eh   ::
         ::.................................................::
         :: total energy              -91.728736698753 Eh   ::
         :: zero point energy           0.458516878392 Eh   ::
         :: G(RRHO) w/o ZPVE           -0.056456322188 Eh   ::
         :: G(RRHO) contrib.            0.402060556204 Eh   ::
         :::::::::::::::::::::::::::::::::::::::::::::::::::::

           -------------------------------------------------
          | TOTAL ENERGY              -91.728736698753 Eh   |
          | TOTAL ENTHALPY            -91.240875163192 Eh   |
          | TOTAL FREE ENERGY         -91.326676142549 Eh   |
          | GRADIENT NORM               0.000063581733 Eh/α |
          | HOMO-LUMO GAP               0.628215652187 eV   |
           -------------------------------------------------

 * finished run on 2025/09/04 at 22:42:31.411
