   * xtb version 6.7.1 (edcfbbe) compiled by 'albert@albert-system' on 2024-07-22

   ID    Z sym.   atoms
    1    6 C      1-23, 25-37
    2    7 N      24
    3    1 H      38-60

          program call               : xtb data2507/toluene/D1–D6/D1–D6_toluene_S0_finalOpt.xtbopt.xyz --gfn 2 --uhf 2 --gbsa toluene --ohess vtight --parallel 40 --molden --ceasefiles --namespace data2507/toluene/D1–D6/D1–D6_toluene_T1_preOpt
      * Solvation model:               GBSA
        Solvent                        toluene
        Solvent mass                       9.2140E+01 g/mol
          :  Hamiltonian                  GFN2-xTB          :
 * total energy  :   -91.7182696 Eh     change       -0.9769508E-08 Eh
 * total energy  :   -91.7240390 Eh     change       -0.5769419E-02 Eh
 * total energy  :   -91.7266351 Eh     change       -0.2596090E-02 Eh
 * total energy  :   -91.7270759 Eh     change       -0.4407575E-03 Eh
 * total energy  :   -91.7273373 Eh     change       -0.2614801E-03 Eh
 * total energy  :   -91.7276221 Eh     change       -0.2847069E-03 Eh
 * total energy  :   -91.7277986 Eh     change       -0.1765459E-03 Eh
 * total energy  :   -91.7279071 Eh     change       -0.1085252E-03 Eh
 * total energy  :   -91.7279743 Eh     change       -0.6713515E-04 Eh
 * total energy  :   -91.7280174 Eh     change       -0.4317991E-04 Eh
 * total energy  :   -91.7287609 Eh     change       -0.2847549E-06 Eh
 * total energy  :   -91.7287612 Eh     change       -0.3285915E-06 Eh
 * total energy  :   -91.7287616 Eh     change       -0.3549616E-06 Eh
 * total energy  :   -91.7287619 Eh     change       -0.3129871E-06 Eh
 * total energy  :   -91.7287621 Eh     change       -0.2174635E-06 Eh
 * total energy  :   -91.7287623 Eh     change       -0.1729673E-06 Eh
 * total energy  :   -91.7287625 Eh     change       -0.1877880E-06 Eh
 * total energy  :   -91.7287627 Eh     change       -0.1597441E-06 Eh
 * total energy  :   -91.7287627 Eh     change       -0.7724110E-07 Eh
   *** GEOMETRY OPTIMIZATION CONVERGED AFTER 85 ITERATIONS ***

 final structure:
================
60
 xtb: 6.7.1 (edcfbbe)
C           -2.29152786795665       -3.31246184565089        1.75491442836414
C           -0.94764704214260       -3.10140193424417        1.57388508729332
C           -0.45689686627111       -1.92781758012289        0.93237479360939
C            0.93215771975718       -1.69412892819556        0.73967870687023
C            1.90676151247184       -2.73906706737852        0.82002720482618
C            3.21131125574744       -2.51136731367982        0.55039767167972
C            3.71057756761833       -1.21137974604855        0.18874421945454
C            5.00501813825719       -0.99609942373157       -0.29991692550450
C            5.91555365530297       -2.06885430916746       -0.54464131125332
C            7.13555065608802       -1.86182377785679       -1.11670664385112
C            7.52742814764715       -0.56854422043417       -1.48842463409460
C            6.68623065207359        0.49871480804342       -1.23730697908397
C            5.44468519636376        0.33719983370557       -0.62964280600976
C            4.59665862542438        1.46458520139196       -0.29659090268713
C            5.06171027574883        2.78368001808446       -0.37958661688603
C            4.26354607832713        3.86003288921182       -0.04195499962758
C            2.97549643140272        3.64271770853784        0.41191465180266
C            2.49940277349117        2.34691519239171        0.51912909665400
C            3.27736213961068        1.24602106671205        0.15975319818611
C            2.77217478856057       -0.11659834078367        0.28684253575833
C            1.44489980613694       -0.38509313462254        0.49050056736208
C           -1.43140130955902       -1.00520202144482        0.47610799647016
C           -2.77720605927303       -1.23031301776010        0.65695691124785
N           -3.71046459204651       -0.28573499522200        0.19802202460754
C           -4.80540282757902       -0.55283752671052       -0.59557096102924
C           -5.22112905697730       -1.75638306754731       -1.15038620365578
C           -6.35671075490832       -1.74488881067824       -1.93862235668370
C           -7.06014677764027       -0.56729477653982       -2.18248132724072
C           -6.63770595039615        0.63824705668170       -1.65190867631503
C           -5.50167528532959        0.65183407585305       -0.85570649482776
C           -4.77950613381115        1.69336340976768       -0.17510236564769
C           -4.97085210027439        3.06134834184988       -0.04304614553738
C           -4.07346313357603        3.78488331302221        0.72110283636974
C           -3.00666141931730        3.15766005514796        1.36124201778341
C           -2.79600401404016        1.79650297212703        1.24485256530552
C           -3.67879546991903        1.06828617707439        0.45793118411742
C           -3.23101749823475       -2.38781037035492        1.30862530157989
H           -2.63034824741803       -4.20451637640963        2.26201139239920
H           -0.24958214649370       -3.82421747483372        1.96426246395707
H            1.58993811424228       -3.74210090833181        1.05998119237826
H            3.90191826553706       -3.33737757410741        0.60858478311291
H            5.62578920589794       -3.07547620202459       -0.29086767038990
H            7.80014861765544       -2.69455484621174       -1.29792537295046
H            8.48198603366446       -0.40738426109147       -1.96627708189570
H            7.01445149976198        1.48094241231320       -1.53958892187541
H            6.07265806310485        2.98086146297668       -0.69823066154320
H            4.65362777337883        4.86448647364719       -0.12113211592003
H            2.34498951073128        4.47343262569290        0.69329052721989
H            1.50499716082716        2.20169662828480        0.91078515420260
H            0.74436737296750        0.43249322562663        0.51036015330056
H           -1.12776336809196       -0.12980098249492       -0.07603735244437
H           -4.66983097264886       -2.66888441512452       -0.98134075487713
H           -6.70327520710118       -2.66817347169155       -2.37910729580428
H           -7.94300622239195       -0.59875719284924       -2.80377520115621
H           -7.17642597521746        1.55164259297526       -1.85462042769531
H           -5.80636878833006        3.54717919411425       -0.52413007746879
H           -4.20307853734067        4.85121816659293        0.83324132203307
H           -2.33230878216750        3.74713145045232        1.96510064397005
H           -1.97959336104093        1.31305678819387        1.75967642114001
H           -4.28503004579093       -2.53427689173461        1.48284453625877

          :  Hamiltonian                  GFN2-xTB          :
         :: gradient norm              0.000020228100 Eh/a0 ::
         :: HOMO-LUMO gap              0.632571959731 eV    ::
         :: SCC energy               -93.492938138026 Eh    ::
         :: -> dispersion             -0.081945059752 Eh    ::
         :: -> Gsolv                  -0.037190069768 Eh    ::
         :: repulsion energy           1.764175407495 Eh    ::

    * Orbital Energies and Occupations

         #    Occupation            Energy/Eh            Energy/eV
      -------------------------------------------------------------
         1        2.0000           -0.6820121             -18.5585
       ...           ...                  ...                  ...
        75        2.0000           -0.4201020             -11.4316
        76        2.0000           -0.4188226             -11.3967
        77        2.0000           -0.4107797             -11.1779
        78        2.0000           -0.4100442             -11.1579
        79        2.0000           -0.4054345             -11.0324
        80        2.0000           -0.4023952             -10.9497
        81        2.0000           -0.3969283             -10.8010
        82        2.0000           -0.3898928             -10.6095
        83        2.0000           -0.3842114             -10.4549
        84        2.0000           -0.3793136             -10.3216
        85        1.9397           -0.3675971             -10.0028
        86        1.0603           -0.3623781              -9.8608
        87        1.0000           -0.2736905              -7.4475 (HOMO)
        88        0.0000           -0.2504434              -6.8149 (LUMO)
        89        0.0000           -0.2495421              -6.7904
        90                         -0.2388296              -6.4989
        91                         -0.2290750              -6.2334
        92                         -0.2278534              -6.2002
        93                         -0.2237826              -6.0894
        94                         -0.1964480              -5.3456
        95                         -0.1914607              -5.2099
        96                         -0.1895060              -5.1567
        97                         -0.1857750              -5.0552
        98                         -0.1744000              -4.7457
       ...                                ...                  ...
       171                          0.7394334              20.1210
      -------------------------------------------------------------
                  HL-Gap            0.0232471 Eh            0.6326 eV

     #   Z          covCN         q      C6AA      α(0)
     1   6 C        2.912    -0.031    28.773     8.796
     2   6 C        2.919    -0.037    28.931     8.820
     3   6 C        2.967     0.006    27.887     8.662
     4   6 C        2.967     0.001    27.999     8.679
     5   6 C        2.911    -0.039    28.963     8.825
     6   6 C        2.910    -0.039    28.958     8.824
     7   6 C        2.975    -0.002    28.075     8.691
     8   6 C        2.973     0.004    27.933     8.669
     9   6 C        2.917    -0.039    28.969     8.826
    10   6 C        2.911    -0.032    28.809     8.801
    11   6 C        2.915    -0.036    28.904     8.816
    12   6 C        2.917    -0.036    28.900     8.815
    13   6 C        2.975     0.001    28.009     8.681
    14   6 C        2.977     0.004    27.922     8.668
    15   6 C        2.923    -0.038    28.949     8.823
    16   6 C        2.916    -0.033    28.824     8.804
    17   6 C        2.916    -0.034    28.840     8.806
    18   6 C        2.923    -0.038    28.933     8.821
    19   6 C        2.979     0.003    27.949     8.672
    20   6 C        2.970     0.002    27.973     8.675
    21   6 C        2.920    -0.046    29.143     8.853
    22   6 C        2.924    -0.055    29.372     8.888
    23   6 C        2.906     0.060    26.654     8.465
    24   7 N        2.803    -0.031    21.841     6.941
    25   6 C        3.076     0.049    26.829     8.492
    26   6 C        2.909    -0.046    29.153     8.854
    27   6 C        2.923    -0.033    28.823     8.804
    28   6 C        2.920    -0.038    28.940     8.822
    29   6 C        2.912    -0.032    28.797     8.800
    30   6 C        3.066    -0.015    28.327     8.727
    31   6 C        3.066    -0.015    28.327     8.727
    32   6 C        2.912    -0.032    28.798     8.800
    33   6 C        2.920    -0.038    28.944     8.822
    34   6 C        2.923    -0.033    28.822     8.804
    35   6 C        2.909    -0.046    29.152     8.853
    36   6 C        3.076     0.048    26.837     8.494
    37   6 C        2.919    -0.050    29.232     8.866
    38   1 H        0.926     0.035     2.511     2.478
    39   1 H        0.926     0.038     2.480     2.463
    40   1 H        0.926     0.031     2.576     2.510
    41   1 H        0.926     0.031     2.573     2.508
    42   1 H        0.926     0.032     2.559     2.502
    43   1 H        0.926     0.027     2.625     2.533
    44   1 H        0.926     0.027     2.625     2.533
    45   1 H        0.926     0.031     2.573     2.508
    46   1 H        0.926     0.033     2.550     2.497
    47   1 H        0.926     0.029     2.595     2.519
    48   1 H        0.926     0.030     2.588     2.516
    49   1 H        0.926     0.033     2.550     2.497
    50   1 H        0.926     0.033     2.538     2.491
    51   1 H        0.926     0.038     2.478     2.462
    52   1 H        0.926     0.036     2.498     2.472
    53   1 H        0.926     0.035     2.510     2.478
    54   1 H        0.926     0.034     2.528     2.486
    55   1 H        0.926     0.036     2.499     2.472
    56   1 H        0.926     0.036     2.500     2.473
    57   1 H        0.926     0.034     2.531     2.488
    58   1 H        0.926     0.035     2.517     2.481
    59   1 H        0.926     0.035     2.522     2.483
    60   1 H        0.926     0.038     2.482     2.464

molecular dipole:
                 x           y           z       tot (Debye)
 q only:       -0.875      -0.061       0.073
   full:       -0.820      -0.104       0.086       2.112

 projected vibrational frequencies (cm⁻¹)
eigval :       -0.00    -0.00    -0.00     0.00     0.00     0.00
eigval :       13.43    16.57    23.76    38.84    54.86    65.89
eigval :       73.00    74.95    97.31   103.32   119.02   141.24
eigval :      143.50   177.97   200.02   215.86   234.00   241.13
eigval :      253.47   269.79   283.98   289.26   311.24   350.51
eigval :      361.35   375.94   388.59   392.80   396.26   403.00
eigval :      413.25   421.86   434.26   446.52   461.33   472.29
eigval :      499.85   511.53   516.85   537.80   540.84   551.93
eigval :      561.90   574.47   579.51   585.49   590.53   606.96
eigval :      616.09   637.52   650.56   666.64   667.96   674.77
eigval :      685.88   709.24   725.00   732.01   735.41   754.16
eigval :      755.50   758.57   763.61   769.58   778.84   779.78
eigval :      810.61   829.96   831.61   839.14   845.18   854.18
eigval :      871.95   876.23   889.19   891.87   896.31   900.86
eigval :      902.91   904.93   905.75   912.13   917.85   921.73
eigval :      922.37   930.24   945.64   973.22   986.89  1007.62
eigval :     1011.53  1044.82  1066.62  1069.77  1079.38  1110.08
eigval :     1112.13  1120.53  1121.02  1139.60  1144.54  1162.82
eigval :     1171.91  1173.11  1178.38  1180.60  1184.76  1187.65
eigval :     1207.43  1231.20  1232.50  1240.07  1242.81  1251.12
eigval :     1253.59  1267.54  1284.82  1291.62  1294.04  1310.64
eigval :     1327.93  1331.68  1343.25  1346.26  1349.77  1355.97
eigval :     1360.73  1365.13  1374.71  1380.55  1402.70  1410.67
eigval :     1415.66  1432.78  1434.35  1448.23  1461.54  1464.85
eigval :     1482.26  1485.75  1489.97  1495.48  1534.39  1549.30
eigval :     1560.57  1566.31  1572.20  1580.32  1583.37  1590.03
eigval :     1606.39  3068.53  3069.98  3073.57  3074.66  3075.57
eigval :     3079.26  3080.53  3081.16  3081.55  3084.85  3087.66
eigval :     3088.48  3093.44  3093.86  3094.92  3096.19  3097.53
eigval :     3099.40  3102.00  3104.43  3106.53  3108.96  3115.14

   temp. (K)  partition function   enthalpy   heat capacity  entropy
                                   cal/mol     cal/K/mol   cal/K/mol   J/K/mol
 298.15  VIB  0.257E+12            15938.926    106.900     96.610
         ROT  0.403E+08              888.752      2.981     37.782
         INT  0.103E+20            16827.679    109.881    134.393
         TR   0.984E+28             1481.254      4.968     44.308
         TOT                       18308.9325   114.8491   178.7007   747.6836

       T/K    H(0)-H(T)+PV         H(T)/Eh          T*S/Eh         G(T)/Eh
   ------------------------------------------------------------------------
    298.15    0.291771E-01    0.487944E+00    0.849065E-01    0.403038E+00
   ------------------------------------------------------------------------

         :::::::::::::::::::::::::::::::::::::::::::::::::::::
         ::                  THERMODYNAMIC                  ::
         :::::::::::::::::::::::::::::::::::::::::::::::::::::
         :: total free energy         -91.325725005628 Eh   ::
         ::.................................................::
         :: total energy              -91.728762731201 Eh   ::
         :: zero point energy           0.458767042387 Eh   ::
         :: G(RRHO) w/o ZPVE           -0.055729316815 Eh   ::
         :: G(RRHO) contrib.            0.403037725572 Eh   ::
         :::::::::::::::::::::::::::::::::::::::::::::::::::::

           -------------------------------------------------
          | TOTAL ENERGY              -91.728762731201 Eh   |
          | TOTAL ENTHALPY            -91.240818547636 Eh   |
          | TOTAL FREE ENERGY         -91.325725005628 Eh   |
          | GRADIENT NORM               0.000020711864 Eh/α |
          | HOMO-LUMO GAP               0.632584941568 eV   |
           -------------------------------------------------

 * finished run on 2025/09/04 at 22:39:13.356
