   * xtb version 6.7.1 (edcfbbe) compiled by 'albert@albert-system' on 2024-07-22

   ID    Z sym.   atoms
    1    6 C      1-23, 25-37
    2    7 N      24
    3    1 H      38-60

          program call               : xtb data2507/toluene/D1–D6/D1–D6_toluene_S0_crest.xyz --gfn 2 --gbsa toluene --ohess vtight --parallel 40 --molden --ceasefiles --namespace data2507/toluene/D1–D6/D1–D6_toluene_S0_finalOpt
      * Solvation model:               GBSA
        Solvent                        toluene
        Solvent mass                       9.2140E+01 g/mol
          :  Hamiltonian                  GFN2-xTB          :
 * total energy  :   -91.8280896 Eh     change       -0.1820496E-08 Eh
 * total energy  :   -91.8281111 Eh     change       -0.2150659E-04 Eh
 * total energy  :   -91.8281190 Eh     change       -0.7973724E-05 Eh
 * total energy  :   -91.8281221 Eh     change       -0.3099247E-05 Eh
 * total energy  :   -91.8281252 Eh     change       -0.3028105E-05 Eh
 * total energy  :   -91.8281254 Eh     change       -0.1999327E-06 Eh
 * total energy  :   -91.8281271 Eh     change       -0.1699402E-05 Eh
 * total energy  :   -91.8281292 Eh     change       -0.2130636E-05 Eh
 * total energy  :   -91.8281308 Eh     change       -0.1607658E-05 Eh
 * total energy  :   -91.8281328 Eh     change       -0.1989844E-05 Eh
 * total energy  :   -91.8281390 Eh     change       -0.1166688E-05 Eh
 * total energy  :   -91.8281400 Eh     change       -0.1044969E-05 Eh
 * total energy  :   -91.8281407 Eh     change       -0.6946671E-06 Eh
 * total energy  :   -91.8281412 Eh     change       -0.4698650E-06 Eh
 * total energy  :   -91.8281417 Eh     change       -0.5200472E-06 Eh
 * total energy  :   -91.8281425 Eh     change       -0.7482593E-06 Eh
 * total energy  :   -91.8281433 Eh     change       -0.7951437E-06 Eh
 * total energy  :   -91.8281438 Eh     change       -0.5857751E-06 Eh
 * total energy  :   -91.8281438 Eh     change       -0.3821356E-08 Eh
   *** GEOMETRY OPTIMIZATION CONVERGED AFTER 22 ITERATIONS ***

 final structure:
================
60
 xtb: 6.7.1 (edcfbbe)
C           -2.21112954571938       -3.20456380846294        1.84027655064616
C           -0.87788028728610       -3.00689401272405        1.53023292399737
C           -0.48435400972491       -1.90816108550108        0.76776876715590
C            0.93161673166419       -1.68148296362219        0.44268359549119
C            1.77835363722301       -2.74507404203453        0.11868321287060
C            3.10037063743905       -2.51307066961300       -0.16682734685365
C            3.65326070548589       -1.22373432001600       -0.14973056854400
C            5.05939918157644       -0.99048748606352       -0.42205186823848
C            5.93913482591477       -2.04763894116717       -0.69808550998513
C            7.27545952292024       -1.83638861499439       -0.93999545105162
C            7.78277881834177       -0.54342390029272       -0.90839766128782
C            6.94209726795746        0.51070163693122       -0.64062277796606
C            5.57343645165246        0.32487390881941       -0.39760599510165
C            4.68903849279826        1.44571255894426       -0.12755514973778
C            5.15571751981950        2.76835200716475       -0.13814957817116
C            4.32501957263434        3.83475912714298        0.11124188267981
C            2.98042550173873        3.61021495703133        0.37811874138539
C            2.49624775724881        2.32386318423296        0.39155713401127
C            3.32281451758416        1.21762277629465        0.14668156205064
C            2.80210697248088       -0.13901963762787        0.15401472592747
C            1.46079186457762       -0.40393809525450        0.45202738879481
C           -1.45816997949591       -1.02187594457100        0.31797376255041
C           -2.79585313424812       -1.21380022862213        0.63998947031447
N           -3.75668855316450       -0.28949935899776        0.19797798456816
C           -4.92585826299698       -0.58597053886474       -0.47223446364972
C           -5.41077355556368       -1.81296779543825       -0.90340625557354
C           -6.61601002733604       -1.82953689752904       -1.57901956075053
C           -7.32477258367873       -0.65637479190570       -1.83195173054648
C           -6.83581345327458        0.56978526060738       -1.42701222325128
C           -5.62602210590781        0.61262430711920       -0.74536471650819
C           -4.83197204386595        1.68074464647708       -0.20506210162887
C           -4.99388397854129        3.05937515757292       -0.14490702566747
C           -4.02487796242775        3.81361014095999        0.48654773525089
C           -2.91319224885448        3.20870775224756        1.07046042750536
C           -2.73062030257038        1.83998606354882        1.02424744563207
C           -3.68725637561503        1.07853336009868        0.36710837802715
C           -3.17476800961806       -2.31131776004372        1.40707617760360
H           -2.50328109984060       -4.05552674880044        2.43811491462441
H           -0.13298863159586       -3.69578553326922        1.89908771486035
H            1.38696504332163       -3.75073550378050        0.07570677547948
H            3.71606948138877       -3.36266520505832       -0.41292290426996
H            5.57625998670671       -3.06210569747891       -0.72264851450322
H            7.92721764384020       -2.67190364647335       -1.15031911294665
H            8.83245118004643       -0.36579979425898       -1.09213407973619
H            7.36740106987026        1.50070089586696       -0.61821725740844
H            6.19159228242341        2.97607077370386       -0.35064161493842
H            4.71642551085003        4.84158840989927        0.09538781845255
H            2.31670209711274        4.44061271671883        0.57050757916615
H            1.44658223245252        2.18497773041998        0.59222027110872
H            0.80353683356762        0.40487010352489        0.72444635274309
H           -1.18262243405739       -0.18859627847351       -0.31142940465325
H           -4.86141467041623       -2.72530134921188       -0.72585571373967
H           -7.01672756677939       -2.77270597527559       -1.92145536657330
H           -8.26544080731289       -0.71148164795331       -2.36022613981624
H           -7.37820729479860        1.47983324340374       -1.63681465418055
H           -5.86401069718091        3.52737873137810       -0.58100904250191
H           -4.13102346353808        4.88730350934194        0.54120349965930
H           -2.18096337766256        3.82371397029156        1.57367636822453
H           -1.87932080145323        1.37642159899147        1.49972816258395
H           -4.21281214981314       -2.44959287025346        1.66942590431572

          :  Hamiltonian                  GFN2-xTB          :
         :: gradient norm              0.000050451031 Eh/a0 ::
         :: HOMO-LUMO gap              2.688420539180 eV    ::
         :: SCC energy               -93.611926782658 Eh    ::
         :: -> dispersion             -0.082143638351 Eh    ::
         :: -> Gsolv                  -0.037151067149 Eh    ::
         :: repulsion energy           1.783782941083 Eh    ::

    * Orbital Energies and Occupations

         #    Occupation            Energy/Eh            Energy/eV
      -------------------------------------------------------------
         1        2.0000           -0.6752202             -18.3737
       ...           ...                  ...                  ...
        74        2.0000           -0.4219635             -11.4822
        75        2.0000           -0.4184603             -11.3869
        76        2.0000           -0.4173410             -11.3564
        77        2.0000           -0.4105233             -11.1709
        78        2.0000           -0.4075999             -11.0914
        79        2.0000           -0.4050750             -11.0227
        80        2.0000           -0.4044935             -11.0068
        81        2.0000           -0.4034649             -10.9788
        82        2.0000           -0.3935208             -10.7082
        83        2.0000           -0.3805973             -10.3566
        84        2.0000           -0.3780335             -10.2868
        85        2.0000           -0.3769136             -10.2563
        86        2.0000           -0.3616484              -9.8410 (HOMO)
        87                         -0.2628507              -7.1525 (LUMO)
        88                         -0.2562506              -6.9729
        89                         -0.2454043              -6.6778
        90                         -0.2406737              -6.5491
        91                         -0.2319054              -6.3105
        92                         -0.2267584              -6.1704
        93                         -0.2214384              -6.0256
        94                         -0.1941921              -5.2842
        95                         -0.1933103              -5.2602
        96                         -0.1892673              -5.1502
        97                         -0.1856595              -5.0521
       ...                                ...                  ...
       171                          0.7450359              20.2735
      -------------------------------------------------------------
                  HL-Gap            0.0987976 Eh            2.6884 eV

     #   Z          covCN         q      C6AA      α(0)
     1   6 C        2.918    -0.029    28.728     8.789
     2   6 C        2.924    -0.038    28.947     8.823
     3   6 C        2.976     0.012    27.732     8.638
     4   6 C        2.974     0.007    27.860     8.658
     5   6 C        2.921    -0.037    28.913     8.818
     6   6 C        2.921    -0.037    28.926     8.820
     7   6 C        2.979     0.004    27.935     8.670
     8   6 C        2.978     0.005    27.905     8.665
     9   6 C        2.923    -0.037    28.918     8.819
    10   6 C        2.917    -0.033    28.811     8.802
    11   6 C        2.917    -0.032    28.810     8.802
    12   6 C        2.923    -0.037    28.915     8.818
    13   6 C        2.978     0.005    27.910     8.666
    14   6 C        2.978     0.005    27.907     8.665
    15   6 C        2.923    -0.037    28.915     8.818
    16   6 C        2.917    -0.032    28.808     8.802
    17   6 C        2.917    -0.032    28.808     8.801
    18   6 C        2.923    -0.036    28.907     8.817
    19   6 C        2.979     0.005    27.911     8.666
    20   6 C        2.977     0.005    27.913     8.666
    21   6 C        2.930    -0.042    29.034     8.837
    22   6 C        2.929    -0.048    29.188     8.860
    23   6 C        2.911     0.064    26.575     8.453
    24   7 N        2.802    -0.048    22.159     6.991
    25   6 C        3.076     0.048    26.847     8.495
    26   6 C        2.909    -0.052    29.292     8.875
    27   6 C        2.924    -0.035    28.878     8.813
    28   6 C        2.919    -0.043    29.070     8.842
    29   6 C        2.912    -0.035    28.874     8.811
    30   6 C        3.068    -0.019    28.416     8.741
    31   6 C        3.067    -0.019    28.414     8.741
    32   6 C        2.912    -0.035    28.871     8.811
    33   6 C        2.920    -0.043    29.070     8.842
    34   6 C        2.923    -0.035    28.877     8.812
    35   6 C        2.910    -0.051    29.278     8.873
    36   6 C        3.077     0.048    26.848     8.495
    37   6 C        2.921    -0.045    29.115     8.849
    38   1 H        0.926     0.040     2.452     2.449
    39   1 H        0.926     0.040     2.444     2.445
    40   1 H        0.926     0.035     2.521     2.483
    41   1 H        0.926     0.037     2.490     2.468
    42   1 H        0.926     0.035     2.510     2.478
    43   1 H        0.926     0.031     2.576     2.510
    44   1 H        0.926     0.031     2.578     2.511
    45   1 H        0.926     0.035     2.518     2.481
    46   1 H        0.926     0.035     2.516     2.480
    47   1 H        0.926     0.031     2.578     2.511
    48   1 H        0.926     0.031     2.578     2.511
    49   1 H        0.926     0.035     2.521     2.483
    50   1 H        0.926     0.037     2.487     2.466
    51   1 H        0.926     0.042     2.426     2.436
    52   1 H        0.926     0.029     2.593     2.518
    53   1 H        0.926     0.029     2.595     2.519
    54   1 H        0.926     0.027     2.628     2.535
    55   1 H        0.926     0.029     2.596     2.519
    56   1 H        0.926     0.029     2.596     2.520
    57   1 H        0.926     0.027     2.628     2.535
    58   1 H        0.926     0.029     2.597     2.520
    59   1 H        0.926     0.027     2.623     2.533
    60   1 H        0.926     0.040     2.443     2.444

molecular dipole:
                 x           y           z       tot (Debye)
 q only:        0.583      -0.460       0.200
   full:        0.600      -0.482       0.210       2.028

 projected vibrational frequencies (cm⁻¹)
eigval :       -0.00    -0.00    -0.00     0.00     0.00     0.00
eigval :       13.98    19.25    20.52    32.86    42.70    64.62
eigval :       65.56    73.59    99.74   107.81   119.94   145.95
eigval :      148.02   202.43   211.87   217.87   235.53   248.94
eigval :      265.25   271.97   280.20   312.91   318.91   359.11
eigval :      385.03   392.72   394.88   397.38   401.03   408.14
eigval :      424.38   434.86   440.71   450.67   468.21   515.12
eigval :      517.45   521.61   528.32   539.80   542.08   555.83
eigval :      581.75   586.54   587.93   596.45   603.48   613.80
eigval :      639.05   670.64   673.73   676.23   678.40   689.32
eigval :      702.13   709.18   737.05   749.70   756.96   759.13
eigval :      765.21   767.09   778.81   779.24   795.78   823.46
eigval :      842.56   845.96   861.43   864.46   868.04   871.05
eigval :      892.61   895.99   899.81   902.65   903.54   906.95
eigval :      908.47   915.98   919.06   922.84   923.54   925.65
eigval :      930.71   940.14   976.69  1000.31  1011.21  1019.14
eigval :     1032.24  1068.44  1071.90  1094.53  1098.50  1116.86
eigval :     1126.20  1127.69  1143.97  1149.67  1153.77  1170.92
eigval :     1173.29  1180.38  1181.27  1183.11  1190.70  1201.66
eigval :     1234.87  1235.62  1245.73  1256.61  1262.65  1264.81
eigval :     1270.00  1289.19  1299.77  1303.10  1312.27  1316.63
eigval :     1317.15  1334.75  1339.79  1352.65  1357.17  1359.82
eigval :     1363.83  1396.42  1414.45  1420.04  1427.05  1429.32
eigval :     1433.78  1446.10  1472.54  1475.96  1478.75  1487.09
eigval :     1494.90  1540.16  1560.11  1566.74  1570.52  1574.28
eigval :     1583.63  1587.36  1591.63  1593.17  1597.45  1604.93
eigval :     1613.24  3069.27  3070.78  3070.84  3071.08  3074.56
eigval :     3075.94  3076.59  3080.04  3080.66  3081.61  3082.67
eigval :     3083.97  3088.04  3089.72  3090.01  3092.29  3096.44
eigval :     3101.42  3102.50  3104.86  3113.36  3114.81  3117.56

   temp. (K)  partition function   enthalpy   heat capacity  entropy
                                   cal/mol     cal/K/mol   cal/K/mol   J/K/mol
 298.15  VIB  0.236E+12            15596.248    104.209     94.450
         ROT  0.400E+08              888.752      2.981     37.768
         INT  0.943E+19            16485.000    107.189    132.219
         TR   0.984E+28             1481.254      4.968     44.308
         TOT                       17966.2543   112.1576   176.5268   738.5882

       T/K    H(0)-H(T)+PV         H(T)/Eh          T*S/Eh         G(T)/Eh
   ------------------------------------------------------------------------
    298.15    0.286310E-01    0.492096E+00    0.838736E-01    0.408223E+00
   ------------------------------------------------------------------------

         :::::::::::::::::::::::::::::::::::::::::::::::::::::
         ::                  THERMODYNAMIC                  ::
         :::::::::::::::::::::::::::::::::::::::::::::::::::::
         :: total free energy         -91.419921256734 Eh   ::
         ::.................................................::
         :: total energy              -91.828143841572 Eh   ::
         :: zero point energy           0.463465117424 Eh   ::
         :: G(RRHO) w/o ZPVE           -0.055242532586 Eh   ::
         :: G(RRHO) contrib.            0.408222584838 Eh   ::
         :::::::::::::::::::::::::::::::::::::::::::::::::::::

           -------------------------------------------------
          | TOTAL ENERGY              -91.828143841572 Eh   |
          | TOTAL ENTHALPY            -91.336047675490 Eh   |
          | TOTAL FREE ENERGY         -91.419921256734 Eh   |
          | GRADIENT NORM               0.000050461672 Eh/α |
          | HOMO-LUMO GAP               2.688420450277 eV   |
           -------------------------------------------------

 * finished run on 2025/09/04 at 22:39:06.996
