   * xtb version 6.7.1 (edcfbbe) compiled by 'albert@albert-system' on 2024-07-22

   ID    Z sym.   atoms
    1    6 C      1-5, 7, 9-13, 15-17, 19, 21-25, 27-29, 31, 34-36
    2    7 N      6, 8, 18, 20, 30, 32, 33
    3    9 F      14, 26, 37
    4    1 H      38-55

          program call               : xtb data2507/toluene/HAP-3MF/HAP-3MF_toluene_T1_crest.xyz --gfn 2 --uhf 2 --gbsa toluene --ohess vtight --parallel 40 --molden --ceasefiles --namespace data2507/toluene/HAP-3MF/HAP-3MF_toluene_T1_finalOpt
      * Solvation model:               GBSA
        Solvent                        toluene
        Solvent mass                       9.2140E+01 g/mol
          :  Hamiltonian                  GFN2-xTB          :
 * total energy  :  -101.7491371 Eh     change       -0.1734165E-08 Eh
 * total energy  :  -101.7492891 Eh     change       -0.1519733E-03 Eh
 * total energy  :  -101.7493608 Eh     change       -0.7171685E-04 Eh
 * total energy  :  -101.7493642 Eh     change       -0.3377795E-05 Eh
 * total energy  :  -101.7493650 Eh     change       -0.8001642E-06 Eh
 * total energy  :  -101.7493655 Eh     change       -0.5308627E-06 Eh
 * total energy  :  -101.7493662 Eh     change       -0.7184177E-06 Eh
 * total energy  :  -101.7493669 Eh     change       -0.7208107E-06 Eh
 * total energy  :  -101.7493674 Eh     change       -0.5102645E-06 Eh
 * total energy  :  -101.7493679 Eh     change       -0.4240050E-06 Eh
 * total energy  :  -101.7493683 Eh     change       -0.4453673E-06 Eh
 * total energy  :  -101.7493686 Eh     change       -0.2890595E-06 Eh
 * total energy  :  -101.7493688 Eh     change       -0.2020356E-06 Eh
 * total energy  :  -101.7493690 Eh     change       -0.1540356E-06 Eh
 * total energy  :  -101.7493690 Eh     change       -0.6339010E-07 Eh
   *** GEOMETRY OPTIMIZATION CONVERGED AFTER 15 ITERATIONS ***

 final structure:
================
55
 xtb: 6.7.1 (edcfbbe)
C           -4.60338060380977        5.79424882403072        0.00830922200473
C           -3.14508083527480        5.46464016236795        0.00350725517812
C           -2.67598922137939        4.16373532421531        0.00183580235589
C           -1.30428781441882        3.88027615345509       -0.00107343813815
C           -0.84609131464631        2.51085287674185       -0.00295229512419
N           -1.75932154335331        1.52821781832066       -0.00443370166278
C           -1.37847852688567        0.27722244991106       -0.00788416530910
N           -2.21522319276728       -0.72767205511523       -0.00779184474832
C           -1.75533762107959       -1.98779254768752       -0.01103167318338
C           -2.71080531650877       -3.07045681736625       -0.00531146322255
C           -4.08440014793167       -2.80027829058670        0.00078094416071
C           -4.98905379197705       -3.84057462346933        0.00902525948571
C           -4.51653178882279       -5.14204065389768        0.01186093311580
F           -5.41495964738805       -6.15228192768112        0.02048502494418
C           -3.15700134632548       -5.45783261397837        0.00541386307502
C           -2.70899178436972       -6.88426520304237        0.01358433271378
C           -2.26739606863680       -4.39909136541900       -0.00359592469210
N           -0.44775452327948       -2.28712837591703       -0.01672635834626
C            0.44515085744443       -1.33186203366957       -0.01600036991036
N            1.73370768800295       -1.55413112788308       -0.01773041585919
C            2.59518587655667       -0.52592069654313       -0.01032044822541
C            4.01050518420054       -0.81251373350144       -0.00657140504537
C            4.46332093855753       -2.13708620842215       -0.02369911733039
C            5.81647917371820       -2.40093795929870       -0.01816851116861
C            6.70756313767506       -1.34149042305842        0.00497979942161
F            8.03162105758210       -1.61468990400712        0.01113668858039
C            6.30137187825298       -0.00634346184841        0.02354048106437
C            7.31337180693851        1.09404650929728        0.04526280719832
C            4.93976005737508        0.23529400797826        0.01691793309117
N            2.20071508768874        0.75619238757053       -0.00431755515716
C            0.92688262481528        1.05174721816970       -0.00590238700303
N            0.47515047719452        2.27881706922606       -0.00255555051588
N           -0.00216467917972       -0.00091842307019       -0.01140721907564
C           -0.38140523513623        4.93300348354481       -0.00249184563576
C           -0.82695857870948        6.23765493807348       -0.00128347245281
C           -2.18971295690189        6.48220331760705        0.00174167981328
F           -2.61300712584846        7.76617860908611        0.00288597510145
H           -4.85161356812009        6.40538048378533       -0.85835085603432
H           -4.85236017108625        6.37272007891017        0.89704702508676
H           -5.20190089795201        4.88900068463221       -0.00819551415331
H           -3.36903041465362        3.33632461011850        0.00286738761695
H           -4.41536174355465       -1.77404748331076       -0.00092902397996
H           -6.05260627355926       -3.66172857810515        0.01366624671871
H           -3.16158408022786       -7.42505515010309       -0.81615750177909
H           -1.62812103658130       -6.94751473617563       -0.06233169624187
H           -3.03123727150167       -7.37032244463920        0.93379411934954
H           -1.20387458450936       -4.58309489293122       -0.00890336361399
H            3.74049578349280       -2.93696937375949       -0.04105431104780
H            6.19294420970058       -3.41150911078541       -0.03101347068174
H            7.90239307196759        1.07588853926580       -0.87104133838483
H            8.00149289144725        0.95483829991531        0.87756735263536
H            6.82797306358076        2.06050334385579        0.13682512177816
H            4.56773979656116        1.24840331445972        0.03077413438757
H            0.67233757108726        4.70429569666222       -0.00474994228214
H           -0.13827752356333        7.06761286467180       -0.00260439177211

          :  Hamiltonian                  GFN2-xTB          :
         :: gradient norm              0.000071400442 Eh/a0 ::
         :: HOMO-LUMO gap              0.582188644258 eV    ::
         :: SCC energy              -103.217194868190 Eh    ::
         :: -> dispersion             -0.067197564552 Eh    ::
         :: -> Gsolv                  -0.052131666345 Eh    ::
         :: repulsion energy           1.467825846913 Eh    ::

    * Orbital Energies and Occupations

         #    Occupation            Energy/Eh            Energy/eV
      -------------------------------------------------------------
         1        2.0000           -0.8382903             -22.8110
       ...           ...                  ...                  ...
        80        2.0000           -0.4547801             -12.3752
        81        2.0000           -0.4547722             -12.3750
        82        2.0000           -0.4436384             -12.0720
        83        2.0000           -0.4401222             -11.9763
        84        2.0000           -0.4386828             -11.9372
        85        2.0000           -0.4386718             -11.9369
        86        2.0000           -0.4337994             -11.8043
        87        1.9990           -0.4289241             -11.6716
        88        1.9942           -0.4272576             -11.6263
        89        1.9942           -0.4272470             -11.6260
        90        1.5065           -0.4223893             -11.4938
        91        1.5061           -0.4223881             -11.4938
        92        1.0000           -0.3445040              -9.3744 (HOMO)
        93        0.0000           -0.3231091              -8.7922 (LUMO)
        94        0.0000           -0.3231037              -8.7921
        95                         -0.2613075              -7.1105
        96                         -0.2613006              -7.1104
        97                         -0.2580165              -7.0210
        98                         -0.2576418              -7.0108
        99                         -0.2576294              -7.0105
       100                         -0.2447853              -6.6609
       101                         -0.1991078              -5.4180
       102                         -0.1991015              -5.4178
       103                         -0.1488029              -4.0491
       ...                                ...                  ...
       166                          0.6365746              17.3221
      -------------------------------------------------------------
                  HL-Gap            0.0213950 Eh            0.5822 eV

     #   Z          covCN         q      C6AA      α(0)
     1   6 C        3.758    -0.117    22.788     6.806
     2   6 C        2.960     0.014    27.709     8.634
     3   6 C        2.933    -0.041    29.024     8.835
     4   6 C        2.980    -0.012    28.320     8.729
     5   6 C        2.927     0.191    23.940     8.024
     6   7 N        1.850    -0.285    28.251     7.877
     7   6 C        2.865     0.288    22.131     7.711
     8   7 N        1.850    -0.286    28.260     7.879
     9   6 C        2.927     0.191    23.940     8.024
    10   6 C        2.980    -0.012    28.320     8.729
    11   6 C        2.927    -0.033    28.823     8.804
    12   6 C        2.913    -0.047    29.166     8.856
    13   6 C        2.793     0.163    24.464     8.102
    14   9 F        0.787    -0.224    11.481     4.003
    15   6 C        2.960     0.014    27.709     8.634
    16   6 C        3.758    -0.117    22.788     6.806
    17   6 C        2.933    -0.041    29.025     8.835
    18   7 N        1.850    -0.285    28.250     7.877
    19   6 C        2.865     0.288    22.131     7.711
    20   7 N        1.850    -0.286    28.260     7.879
    21   6 C        2.927     0.191    23.940     8.024
    22   6 C        2.980    -0.012    28.320     8.729
    23   6 C        2.927    -0.033    28.823     8.804
    24   6 C        2.913    -0.047    29.167     8.856
    25   6 C        2.793     0.163    24.463     8.102
    26   9 F        0.787    -0.224    11.481     4.003
    27   6 C        2.960     0.014    27.709     8.634
    28   6 C        3.758    -0.117    22.789     6.806
    29   6 C        2.933    -0.041    29.025     8.835
    30   7 N        1.850    -0.285    28.251     7.878
    31   6 C        2.865     0.288    22.131     7.711
    32   7 N        1.850    -0.286    28.260     7.879
    33   7 N        2.770    -0.100    23.191     7.152
    34   6 C        2.927    -0.033    28.824     8.804
    35   6 C        2.913    -0.047    29.166     8.856
    36   6 C        2.793     0.163    24.464     8.102
    37   9 F        0.787    -0.224    11.481     4.002
    38   1 H        0.925     0.075     2.036     2.231
    39   1 H        0.925     0.075     2.035     2.231
    40   1 H        0.925     0.063     2.170     2.303
    41   1 H        0.926     0.067     2.124     2.279
    42   1 H        0.926     0.065     2.139     2.287
    43   1 H        0.926     0.079     1.986     2.204
    44   1 H        0.925     0.074     2.037     2.232
    45   1 H        0.925     0.063     2.169     2.303
    46   1 H        0.925     0.075     2.034     2.230
    47   1 H        0.926     0.067     2.123     2.279
    48   1 H        0.926     0.065     2.139     2.287
    49   1 H        0.926     0.079     1.986     2.204
    50   1 H        0.925     0.075     2.033     2.230
    51   1 H        0.925     0.074     2.038     2.232
    52   1 H        0.925     0.063     2.169     2.303
    53   1 H        0.926     0.067     2.123     2.279
    54   1 H        0.926     0.065     2.138     2.287
    55   1 H        0.926     0.079     1.986     2.204

molecular dipole:
                 x           y           z       tot (Debye)
 q only:        0.001       0.002       0.010
   full:        0.001       0.002       0.007       0.018

 projected vibrational frequencies (cm⁻¹)
eigval :       -0.00    -0.00    -0.00     0.00     0.00     0.00
eigval :      -20.60   -16.57     9.21    20.58    26.08    31.16
eigval :       36.35    37.64    47.77    49.21    70.08    88.93
eigval :       90.34   104.99   106.67   116.54   170.97   171.83
eigval :      181.77   186.17   187.61   187.93   225.83   227.01
eigval :      249.78   252.33   252.54   257.47   281.56   281.94
eigval :      311.87   339.86   341.30   347.49   407.41   407.96
eigval :      409.43   417.70   418.23   459.69   460.26   462.02
eigval :      489.56   507.92   508.44   527.13   527.46   529.63
eigval :      554.16   554.29   574.07   599.94   601.73   604.08
eigval :      604.60   640.32   640.53   645.44   645.93   664.94
eigval :      673.52   674.40   698.02   711.51   773.43   774.06
eigval :      776.40   793.20   794.19   807.81   830.61   831.35
eigval :      831.49   874.49   874.81   876.81   907.64   907.88
eigval :      907.96   939.91   941.20   986.83  1006.71  1007.58
eigval :     1017.59  1021.41  1022.25  1027.20  1028.64  1029.23
eigval :     1089.87  1090.72  1100.01  1107.89  1109.48  1129.65
eigval :     1153.44  1154.45  1166.40  1169.78  1171.28  1214.95
eigval :     1215.16  1223.82  1224.28  1224.80  1227.43  1280.58
eigval :     1280.62  1289.78  1316.83  1334.90  1335.98  1336.02
eigval :     1385.48  1385.76  1396.01  1396.09  1396.48  1409.53
eigval :     1409.81  1411.45  1454.57  1454.66  1454.96  1455.84
eigval :     1456.31  1463.71  1465.91  1467.06  1467.89  1484.14
eigval :     1487.05  1514.15  1514.26  1553.73  1553.86  1555.42
eigval :     1576.19  1578.37  1578.43  3012.46  3012.52  3012.95
eigval :     3027.43  3028.79  3029.32  3064.37  3064.65  3065.38
eigval :     3097.79  3098.18  3099.00  3103.28  3104.18  3104.38
eigval :     3112.67  3113.34  3113.52

   temp. (K)  partition function   enthalpy   heat capacity  entropy
                                   cal/mol     cal/K/mol   cal/K/mol   J/K/mol
 298.15  VIB  0.123E+16            18282.574    107.738    115.518
         ROT  0.655E+08              888.752      2.981     38.747
         INT  0.809E+23            19171.327    110.719    154.266
         TR   0.107E+29             1481.254      4.968     44.480
         TOT                       20652.5807   115.6867   198.7460   831.5531

       T/K    H(0)-H(T)+PV         H(T)/Eh          T*S/Eh         G(T)/Eh
   ------------------------------------------------------------------------
    298.15    0.329120E-01    0.418965E+00    0.944306E-01    0.324535E+00
   ------------------------------------------------------------------------

         :::::::::::::::::::::::::::::::::::::::::::::::::::::
         ::                  THERMODYNAMIC                  ::
         :::::::::::::::::::::::::::::::::::::::::::::::::::::
         :: total free energy        -101.424834193892 Eh   ::
         ::.................................................::
         :: total energy             -101.749369023655 Eh   ::
         :: zero point energy           0.386053462011 Eh   ::
         :: G(RRHO) w/o ZPVE           -0.061518632247 Eh   ::
         :: G(RRHO) contrib.            0.324534829763 Eh   ::
         :::::::::::::::::::::::::::::::::::::::::::::::::::::

           -------------------------------------------------
          | TOTAL ENERGY             -101.749369023655 Eh   |
          | TOTAL ENTHALPY           -101.330403579435 Eh   |
          | TOTAL FREE ENERGY        -101.424834193892 Eh   |
          | GRADIENT NORM               0.000071675771 Eh/α |
          | HOMO-LUMO GAP               0.582186283193 eV   |
           -------------------------------------------------

 * finished run on 2025/09/03 at 18:14:46.830
