   * xtb version 6.7.1 (edcfbbe) compiled by 'albert@albert-system' on 2024-07-22

   ID    Z sym.   atoms
    1    6 C      1-5, 7, 9-13, 15-17, 19, 21-25, 27-29, 31, 34-36
    2    7 N      6, 8, 18, 20, 30, 32, 33
    3    9 F      14, 26, 37
    4    1 H      38-55

          program call               : xtb data2507/toluene/HAP-3MF/HAP-3MF_toluene_S0_crest.xyz --gfn 2 --gbsa toluene --ohess vtight --parallel 40 --molden --ceasefiles --namespace data2507/toluene/HAP-3MF/HAP-3MF_toluene_S0_finalOpt
      * Solvation model:               GBSA
        Solvent                        toluene
        Solvent mass                       9.2140E+01 g/mol
          :  Hamiltonian                  GFN2-xTB          :
 * total energy  :  -101.8223087 Eh     change       -0.6666596E-09 Eh
 * total energy  :  -101.8225253 Eh     change       -0.2166318E-03 Eh
 * total energy  :  -101.8226044 Eh     change       -0.7903548E-04 Eh
 * total energy  :  -101.8226073 Eh     change       -0.2899552E-05 Eh
 * total energy  :  -101.8226051 Eh     change        0.2181623E-05 Eh
 * total energy  :  -101.8226077 Eh     change       -0.2569077E-05 Eh
 * total energy  :  -101.8226078 Eh     change       -0.1831610E-06 Eh
 * total energy  :  -101.8226082 Eh     change       -0.3457586E-06 Eh
 * total energy  :  -101.8226085 Eh     change       -0.2840753E-06 Eh
 * total energy  :  -101.8226087 Eh     change       -0.1877487E-06 Eh
 * total energy  :  -101.8226101 Eh     change       -0.2783912E-06 Eh
 * total energy  :  -101.8226103 Eh     change       -0.1330431E-06 Eh
 * total energy  :  -101.8226104 Eh     change       -0.1172643E-06 Eh
 * total energy  :  -101.8226105 Eh     change       -0.1610513E-06 Eh
 * total energy  :  -101.8226107 Eh     change       -0.2054830E-06 Eh
 * total energy  :  -101.8226110 Eh     change       -0.2152931E-06 Eh
 * total energy  :  -101.8226111 Eh     change       -0.1673242E-06 Eh
 * total energy  :  -101.8226112 Eh     change       -0.1167630E-06 Eh
 * total energy  :  -101.8226113 Eh     change       -0.1877282E-08 Eh
   *** GEOMETRY OPTIMIZATION CONVERGED AFTER 22 ITERATIONS ***

 final structure:
================
55
 xtb: 6.7.1 (edcfbbe)
C            3.34854867039875        6.57534739376313       -0.00362476054334
C            1.98508104241440        5.96299849610951       -0.00944968030876
C            1.78237134871196        4.59335642084179        0.00156514402487
C            0.49586081235895        4.04787126422563       -0.00539582238169
C            0.31853655289561        2.60024350598263        0.00375826910993
N            1.41965497506977        1.84938567481268        0.01439468995057
C            1.26879566805728        0.53875141750745        0.01534591539514
N            2.31657287728110       -0.26268192253865        0.02101136802953
C            2.09199115797280       -1.57656583392326        0.01358444286033
C            3.25788198666669       -2.45291168031561        0.01085900106671
C            4.54374834639937       -1.90857133119618        0.03507005369151
C            5.64201421907262       -2.74441315276313        0.02951603094309
C            5.44148107240957       -4.11365830563832       -0.00250860097111
F            6.52324549356123       -4.91972692584541       -0.00877813767318
C            4.17504196128251       -4.69857015604496       -0.02738676256611
C            4.02472065247409       -6.18514455660499       -0.06780872149137
C            3.08899690275836       -3.83963913084025       -0.01911056853856
N            0.89122141530428       -2.15496885694486        0.00614423774540
C           -0.16847935604487       -1.36891629640504        0.00547299254169
N           -1.38648364549748       -1.87557820613136        0.00222688654689
C           -2.41202704023264       -1.02401477553559        0.00134564392248
C           -3.75411907318088       -1.59509591343898        0.00104611233633
C           -3.92643352398937       -2.98098358862645        0.00112866953223
C           -5.19991857719595       -3.51315500888206        0.00155549284143
C           -6.28513156011184       -2.65394660725826        0.00179658606124
F           -7.52452927808401       -3.18669435648914        0.00251871577755
C           -6.15766117048411       -1.26453989923943        0.00174486998497
C           -7.36998254857027       -0.39031848759947        0.00090109166262
C           -4.87040505567656       -0.75451845102711        0.00134671009233
N           -2.31246833646868        0.30512064640912        0.00040351982282
C           -1.10189633041988        0.82979131453452        0.00264354223674
N           -0.93172229322258        2.13801814173377       -0.00057655354700
N           -0.00057903976339       -0.00014833670445        0.00781203031004
C           -0.61770852692701        4.89039975858184       -0.02351232804220
C           -0.44103855942388        6.25918418419764       -0.03488855162034
C            0.84599703107801        6.76854329610604       -0.02791053486822
F            1.00522157991034        8.10814050882032       -0.03926731211483
H            3.46022120202970        7.23180765530258        0.85810415750799
H            3.48867698727005        7.18327098657556       -0.89639307836637
H            4.11387396119830        5.80660871707761        0.02938693201343
H            2.62400791579701        3.91833558841173        0.01573016587146
H            4.65786714512953       -0.83700624287053        0.05811443536446
H            6.64718223038620       -2.35422355528825        0.04864262372100
H            4.43208724912545       -6.57446635631284       -1.00012997127643
H            4.58309071593189       -6.64199591255992        0.74759097207992
H            2.97942817836738       -6.46694285879931        0.00825266908833
H            2.08421516323115       -4.23240461776847       -0.03670127067558
H           -3.05589760263298       -3.61665693678716        0.00100741040834
H           -5.36530524307493       -4.57878693730899        0.00182122988052
H           -7.08709312600332        0.65720478406016        0.02188216532475
H           -7.99219451413334       -0.61280154307578        0.86651255964054
H           -7.96828269473269       -0.58282342003916       -0.88861110155311
H           -4.70743912311229        0.31206017552675        0.00125020849113
H           -1.60348909506360        4.45443470933641       -0.02869070977101
H           -1.28061845209776        6.93581946118648       -0.04919186456929

          :  Hamiltonian                  GFN2-xTB          :
         :: gradient norm              0.000030608435 Eh/a0 ::
         :: HOMO-LUMO gap              1.932824019632 eV    ::
         :: SCC energy              -103.291703086010 Eh    ::
         :: -> dispersion             -0.067560567159 Eh    ::
         :: -> Gsolv                  -0.059547268685 Eh    ::
         :: repulsion energy           1.469091835484 Eh    ::

    * Orbital Energies and Occupations

         #    Occupation            Energy/Eh            Energy/eV
      -------------------------------------------------------------
         1        2.0000           -0.8452973             -23.0017
       ...           ...                  ...                  ...
        79        2.0000           -0.4611788             -12.5493
        80        2.0000           -0.4595510             -12.5050
        81        2.0000           -0.4595446             -12.5048
        82        2.0000           -0.4468733             -12.1600
        83        2.0000           -0.4448162             -12.1041
        84        2.0000           -0.4448100             -12.1039
        85        2.0000           -0.4398001             -11.9676
        86        2.0000           -0.4346857             -11.8284
        87        2.0000           -0.4329368             -11.7808
        88        2.0000           -0.4329357             -11.7808
        89        2.0000           -0.4275495             -11.6342
        90        2.0000           -0.4186572             -11.3922
        91        2.0000           -0.4186512             -11.3921 (HOMO)
        92                         -0.3476212              -9.4593 (LUMO)
        93                         -0.3250228              -8.8443
        94                         -0.3250133              -8.8441
        95                         -0.2672115              -7.2712
        96                         -0.2671950              -7.2707
        97                         -0.2651667              -7.2156
        98                         -0.2645008              -7.1974
        99                         -0.2644919              -7.1972
       100                         -0.2508405              -6.8257
       101                         -0.2040359              -5.5521
       102                         -0.2040320              -5.5520
       ...                                ...                  ...
       166                          0.6380096              17.3611
      -------------------------------------------------------------
                  HL-Gap            0.0710300 Eh            1.9328 eV

     #   Z          covCN         q      C6AA      α(0)
     1   6 C        3.758    -0.119    22.837     6.813
     2   6 C        2.960     0.015    27.683     8.630
     3   6 C        2.933    -0.037    28.932     8.821
     4   6 C        2.983    -0.016    28.412     8.744
     5   6 C        2.960     0.224    23.304     7.918
     6   7 N        1.851    -0.341    29.702     8.077
     7   6 C        2.918     0.311    21.733     7.645
     8   7 N        1.851    -0.341    29.719     8.080
     9   6 C        2.960     0.224    23.304     7.918
    10   6 C        2.983    -0.016    28.412     8.744
    11   6 C        2.926    -0.029    28.732     8.791
    12   6 C        2.914    -0.047    29.160     8.855
    13   6 C        2.794     0.169    24.356     8.084
    14   9 F        0.787    -0.215    11.391     3.987
    15   6 C        2.960     0.015    27.683     8.630
    16   6 C        3.758    -0.119    22.838     6.813
    17   6 C        2.933    -0.037    28.932     8.821
    18   7 N        1.851    -0.341    29.702     8.077
    19   6 C        2.918     0.311    21.733     7.645
    20   7 N        1.851    -0.341    29.719     8.080
    21   6 C        2.960     0.224    23.305     7.918
    22   6 C        2.983    -0.016    28.412     8.744
    23   6 C        2.926    -0.029    28.732     8.790
    24   6 C        2.914    -0.047    29.161     8.855
    25   6 C        2.794     0.169    24.356     8.084
    26   9 F        0.787    -0.215    11.391     3.987
    27   6 C        2.960     0.015    27.684     8.630
    28   6 C        3.758    -0.119    22.837     6.813
    29   6 C        2.933    -0.037    28.932     8.821
    30   7 N        1.851    -0.341    29.702     8.077
    31   6 C        2.918     0.311    21.733     7.645
    32   7 N        1.851    -0.341    29.720     8.080
    33   7 N        2.770    -0.055    22.297     7.013
    34   6 C        2.926    -0.029    28.732     8.790
    35   6 C        2.914    -0.047    29.160     8.855
    36   6 C        2.794     0.169    24.356     8.084
    37   9 F        0.787    -0.215    11.391     3.987
    38   1 H        0.925     0.078     1.997     2.210
    39   1 H        0.925     0.078     1.997     2.210
    40   1 H        0.925     0.065     2.145     2.290
    41   1 H        0.926     0.071     2.073     2.252
    42   1 H        0.926     0.070     2.088     2.259
    43   1 H        0.926     0.084     1.935     2.175
    44   1 H        0.925     0.078     1.996     2.209
    45   1 H        0.925     0.078     1.999     2.211
    46   1 H        0.925     0.065     2.144     2.290
    47   1 H        0.926     0.071     2.074     2.252
    48   1 H        0.926     0.070     2.088     2.259
    49   1 H        0.926     0.084     1.935     2.175
    50   1 H        0.925     0.065     2.145     2.290
    51   1 H        0.925     0.078     1.997     2.210
    52   1 H        0.925     0.078     1.996     2.209
    53   1 H        0.926     0.071     2.074     2.252
    54   1 H        0.926     0.070     2.087     2.259
    55   1 H        0.926     0.084     1.935     2.175

molecular dipole:
                 x           y           z       tot (Debye)
 q only:       -0.001       0.001      -0.021
   full:       -0.001       0.000      -0.021       0.053

 projected vibrational frequencies (cm⁻¹)
eigval :       -0.00    -0.00    -0.00    -0.00     0.00     0.00
eigval :      -31.42   -10.27     6.65     9.20    21.34    22.93
eigval :       39.38    39.58    43.43    44.69    88.67    93.74
eigval :       94.53    95.99   109.64   166.01   166.78   179.52
eigval :      183.40   185.57   196.00   196.14   218.31   220.01
eigval :      221.86   256.26   256.40   257.83   288.35   288.47
eigval :      314.81   335.52   336.58   350.38   408.10   409.15
eigval :      409.55   429.80   430.30   464.14   499.33   499.38
eigval :      507.84   518.70   519.56   532.64   544.85   545.12
eigval :      571.44   571.91   576.20   618.43   639.95   642.90
eigval :      643.84   657.12   657.42   682.22   683.15   697.56
eigval :      724.53   726.24   730.90   780.13   780.18   780.22
eigval :      780.60   827.57   839.95   840.86   842.32   854.12
eigval :      854.48   888.43   889.08   890.12   915.26   915.66
eigval :      917.56   975.86   976.41   994.95  1012.54  1013.07
eigval :     1022.79  1029.08  1029.81  1031.89  1100.03  1100.91
eigval :     1106.18  1111.36  1112.27  1152.24  1164.48  1165.19
eigval :     1175.56  1176.24  1176.93  1179.37  1218.76  1218.91
eigval :     1222.42  1223.98  1224.37  1248.21  1268.18  1268.30
eigval :     1327.26  1337.31  1337.36  1337.52  1351.87  1351.98
eigval :     1394.47  1395.93  1397.29  1411.30  1413.21  1413.70
eigval :     1453.69  1453.97  1454.37  1459.11  1463.09  1464.54
eigval :     1468.77  1472.01  1472.61  1475.94  1496.40  1510.57
eigval :     1510.64  1552.61  1552.74  1569.48  1578.60  1578.76
eigval :     1587.41  1597.29  1597.36  3014.18  3014.61  3014.97
eigval :     3029.39  3029.81  3030.85  3066.35  3066.65  3066.82
eigval :     3105.37  3106.39  3106.51  3108.55  3108.59  3109.54
eigval :     3118.16  3118.96  3119.29

   temp. (K)  partition function   enthalpy   heat capacity  entropy
                                   cal/mol     cal/K/mol   cal/K/mol   J/K/mol
 298.15  VIB  0.488E+16            17928.603    105.034    114.716
         ROT  0.649E+08              888.752      2.981     38.729
         INT  0.317E+24            18817.355    108.015    153.444
         TR   0.107E+29             1481.254      4.968     44.480
         TOT                       20298.6094   112.9827   197.9245   828.1160

       T/K    H(0)-H(T)+PV         H(T)/Eh          T*S/Eh         G(T)/Eh
   ------------------------------------------------------------------------
    298.15    0.323479E-01    0.423626E+00    0.940403E-01    0.329586E+00
   ------------------------------------------------------------------------

         :::::::::::::::::::::::::::::::::::::::::::::::::::::
         ::                  THERMODYNAMIC                  ::
         :::::::::::::::::::::::::::::::::::::::::::::::::::::
         :: total free energy        -101.493025111615 Eh   ::
         ::.................................................::
         :: total energy             -101.822611247579 Eh   ::
         :: zero point energy           0.391278551008 Eh   ::
         :: G(RRHO) w/o ZPVE           -0.061692415044 Eh   ::
         :: G(RRHO) contrib.            0.329586135964 Eh   ::
         :::::::::::::::::::::::::::::::::::::::::::::::::::::

           -------------------------------------------------
          | TOTAL ENERGY             -101.822611247579 Eh   |
          | TOTAL ENTHALPY           -101.398984803511 Eh   |
          | TOTAL FREE ENERGY        -101.493025111615 Eh   |
          | GRADIENT NORM               0.000030587546 Eh/α |
          | HOMO-LUMO GAP               1.932823874835 eV   |
           -------------------------------------------------

 * finished run on 2025/09/03 at 18:11:23.830
