   * xtb version 6.7.1 (edcfbbe) compiled by 'albert@albert-system' on 2024-07-22

   ID    Z sym.   atoms
    1    6 C      1-5, 7, 9-13, 15-17, 19, 21-25, 27-29, 31, 34-36
    2    7 N      6, 8, 18, 20, 30, 32, 33
    3    9 F      14, 26, 37
    4    1 H      38-55

          program call               : xtb data2507/toluene/HAP-3MF/HAP-3MF.xyz --gfn 2 --gbsa toluene --ohess vtight --parallel 40 --molden --ceasefiles --namespace data2507/toluene/HAP-3MF/HAP-3MF_toluene_S0_preOpt
      * Solvation model:               GBSA
        Solvent                        toluene
        Solvent mass                       9.2140E+01 g/mol
          :  Hamiltonian                  GFN2-xTB          :
 * total energy  :  -101.8037789 Eh     change       -0.2729493E-08 Eh
 * total energy  :  -101.8153872 Eh     change       -0.1160830E-01 Eh
 * total energy  :  -101.8211159 Eh     change       -0.5728698E-02 Eh
 * total energy  :  -101.8220157 Eh     change       -0.8997294E-03 Eh
 * total energy  :  -101.8223365 Eh     change       -0.3208772E-03 Eh
 * total energy  :  -101.8224238 Eh     change       -0.8727843E-04 Eh
 * total energy  :  -101.8224589 Eh     change       -0.3504155E-04 Eh
 * total energy  :  -101.8224812 Eh     change       -0.2231840E-04 Eh
 * total energy  :  -101.8224910 Eh     change       -0.9830033E-05 Eh
 * total energy  :  -101.8225060 Eh     change       -0.1495020E-04 Eh
 * total energy  :  -101.8226379 Eh     change       -0.9075955E-06 Eh
 * total energy  :  -101.8226387 Eh     change       -0.8670722E-06 Eh
 * total energy  :  -101.8226394 Eh     change       -0.6529623E-06 Eh
 * total energy  :  -101.8226400 Eh     change       -0.6050179E-06 Eh
 * total energy  :  -101.8226403 Eh     change       -0.2726415E-06 Eh
 * total energy  :  -101.8226403 Eh     change       -0.1901721E-07 Eh
 * total energy  :  -101.8226404 Eh     change       -0.1694655E-06 Eh
 * total energy  :  -101.8226406 Eh     change       -0.1946286E-06 Eh
 * total energy  :  -101.8226406 Eh     change       -0.7720431E-08 Eh
   *** GEOMETRY OPTIMIZATION CONVERGED AFTER 44 ITERATIONS ***

 final structure:
================
55
 xtb: 6.7.1 (edcfbbe)
C            3.97244020704420        5.83437886896739       -0.01782606415373
C            2.53900406688563        5.41127941002421       -0.00504703367079
C            2.15428512697246        4.08118857704699       -0.00608980334001
C            0.80632214340374        3.71306803840142        0.00029292604530
C            0.43626319914603        2.30231461175697       -0.00128019295555
N            1.42655133240759        1.41011999442684       -0.00057821633280
C            1.10050217119039        0.13172235786928       -0.00142082721619
N            2.03112167697575       -0.80341917613360        0.00041543557072
C            1.63166664443332       -2.07510193801568       -0.00074763927637
C            2.66727399905988       -3.10202722733853        0.00209138475585
C            2.31419607103565       -4.45311678241783        0.00477944136169
C            3.30028958464800       -5.41883740187500        0.00731053276690
C            4.62637763893069       -5.02197168086497        0.00635607657212
F            5.58071865669957       -5.97552156368132        0.00845980260676
C            5.02234721434181       -3.68407402946323        0.00397800599654
C            6.47218100803254       -3.32058598960954       -0.00025397041205
C            4.01522427058791       -2.73389206085532        0.00215149318273
N            0.36397525736909       -2.48665145902542       -0.00452587613681
C           -0.58024580275514       -1.56531444203029       -0.00606141869517
N           -1.85538931538735       -1.90328388287501       -0.00867964894652
C           -2.75694901444998       -0.92156067322159       -0.00772127844621
C           -4.16363368841362       -1.30699711292218       -0.00693620659722
C           -4.52039590925265       -2.65715169764191       -0.01344637156992
C           -5.85373023585541       -3.01372467021183       -0.01054826102470
C           -6.81364509967074       -2.01650695373285        0.00018687684267
F           -8.11332750440926       -2.37817948038494        0.00356530643904
C           -6.50084631775705       -0.65683379493333        0.00662197109304
C           -7.58493828642288        0.37207003266337        0.02227117998861
C           -5.15680154336973       -0.32408757457211        0.00226313747046
N           -2.47957071262438        0.38215592389932       -0.00604401134540
C           -1.20943444799436        0.73895942950723       -0.00455589817056
N           -0.86475900574604        2.01236327497517       -0.00302373013381
N           -0.22971731741159       -0.23149486713892       -0.00407143495220
C           -0.18412838486670        4.69755624109770        0.00868594746354
C            0.17457844933748        6.03030048724414        0.01082625257609
C            1.51830068015210        6.36246827674760        0.00364364755035
F            1.85549159492167        7.66869364981697        0.00584280356945
H            4.17324765391946        6.50652146958446        0.81484071025509
H            4.19135612257288        6.37870428838849       -0.93567292599718
H            4.62727502720954        4.97158274360445        0.04915523517106
H            2.89792407906137        3.29943652403425       -0.01208117358054
H            1.26995892944764       -4.72064898799893        0.00512979674159
H            3.05953590697481       -6.47005338152030        0.00974164922364
H            6.97730781511491       -3.78297901955909        0.84633265138889
H            6.94712171722721       -3.69442630128910       -0.90642559885320
H            6.59746017948906       -2.24379700892098        0.04997956353894
H            4.25802943593178       -1.68260208103389        0.00068158695579
H           -3.74281036564322       -3.40367269059997       -0.02066578283615
H           -6.16056379635799       -4.04757733369024       -0.01577297445389
H           -7.16597044306646        1.37134325450685       -0.03834206363649
H           -8.16839725138369        0.28384901304052        0.93790679739931
H           -8.26468277014931        0.21368347192704       -0.81341371772174
H           -4.85208787899683        0.71097393240840        0.00640107481943
H           -1.21955599052494        4.39787414348361        0.01360114296779
H           -0.56674877801413        6.81348224813486        0.01771869014158

          :  Hamiltonian                  GFN2-xTB          :
         :: gradient norm              0.000045043506 Eh/a0 ::
         :: HOMO-LUMO gap              1.929752897707 eV    ::
         :: SCC energy              -103.291801252882 Eh    ::
         :: -> dispersion             -0.067562893474 Eh    ::
         :: -> Gsolv                  -0.059630505913 Eh    ::
         :: repulsion energy           1.469160603140 Eh    ::

    * Orbital Energies and Occupations

         #    Occupation            Energy/Eh            Energy/eV
      -------------------------------------------------------------
         1        2.0000           -0.8453118             -23.0021
       ...           ...                  ...                  ...
        79        2.0000           -0.4611799             -12.5493
        80        2.0000           -0.4599606             -12.5162
        81        2.0000           -0.4591930             -12.4953
        82        2.0000           -0.4467635             -12.1571
        83        2.0000           -0.4451046             -12.1119
        84        2.0000           -0.4447133             -12.1013
        85        2.0000           -0.4396440             -11.9633
        86        2.0000           -0.4348481             -11.8328
        87        2.0000           -0.4330197             -11.7831
        88        2.0000           -0.4327525             -11.7758
        89        2.0000           -0.4275537             -11.6343
        90        2.0000           -0.4187849             -11.3957
        91        2.0000           -0.4185367             -11.3890 (HOMO)
        92                         -0.3476195              -9.4592 (LUMO)
        93                         -0.3250218              -8.8443
        94                         -0.3250112              -8.8440
        95                         -0.2674623              -7.2780
        96                         -0.2668892              -7.2624
        97                         -0.2651358              -7.2147
        98                         -0.2647906              -7.2053
        99                         -0.2642722              -7.1912
       100                         -0.2508293              -6.8254
       101                         -0.2040413              -5.5522
       102                         -0.2040163              -5.5516
       ...                                ...                  ...
       166                          0.6383231              17.3697
      -------------------------------------------------------------
                  HL-Gap            0.0709171 Eh            1.9298 eV

     #   Z          covCN         q      C6AA      α(0)
     1   6 C        3.758    -0.119    22.839     6.814
     2   6 C        2.960     0.015    27.683     8.630
     3   6 C        2.933    -0.038    28.933     8.821
     4   6 C        2.983    -0.016    28.411     8.743
     5   6 C        2.960     0.224    23.307     7.919
     6   7 N        1.851    -0.340    29.684     8.075
     7   6 C        2.918     0.310    21.747     7.647
     8   7 N        1.851    -0.340    29.688     8.075
     9   6 C        2.960     0.224    23.304     7.918
    10   6 C        2.983    -0.016    28.413     8.744
    11   6 C        2.926    -0.029    28.731     8.790
    12   6 C        2.914    -0.047    29.160     8.855
    13   6 C        2.794     0.169    24.356     8.084
    14   9 F        0.787    -0.215    11.391     3.987
    15   6 C        2.960     0.015    27.682     8.630
    16   6 C        3.758    -0.119    22.839     6.814
    17   6 C        2.933    -0.038    28.934     8.822
    18   7 N        1.851    -0.342    29.735     8.082
    19   6 C        2.918     0.312    21.719     7.642
    20   7 N        1.851    -0.342    29.738     8.082
    21   6 C        2.960     0.224    23.302     7.918
    22   6 C        2.983    -0.016    28.414     8.744
    23   6 C        2.926    -0.029    28.732     8.790
    24   6 C        2.914    -0.047    29.160     8.855
    25   6 C        2.794     0.169    24.356     8.084
    26   9 F        0.787    -0.215    11.391     3.987
    27   6 C        2.960     0.015    27.684     8.630
    28   6 C        3.758    -0.119    22.838     6.813
    29   6 C        2.933    -0.037    28.932     8.821
    30   7 N        1.851    -0.341    29.705     8.078
    31   6 C        2.918     0.311    21.733     7.645
    32   7 N        1.851    -0.341    29.717     8.079
    33   7 N        2.770    -0.055    22.296     7.013
    34   6 C        2.926    -0.029    28.732     8.790
    35   6 C        2.914    -0.047    29.160     8.855
    36   6 C        2.794     0.169    24.356     8.084
    37   9 F        0.787    -0.215    11.392     3.987
    38   1 H        0.925     0.078     1.999     2.211
    39   1 H        0.925     0.078     1.995     2.209
    40   1 H        0.925     0.065     2.141     2.288
    41   1 H        0.926     0.071     2.070     2.250
    42   1 H        0.926     0.069     2.093     2.262
    43   1 H        0.926     0.084     1.938     2.177
    44   1 H        0.925     0.078     1.998     2.210
    45   1 H        0.925     0.078     1.995     2.209
    46   1 H        0.925     0.065     2.141     2.288
    47   1 H        0.926     0.072     2.068     2.249
    48   1 H        0.926     0.069     2.092     2.262
    49   1 H        0.926     0.084     1.937     2.176
    50   1 H        0.925     0.065     2.143     2.289
    51   1 H        0.925     0.078     1.995     2.209
    52   1 H        0.925     0.078     1.998     2.210
    53   1 H        0.926     0.071     2.072     2.251
    54   1 H        0.926     0.070     2.089     2.260
    55   1 H        0.926     0.084     1.936     2.176

molecular dipole:
                 x           y           z       tot (Debye)
 q only:        0.571       0.575      -0.002
   full:        0.472       0.475      -0.005       1.703

 projected vibrational frequencies (cm⁻¹)
eigval :       -0.00    -0.00    -0.00    -0.00     0.00     0.00
eigval :      -36.68    -4.42     6.64    21.27    22.06    35.08
eigval :       39.30    41.48    43.52    43.93    56.10    93.61
eigval :       94.24    95.85   109.83   164.86   168.09   175.57
eigval :      180.83   183.07   192.13   211.30   216.72   219.38
eigval :      219.95   247.97   257.32   261.65   287.89   289.41
eigval :      315.40   335.73   337.97   350.57   408.63   409.62
eigval :      412.62   428.92   434.04   460.79   497.67   508.63
eigval :      510.46   519.43   520.52   524.10   541.86   551.45
eigval :      570.44   572.43   578.21   618.19   640.05   643.36
eigval :      643.84   657.29   657.56   682.94   683.48   697.93
eigval :      724.36   725.71   731.02   779.99   780.12   780.31
eigval :      780.55   827.57   844.28   844.80   845.54   851.42
eigval :      857.89   890.60   891.45   893.32   919.65   919.84
eigval :      920.71   975.45   977.96   996.16  1012.96  1014.57
eigval :     1023.95  1028.28  1029.59  1030.77  1101.36  1102.01
eigval :     1107.49  1112.72  1113.26  1153.64  1164.75  1166.94
eigval :     1175.71  1176.88  1178.19  1179.38  1219.55  1219.86
eigval :     1224.04  1225.20  1226.35  1248.45  1266.73  1270.56
eigval :     1327.17  1336.79  1337.53  1338.79  1349.04  1355.18
eigval :     1394.33  1395.84  1395.98  1410.05  1412.57  1416.13
eigval :     1454.00  1454.06  1454.25  1459.81  1463.46  1464.11
eigval :     1468.80  1470.51  1472.83  1477.77  1496.55  1510.53
eigval :     1510.68  1552.16  1553.42  1569.98  1578.16  1579.34
eigval :     1587.68  1597.26  1597.73  3014.08  3014.41  3015.54
eigval :     3030.33  3030.91  3031.13  3066.87  3066.99  3067.14
eigval :     3106.59  3106.92  3107.32  3108.84  3108.94  3109.03
eigval :     3119.14  3119.47  3119.71

   temp. (K)  partition function   enthalpy   heat capacity  entropy
                                   cal/mol     cal/K/mol   cal/K/mol   J/K/mol
 298.15  VIB  0.467E+16            17933.748    104.876    115.064
         ROT  0.647E+08              888.752      2.981     38.721
         INT  0.302E+24            18822.501    107.857    153.785
         TR   0.107E+29             1481.254      4.968     44.480
         TOT                       20303.7546   112.8249   198.2653   829.5420

       T/K    H(0)-H(T)+PV         H(T)/Eh          T*S/Eh         G(T)/Eh
   ------------------------------------------------------------------------
    298.15    0.323561E-01    0.423780E+00    0.942022E-01    0.329578E+00
   ------------------------------------------------------------------------

         :::::::::::::::::::::::::::::::::::::::::::::::::::::
         ::                  THERMODYNAMIC                  ::
         :::::::::::::::::::::::::::::::::::::::::::::::::::::
         :: total free energy        -101.493062637026 Eh   ::
         ::.................................................::
         :: total energy             -101.822640650560 Eh   ::
         :: zero point energy           0.391424163402 Eh   ::
         :: G(RRHO) w/o ZPVE           -0.061846149868 Eh   ::
         :: G(RRHO) contrib.            0.329578013534 Eh   ::
         :::::::::::::::::::::::::::::::::::::::::::::::::::::

           -------------------------------------------------
          | TOTAL ENERGY             -101.822640650560 Eh   |
          | TOTAL ENTHALPY           -101.398860394593 Eh   |
          | TOTAL FREE ENERGY        -101.493062637026 Eh   |
          | GRADIENT NORM               0.000045043278 Eh/α |
          | HOMO-LUMO GAP               1.929752858720 eV   |
           -------------------------------------------------

 * finished run on 2025/09/03 at 18:09:24.176
