   * xtb version 6.7.1 (edcfbbe) compiled by 'albert@albert-system' on 2024-07-22

   ID    Z sym.   atoms
    1    6 C      1-5, 7, 9-13, 15-17, 19, 21-25, 27-29, 31, 34-36
    2    7 N      6, 8, 18, 20, 30, 32, 33
    3    9 F      14, 26, 37
    4    1 H      38-55

          program call               : xtb data2507/toluene/HAP-3MF/HAP-3MF_toluene_S0_finalOpt.xtbopt.xyz --gfn 2 --uhf 2 --gbsa toluene --ohess vtight --parallel 40 --molden --ceasefiles --namespace data2507/toluene/HAP-3MF/HAP-3MF_toluene_T1_preOpt
      * Solvation model:               GBSA
        Solvent                        toluene
        Solvent mass                       9.2140E+01 g/mol
          :  Hamiltonian                  GFN2-xTB          :
 * total energy  :  -101.7452954 Eh     change       -0.1074746E-07 Eh
 * total energy  :  -101.7478930 Eh     change       -0.2597535E-02 Eh
 * total energy  :  -101.7493196 Eh     change       -0.1426617E-02 Eh
 * total energy  :  -101.7493620 Eh     change       -0.4245639E-04 Eh
 * total energy  :  -101.7493729 Eh     change       -0.1089644E-04 Eh
 * total energy  :  -101.7493740 Eh     change       -0.1057015E-05 Eh
 * total energy  :  -101.7493735 Eh     change        0.4792048E-06 Eh
 * total energy  :  -101.7493744 Eh     change       -0.8386100E-06 Eh
 * total energy  :  -101.7493739 Eh     change        0.4817676E-06 Eh
 * total energy  :  -101.7493745 Eh     change       -0.6553702E-06 Eh
 * total energy  :  -101.7493746 Eh     change       -0.1047161E-06 Eh
 * total energy  :  -101.7493748 Eh     change       -0.1641144E-06 Eh
 * total energy  :  -101.7493749 Eh     change       -0.1325116E-06 Eh
 * total energy  :  -101.7493749 Eh     change        0.4552989E-07 Eh
 * total energy  :  -101.7493750 Eh     change       -0.9483149E-07 Eh
   *** GEOMETRY OPTIMIZATION CONVERGED AFTER 15 ITERATIONS ***

 final structure:
================
55
 xtb: 6.7.1 (edcfbbe)
C            3.35299628157240        6.59351328222605       -0.00434103867528
C            1.98912455538867        5.98093368407803       -0.00964967436397
C            1.78749087735446        4.61286764151797        0.00251221136782
C            0.49924134732170        4.06291268324935       -0.00386358837409
C            0.32299610354988        2.62975438159606        0.00583742285449
N            1.41430142596699        1.84983148990296        0.01686740548556
C            1.29177098163837        0.54795806941681        0.01773318779665
N            2.31272287117028       -0.26894169549040        0.02296542306387
C            2.11497452827310       -1.59569952834165        0.01552496006141
C            3.26913688830076       -2.46354170815899        0.01142610087676
C            4.55976753752731       -1.92139137628753        0.03131718197641
C            5.65633164455369       -2.75690302789716        0.02348579102416
C            5.45701387246467       -4.12674211072562       -0.00632069385792
F            6.54122657233002       -4.93438241982230       -0.01507601371348
C            4.18955469694147       -4.71076516574962       -0.02663397968509
C            4.03995823951674       -6.19793173812655       -0.06503278848940
C            3.10389095831135       -3.85412246709498       -0.01616816383725
N            0.89394834546978       -2.15112000228340        0.00834262841644
C           -0.17226120306014       -1.39390399495193        0.00729456922694
N           -1.39024362299076       -1.86961004844652        0.00356113953524
C           -2.44035027981241       -1.03485171610572        0.00180315805821
C           -3.76934044498878       -1.59973668947729        0.00094277850136
C           -3.94651157497325       -2.98850871705616        0.00141712254690
C           -5.21909687864271       -3.51883043410012        0.00148630347353
C           -6.30509596172682       -2.66003123674244        0.00096749923327
F           -7.54730422965797       -3.19363635652955        0.00137996807105
C           -6.17576939720958       -1.27031575752260        0.00052755612693
C           -7.38857010601493       -0.39597025694553       -0.00085450971253
C           -4.89045728112406       -0.76001812465934        0.00049427702332
N           -2.31073574797884        0.30032384284340        0.00070010391205
C           -1.12193859336190        0.84514939485995        0.00380724387423
N           -0.92499472828716        2.13788477760677        0.00096402549057
N           -0.00086903229230       -0.00028681151510        0.00994322098434
C           -0.61432189156182        4.91117466956643       -0.02244044523849
C           -0.43635512003550        6.27822673863826       -0.03487816213274
C            0.85077765283467        6.78833739137058       -0.02856256716477
F            1.01081161848712        8.13076748632152       -0.04115025178825
H            3.46656278903203        7.24621783158154        0.86013869621890
H            3.49122913070477        7.20532032009661       -0.89485402984816
H            4.11900403194568        5.82510815319346        0.02388414493432
H            2.63085494465432        3.93943417999331        0.01700724463317
H            4.67629628230839       -0.84967735955503        0.05287317478271
H            6.66165320994981       -2.36673738760187        0.03915876400972
H            4.44976888185535       -6.58874855366642       -0.99576241748091
H            4.59656626832414       -6.65315363039493        0.75263408470435
H            2.99472102965214       -6.48082406926430        0.00925419586904
H            2.09978882117077       -4.24970978492071       -0.03061057448669
H           -3.07736035660474       -3.62669716618933        0.00175471075489
H           -5.38502129700741       -4.58445705410767        0.00194567661520
H           -7.10643884764557        0.65191232953608        0.01797887590096
H           -8.00991753264869       -0.61683365887719        0.86593136752550
H           -7.98777153057064       -0.59016258450724       -0.88950454075132
H           -4.72980738648797        0.30727326759932        0.00021461863013
H           -1.60163424497323        4.47775464434639       -0.02724103377560
H           -1.27558547699743        6.95540965302698       -0.04958121025753

          :  Hamiltonian                  GFN2-xTB          :
         :: gradient norm              0.000044777848 Eh/a0 ::
         :: HOMO-LUMO gap              0.582181121678 eV    ::
         :: SCC energy              -103.217121301201 Eh    ::
         :: -> dispersion             -0.067196270810 Eh    ::
         :: -> Gsolv                  -0.052135444729 Eh    ::
         :: repulsion energy           1.467746317235 Eh    ::

    * Orbital Energies and Occupations

         #    Occupation            Energy/Eh            Energy/eV
      -------------------------------------------------------------
         1        2.0000           -0.8382778             -22.8107
       ...           ...                  ...                  ...
        80        2.0000           -0.4547768             -12.3751
        81        2.0000           -0.4547659             -12.3748
        82        2.0000           -0.4436335             -12.0719
        83        2.0000           -0.4401209             -11.9763
        84        2.0000           -0.4386782             -11.9370
        85        2.0000           -0.4386758             -11.9370
        86        2.0000           -0.4337903             -11.8040
        87        1.9990           -0.4289202             -11.6715
        88        1.9942           -0.4272488             -11.6260
        89        1.9942           -0.4272464             -11.6260
        90        1.5067           -0.4223789             -11.4935
        91        1.5058           -0.4223757             -11.4934
        92        1.0000           -0.3445024              -9.3744 (HOMO)
        93        0.0000           -0.3231077              -8.7922 (LUMO)
        94        0.0000           -0.3231034              -8.7921
        95                         -0.2613125              -7.1107
        96                         -0.2612978              -7.1103
        97                         -0.2580148              -7.0209
        98                         -0.2576416              -7.0108
        99                         -0.2576286              -7.0104
       100                         -0.2447892              -6.6611
       101                         -0.1991046              -5.4179
       102                         -0.1990988              -5.4178
       103                         -0.1488072              -4.0492
       ...                                ...                  ...
       166                          0.6365319              17.3209
      -------------------------------------------------------------
                  HL-Gap            0.0213947 Eh            0.5822 eV

     #   Z          covCN         q      C6AA      α(0)
     1   6 C        3.758    -0.117    22.788     6.806
     2   6 C        2.960     0.014    27.709     8.634
     3   6 C        2.933    -0.041    29.025     8.835
     4   6 C        2.980    -0.012    28.320     8.729
     5   6 C        2.927     0.191    23.940     8.024
     6   7 N        1.850    -0.285    28.250     7.877
     7   6 C        2.865     0.288    22.131     7.711
     8   7 N        1.850    -0.286    28.259     7.879
     9   6 C        2.927     0.191    23.940     8.024
    10   6 C        2.980    -0.012    28.320     8.729
    11   6 C        2.927    -0.033    28.824     8.804
    12   6 C        2.913    -0.047    29.166     8.856
    13   6 C        2.793     0.163    24.464     8.102
    14   9 F        0.787    -0.224    11.482     4.003
    15   6 C        2.960     0.014    27.709     8.634
    16   6 C        3.758    -0.117    22.789     6.806
    17   6 C        2.933    -0.041    29.024     8.835
    18   7 N        1.850    -0.285    28.251     7.878
    19   6 C        2.865     0.288    22.131     7.711
    20   7 N        1.850    -0.286    28.259     7.879
    21   6 C        2.927     0.191    23.940     8.024
    22   6 C        2.980    -0.012    28.320     8.729
    23   6 C        2.927    -0.033    28.823     8.804
    24   6 C        2.913    -0.047    29.167     8.856
    25   6 C        2.793     0.163    24.464     8.102
    26   9 F        0.787    -0.224    11.481     4.002
    27   6 C        2.960     0.014    27.709     8.634
    28   6 C        3.758    -0.117    22.788     6.806
    29   6 C        2.933    -0.041    29.025     8.835
    30   7 N        1.850    -0.285    28.250     7.877
    31   6 C        2.865     0.288    22.131     7.711
    32   7 N        1.850    -0.286    28.260     7.879
    33   7 N        2.770    -0.100    23.192     7.152
    34   6 C        2.927    -0.033    28.823     8.804
    35   6 C        2.913    -0.047    29.166     8.856
    36   6 C        2.793     0.163    24.464     8.102
    37   9 F        0.787    -0.224    11.481     4.003
    38   1 H        0.925     0.075     2.036     2.231
    39   1 H        0.925     0.075     2.035     2.231
    40   1 H        0.925     0.062     2.170     2.304
    41   1 H        0.926     0.067     2.123     2.279
    42   1 H        0.926     0.065     2.138     2.287
    43   1 H        0.926     0.079     1.986     2.204
    44   1 H        0.925     0.075     2.034     2.230
    45   1 H        0.925     0.074     2.038     2.232
    46   1 H        0.925     0.063     2.169     2.303
    47   1 H        0.926     0.067     2.123     2.279
    48   1 H        0.926     0.065     2.139     2.287
    49   1 H        0.926     0.079     1.986     2.204
    50   1 H        0.925     0.063     2.170     2.304
    51   1 H        0.925     0.075     2.036     2.231
    52   1 H        0.925     0.075     2.035     2.231
    53   1 H        0.926     0.067     2.123     2.279
    54   1 H        0.926     0.065     2.138     2.287
    55   1 H        0.926     0.079     1.986     2.204

molecular dipole:
                 x           y           z       tot (Debye)
 q only:       -0.000       0.000      -0.015
   full:       -0.000       0.000      -0.015       0.038

 projected vibrational frequencies (cm⁻¹)
eigval :       -0.00    -0.00    -0.00     0.00     0.00     0.00
eigval :      -31.32   -14.17    11.47    14.20    22.76    25.55
eigval :       33.69    37.02    37.16    47.85    49.39    84.13
eigval :       89.21   104.94   106.86   116.02   171.45   171.99
eigval :      182.08   187.11   187.23   187.67   226.84   228.18
eigval :      250.22   252.29   252.74   257.07   281.86   282.22
eigval :      311.35   339.51   340.65   347.63   406.67   408.35
eigval :      408.53   417.18   417.92   460.30   460.73   461.96
eigval :      489.16   507.43   508.10   527.09   527.33   529.71
eigval :      553.90   554.32   574.00   599.95   601.83   603.81
eigval :      604.78   640.37   640.58   645.41   646.04   664.62
eigval :      673.38   674.19   698.18   711.59   773.51   773.87
eigval :      776.38   793.35   794.13   807.87   828.11   829.10
eigval :      829.79   873.92   874.35   874.85   905.15   905.58
eigval :      906.70   939.98   940.55   986.22  1006.89  1007.12
eigval :     1017.44  1021.78  1022.08  1027.77  1028.29  1030.33
eigval :     1089.22  1090.35  1099.96  1107.09  1108.08  1128.96
eigval :     1153.64  1154.20  1166.59  1170.17  1170.99  1214.74
eigval :     1215.12  1221.85  1223.54  1224.01  1227.15  1280.26
eigval :     1280.67  1289.80  1316.76  1334.79  1335.92  1336.00
eigval :     1385.46  1385.89  1394.97  1396.28  1397.56  1409.40
eigval :     1409.64  1411.28  1454.40  1454.61  1455.24  1455.35
eigval :     1456.14  1463.33  1465.32  1465.76  1467.21  1484.15
eigval :     1486.98  1514.05  1514.17  1553.67  1553.77  1555.26
eigval :     1576.07  1578.23  1578.37  3012.32  3012.81  3013.31
eigval :     3027.58  3028.08  3028.93  3064.22  3064.50  3064.56
eigval :     3097.04  3097.79  3098.27  3104.25  3104.30  3104.52
eigval :     3113.11  3113.42  3113.94

   temp. (K)  partition function   enthalpy   heat capacity  entropy
                                   cal/mol     cal/K/mol   cal/K/mol   J/K/mol
 298.15  VIB  0.451E+16            18359.930    107.035    116.322
         ROT  0.655E+08              888.752      2.981     38.748
         INT  0.296E+24            19248.683    110.016    155.069
         TR   0.107E+29             1481.254      4.968     44.480
         TOT                       20729.9367   114.9841   199.5491   834.9135

       T/K    H(0)-H(T)+PV         H(T)/Eh          T*S/Eh         G(T)/Eh
   ------------------------------------------------------------------------
    298.15    0.330353E-01    0.418889E+00    0.948122E-01    0.324077E+00
   ------------------------------------------------------------------------

         :::::::::::::::::::::::::::::::::::::::::::::::::::::
         ::                  THERMODYNAMIC                  ::
         :::::::::::::::::::::::::::::::::::::::::::::::::::::
         :: total free energy        -101.425297854320 Eh   ::
         ::.................................................::
         :: total energy             -101.749374981344 Eh   ::
         :: zero point energy           0.385854098776 Eh   ::
         :: G(RRHO) w/o ZPVE           -0.061776971752 Eh   ::
         :: G(RRHO) contrib.            0.324077127024 Eh   ::
         :::::::::::::::::::::::::::::::::::::::::::::::::::::

           -------------------------------------------------
          | TOTAL ENERGY             -101.749374981344 Eh   |
          | TOTAL ENTHALPY           -101.330485625708 Eh   |
          | TOTAL FREE ENERGY        -101.425297854320 Eh   |
          | GRADIENT NORM               0.000045558933 Eh/α |
          | HOMO-LUMO GAP               0.582180280901 eV   |
           -------------------------------------------------

 * finished run on 2025/09/03 at 18:11:26.753
