   * xtb version 6.7.1 (edcfbbe) compiled by 'albert@albert-system' on 2024-07-22

   ID    Z sym.   atoms
    1    6 C      1-13, 15-37
    2    7 N      14
    3    1 H      38-68

          program call               : xtb data2507/gas/F2PA/F2PA_gas_S0_finalOpt.xtbopt.xyz --gfn 2 --spinpol --tblite --uhf 2 --ohess vtight --parallel 40 --molden --ceasefiles --namespace data2507/gas/F2PA/F2PA_gas_T1_preOpt
 * total energy  :   -95.7841754 Eh     change       -0.5145679E-08 Eh
 * total energy  :   -95.7890825 Eh     change       -0.4907123E-02 Eh
 * total energy  :   -95.7902105 Eh     change       -0.1127955E-02 Eh
 * total energy  :   -95.7902818 Eh     change       -0.7127914E-04 Eh
 * total energy  :   -95.7903136 Eh     change       -0.3186069E-04 Eh
 * total energy  :   -95.7903290 Eh     change       -0.1536648E-04 Eh
 * total energy  :   -95.7903388 Eh     change       -0.9793323E-05 Eh
 * total energy  :   -95.7903450 Eh     change       -0.6165211E-05 Eh
 * total energy  :   -95.7903492 Eh     change       -0.4224503E-05 Eh
 * total energy  :   -95.7903541 Eh     change       -0.4928426E-05 Eh
 * total energy  :   -95.7904030 Eh     change       -0.1051332E-05 Eh
 * total energy  :   -95.7904037 Eh     change       -0.6871217E-06 Eh
 * total energy  :   -95.7904041 Eh     change       -0.4181055E-06 Eh
 * total energy  :   -95.7904045 Eh     change       -0.4441867E-06 Eh
 * total energy  :   -95.7904047 Eh     change       -0.1878740E-06 Eh
 * total energy  :   -95.7904050 Eh     change       -0.2831406E-06 Eh
 * total energy  :   -95.7904052 Eh     change       -0.2283855E-06 Eh
 * total energy  :   -95.7904055 Eh     change       -0.2598534E-06 Eh
 * total energy  :   -95.7904056 Eh     change       -0.6403967E-07 Eh
   *** GEOMETRY OPTIMIZATION CONVERGED AFTER 40 ITERATIONS ***

 final structure:
================
68
 xtb: 6.7.1 (edcfbbe)
C           -1.99583850255204       -3.03053577874870        0.52880248855145
C           -2.93091764809256       -1.90673516634007        0.98801101092406
C           -2.96074311091409       -1.83278272108916        2.51844313407597
C           -4.32327414543309       -2.08127628099973        0.42320357905762
C           -5.20568531148873       -3.11197611957944        0.61068998393494
C           -6.45577532028730       -3.05772490279705       -0.00969626734229
C           -6.80411130985808       -1.97052084031783       -0.80955389273037
C           -5.93071460657786       -0.92599233812285       -1.01075887825348
C           -4.66974485949984       -0.97016814574906       -0.39406099356712
C           -3.58505336142013       -0.06289527250961       -0.42187311701699
C           -3.41659267063788        1.18314388936059       -1.07004382261980
C           -2.25037325144312        1.87063321949320       -0.90872437851870
C           -1.19337792942413        1.35481542780400       -0.11172217851116
N           -0.00308970825899        2.04229088660467        0.00240453098328
C           -0.00361046387878        3.44245972131748        0.00153653949658
C            1.00602550436564        4.14635778636548       -0.65735473751390
C            0.99846204414536        5.52665138092411       -0.65724620000577
C           -0.01004497889389        6.22240079434014       -0.00746465357679
C           -1.01511288604076        5.52628958775228        0.64716905927517
C           -1.01647142253546        4.14598851870339        0.65587711771568
C            1.19266165943886        1.35596586504332        0.11777118205511
C            2.23770120053966        1.86640477986088        0.92337117277246
C            3.40927104943818        1.17874169427295        1.08333514049677
C            3.57994933940519       -0.05565907744165        0.43000327302351
C            2.53102639797786       -0.56930757839612       -0.38313518185500
C            1.36230702973077        0.10950686844968       -0.53890800466042
C            2.94197560852670       -1.89145185181457       -0.99162532847202
C            2.97612065965032       -1.81069802200866       -2.52131157539097
C            2.00663520821964       -3.01752016180674       -0.53902188968332
C            4.33244365744205       -2.06731813817628       -0.42265291133807
C            5.21858599222085       -3.09675460766590       -0.61574419394538
C            6.46323869281007       -3.04499105156417        0.01078087750193
C            6.80482397575610       -1.96618366400586        0.82062610139324
C            5.92530670172895       -0.92408150936279        1.02551256164830
C            4.67358709315023       -0.96773222427560        0.40254437783755
C           -1.35790777667807        0.09653328621445        0.53641986901128
C           -2.52302362632314       -0.58105258167445        0.38474756003732
H           -2.33968645253634       -3.98850323571722        0.91162214984587
H           -0.98530878455929       -2.85319949615669        0.89028201147897
H           -1.97556031386256       -3.08039645564256       -0.55811583380612
H           -3.32296218853119       -2.77017079301962        2.93400551558174
H           -1.96334336401049       -1.64074431460465        2.90780784014557
H           -3.62191108177248       -1.03169047629838        2.84233470305695
H           -4.94968889853312       -3.96017875364144        1.22985661703974
H           -7.15934373604894       -3.86414320447112        0.13286584047132
H           -7.77829131223111       -1.95264870958388       -1.27769507904007
H           -6.20330974805834       -0.08578580562868       -1.63196637003952
H           -4.20343751525214        1.57512297464538       -1.69611622599948
H           -2.09490561329121        2.80961765258361       -1.42077699900356
H            1.78063005362487        3.59988255376427       -1.17474359666857
H            1.77984874830327        6.06403480525194       -1.17333448583607
H           -0.01257114804017        7.30155677954986       -0.01109176889760
H           -1.79863444866455        6.06335616714404        1.16032979536708
H           -1.78794735441696        3.59899265543868        1.17736320010345
H            2.08018372240499        2.80219126457476        1.44051937539717
H            4.19248890904034        1.57133374288415        1.71369775004580
H            0.57311434960379       -0.25654637483575       -1.17903987742757
H            3.63737131776176       -1.00755637845918       -2.83994301938437
H            3.34036449507021       -2.74593403550577       -2.93987477169590
H            1.97963728820976       -1.61816871715179       -2.91266258880234
H            0.99656698367602       -2.83862151617946       -0.90093861384231
H            1.98489123750816       -3.07260904293081        0.54761619378136
H            2.35124492310343       -3.97351244382421       -0.92601637298371
H            4.96606036590281       -3.93961123343721       -1.24344252722237
H            7.16916045059881       -3.84903943422302       -0.13485360248021
H            7.77592109339044       -1.94871524363726        1.29490004232419
H            6.19339798707334       -0.08880415608187        1.65539124712092
H           -0.56392397760147       -0.27085346822977        1.16987134396245

 projected vibrational frequencies (cm⁻¹)
eigval :       -0.00    -0.00    -0.00     0.00     0.00     0.00
eigval :       19.67    20.03    30.54    31.43    48.52    51.40
eigval :       72.77    76.05    96.22    99.03   119.89   134.47
eigval :      135.57   137.10   152.24   161.48   190.23   193.50
eigval :      202.70   205.12   214.51   224.60   233.34   241.24
eigval :      250.68   260.38   262.77   292.23   302.41   312.65
eigval :      316.28   317.41   328.84   353.64   357.87   380.72
eigval :      395.52   402.43   433.94   443.83   452.12   461.54
eigval :      466.04   499.73   511.22   515.95   521.77   526.92
eigval :      542.38   557.73   558.33   568.35   576.12   584.60
eigval :      592.61   599.10   615.29   652.20   661.58   669.73
eigval :      675.46   696.94   703.03   719.10   731.06   749.68
eigval :      750.67   758.35   768.73   777.02   800.12   807.61
eigval :      812.81   827.34   844.32   853.02   854.40   867.65
eigval :      872.21   893.55   895.04   897.65   897.86   900.20
eigval :      912.06   914.84   927.45   928.01   936.42   953.61
eigval :      959.43   964.43   965.14   969.95   971.41   994.60
eigval :     1004.02  1010.47  1011.88  1055.98  1060.02  1066.43
eigval :     1074.66  1077.40  1091.77  1099.17  1120.33  1142.28
eigval :     1150.21  1156.32  1171.59  1172.73  1174.51  1178.33
eigval :     1178.59  1179.83  1191.57  1195.31  1212.10  1215.08
eigval :     1218.84  1225.21  1243.82  1257.15  1266.62  1269.04
eigval :     1274.19  1279.36  1298.10  1319.05  1321.82  1330.24
eigval :     1343.53  1346.62  1352.19  1372.23  1380.79  1390.15
eigval :     1392.65  1395.17  1403.06  1408.81  1411.50  1420.93
eigval :     1436.56  1443.25  1453.28  1454.74  1468.66  1474.31
eigval :     1485.45  1488.37  1490.34  1490.57  1492.36  1494.61
eigval :     1497.93  1499.07  1504.95  1505.32  1539.26  1548.74
eigval :     1562.20  1566.38  1576.47  1584.09  1620.48  3025.27
eigval :     3025.78  3027.77  3028.26  3029.72  3030.59  3031.29
eigval :     3031.52  3036.93  3037.28  3038.25  3038.73  3065.98
eigval :     3066.77  3067.79  3068.95  3072.56  3073.65  3077.70
eigval :     3080.70  3080.92  3081.12  3082.62  3083.36  3088.56
eigval :     3089.76  3090.59  3090.99  3092.10  3094.81  3102.24

   temp. (K)  partition function   enthalpy   heat capacity  entropy
                                   cal/mol     cal/K/mol   cal/K/mol   J/K/mol
 298.15  VIB  0.107E+14            18677.475    120.685    113.259
         ROT  0.197E+08              888.752      2.981     36.357
         INT  0.210E+21            19566.227    123.666    149.616
         TR   0.101E+29             1481.254      4.968     44.359
         TOT                       21047.4812   128.6345   193.9746   811.5898

       T/K    H(0)-H(T)+PV         H(T)/Eh          T*S/Eh         G(T)/Eh
   ------------------------------------------------------------------------
    298.15    0.335413E-01    0.577817E+00    0.921636E-01    0.485653E+00
   ------------------------------------------------------------------------

         :::::::::::::::::::::::::::::::::::::::::::::::::::::
         ::                  THERMODYNAMIC                  ::
         :::::::::::::::::::::::::::::::::::::::::::::::::::::
         :: total free energy         -95.304752251470 Eh   ::
         ::.................................................::
         :: total energy              -95.790405579872 Eh   ::
         :: zero point energy           0.544275637792 Eh   ::
         :: G(RRHO) w/o ZPVE           -0.058622309390 Eh   ::
         :: G(RRHO) contrib.            0.485653328402 Eh   ::
         :::::::::::::::::::::::::::::::::::::::::::::::::::::

           -------------------------------------------------
          | TOTAL ENERGY              -95.790405579872 Eh   |
          | TOTAL ENTHALPY            -95.212588645811 Eh   |
          | TOTAL FREE ENERGY         -95.304752251470 Eh   |
          | GRADIENT NORM               0.000073368407 Eh/α |
           -------------------------------------------------

 * finished run on 2025/09/10 at 08:59:44.648
