   * xtb version 6.7.1 (edcfbbe) compiled by 'albert@albert-system' on 2024-07-22

   ID    Z sym.   atoms
    1    6 C      1-13, 15-37
    2    7 N      14
    3    1 H      38-68

          program call               : xtb data2507/gas/F2PA/F2PA_gas_S0_crest.xyz --gfn 2 --ohess vtight --parallel 40 --molden --ceasefiles --namespace data2507/gas/F2PA/F2PA_gas_S0_finalOpt
          :  Hamiltonian                  GFN2-xTB          :
 * total energy  :   -95.8804963 Eh     change       -0.4615131E-08 Eh
 * total energy  :   -95.8804970 Eh     change       -0.7177954E-06 Eh
 * total energy  :   -95.8804977 Eh     change       -0.6946905E-06 Eh
 * total energy  :   -95.8804993 Eh     change       -0.1651074E-05 Eh
 * total energy  :   -95.8804998 Eh     change       -0.4377650E-06 Eh
 * total energy  :   -95.8805001 Eh     change       -0.3369644E-06 Eh
 * total energy  :   -95.8805007 Eh     change       -0.5410902E-06 Eh
 * total energy  :   -95.8805011 Eh     change       -0.4304521E-06 Eh
 * total energy  :   -95.8805013 Eh     change       -0.1751145E-06 Eh
 * total energy  :   -95.8805014 Eh     change       -0.1659794E-06 Eh
 * total energy  :   -95.8805016 Eh     change       -0.2192761E-06 Eh
 * total energy  :   -95.8805018 Eh     change       -0.1473001E-06 Eh
 * total energy  :   -95.8805019 Eh     change       -0.8210199E-07 Eh
   *** GEOMETRY OPTIMIZATION CONVERGED AFTER 13 ITERATIONS ***

 final structure:
================
68
 xtb: 6.7.1 (edcfbbe)
C           -2.02666706320929       -2.99916958749274        0.60573133349665
C           -2.97307646136957       -1.87243975738895        1.03205213222034
C           -3.02396934418898       -1.76505120512811        2.55874954505369
C           -4.35563769566927       -2.06762779272710        0.45005935863659
C           -5.24354412454966       -3.09971366397741        0.66009048175706
C           -6.47234503858885       -3.06903596208586        0.01323134883275
C           -6.80394503006139       -2.01970086394038       -0.82939538435102
C           -5.91727904495288       -0.97749702349527       -1.04622627962807
C           -4.69064740554520       -1.00514486878508       -0.40317436505609
C           -3.57882752608559       -0.07181812539825       -0.43449180648654
C           -3.40287936259243        1.12153939355504       -1.11672665253805
C           -2.21476431578922        1.81155969450385       -0.96810508237614
C           -1.20291783342823        1.33094807248652       -0.13383467536925
N           -0.00210292553520        2.03589256852626       -0.00096839623888
C           -0.00439186703881        3.43462666257310        0.00053328083419
C            1.02578676466655        4.14443306639313       -0.61630528111989
C            1.02094347840678        5.52548275633063       -0.60867350524980
C           -0.00915934060271        6.22091051832468        0.00319197934456
C           -1.03683514091925        5.52080026779431        0.61387244777308
C           -1.03690474649808        4.13977316695925        0.61890646241696
C            1.20086263860886        1.33457731028119        0.13198670267168
C            2.20977322340523        1.81632508283982        0.96912940933572
C            3.39905651196855        1.12868889825634        1.11951378921751
C            3.57923091709610       -0.06325119508258        0.43590139113553
C            2.56753564869176       -0.55222089388345       -0.40458258995423
C            1.39098375734301        0.13759463978589       -0.56740319658364
C            2.98163454566267       -1.86208742209758       -1.03617858388483
C            3.04004823317520       -1.74966572197492       -2.56230556677085
C            2.03481177138689       -2.99153622689531       -0.61827093034663
C            4.36183503767825       -2.05687154533508       -0.44846966037009
C            5.25131973559982       -3.08814005116211       -0.65580673411192
C            6.47733896465561       -3.05732155624147       -0.00370014368806
C            6.80470692926692       -2.00849753239326        0.84120667028637
C            5.91642061304600       -0.96709887348606        1.05533819345631
C            4.69243960426954       -0.99502312008429        0.40727202479572
C           -1.38835213946653        0.13192761307771        0.56334224212558
C           -2.56368481787562       -0.56031165960345        0.40208667189386
H           -2.36258806978139       -3.94996848447891        1.01276033027994
H           -1.01931340029427       -2.80208249342094        0.96561505579790
H           -2.00115872717175       -3.07705677057610       -0.47942513189165
H           -3.38273724805838       -2.69618590113127        2.99113128763493
H           -2.03343226846531       -1.55529248538686        2.95584796483511
H           -3.69565935853385       -0.96255829330433        2.85635590793841
H           -4.99574892333036       -3.92270057426819        1.31505929534608
H           -7.17784106769247       -3.87225642667083        0.16887227780834
H           -7.76553818852609       -2.01554296980397       -1.32215000918016
H           -6.17815353408114       -0.16076031013022       -1.70298887819486
H           -4.17409584619080        1.50556276843201       -1.76755625763594
H           -2.05549556445701        2.73438455704298       -1.50661538697958
H            1.82507337888774        3.60434874040190       -1.10250156695753
H            1.82371912401132        6.06275286967788       -1.09211413216067
H           -0.01106691554116        7.30033233016806        0.00417739357616
H           -1.84139200423870        6.05443152485120        1.09838085694430
H           -1.83422704197995        3.59597733259428        1.10418532313009
H            2.04706566328458        2.73784207460286        1.50885429030785
H            4.16778247690450        1.51329423984389        1.77294131790284
H            0.61304039546701       -0.22686086245341       -1.22236424310748
H            3.71195772695949       -0.94513396245711       -2.85385970927691
H            3.40255958549286       -2.67879488208211       -2.99587852766322
H            2.05121254151280       -1.54016030537718       -2.96375291543435
H            1.02904750899952       -2.79501035237406       -0.98287365038000
H            2.00373331538877       -3.07272737737803        0.46649508757548
H            2.37436763030995       -3.94058431555019       -1.02636695027922
H            5.00675278827852       -3.91066423601848       -1.31257080972573
H            7.18395969677049       -3.85999921420252       -0.15702314062848
H            7.76420708611781       -2.00412361409004        1.33802740458304
H            6.17402786930370       -0.15092972339398        1.71409509763834
H           -0.60806595310678       -0.23190676139503        1.21584420023602

          :  Hamiltonian                  GFN2-xTB          :
         :: gradient norm              0.000047857401 Eh/a0 ::
         :: HOMO-LUMO gap              2.503962381145 eV    ::
         :: SCC energy               -97.658463508964 Eh    ::
         :: -> dispersion             -0.090530246943 Eh    ::
         :: repulsion energy           1.777961635626 Eh    ::

    * Orbital Energies and Occupations

         #    Occupation            Energy/Eh            Energy/eV
      -------------------------------------------------------------
         1        2.0000           -0.6619966             -18.0138
       ...           ...                  ...                  ...
        78        2.0000           -0.4128020             -11.2329
        79        2.0000           -0.4115983             -11.2002
        80        2.0000           -0.4103205             -11.1654
        81        2.0000           -0.4095949             -11.1456
        82        2.0000           -0.4095751             -11.1451
        83        2.0000           -0.4042653             -11.0006
        84        2.0000           -0.4006677             -10.9027
        85        2.0000           -0.3989055             -10.8548
        86        2.0000           -0.3939619             -10.7203
        87        2.0000           -0.3934945             -10.7075
        88        2.0000           -0.3870048             -10.5309
        89        2.0000           -0.3763390             -10.2407
        90        2.0000           -0.3425273              -9.3206 (HOMO)
        91                         -0.2505083              -6.8167 (LUMO)
        92                         -0.2429081              -6.6099
        93                         -0.2240311              -6.0962
        94                         -0.2192796              -5.9669
        95                         -0.2189518              -5.9580
        96                         -0.2162598              -5.8847
        97                         -0.2152851              -5.8582
        98                         -0.2131505              -5.8001
        99                         -0.1890928              -5.1455
       100                         -0.1714750              -4.6661
       101                         -0.1089696              -2.9652
       ...                                ...                  ...
       179                          0.7380885              20.0844
      -------------------------------------------------------------
                  HL-Gap            0.0920190 Eh            2.5040 eV

     #   Z          covCN         q      C6AA      α(0)
     1   6 C        3.759    -0.097    22.401     6.748
     2   6 C        3.936     0.019    20.196     6.386
     3   6 C        3.758    -0.098    22.423     6.751
     4   6 C        3.056    -0.003    28.049     8.685
     5   6 C        2.915    -0.034    28.849     8.808
     6   6 C        2.922    -0.034    28.857     8.809
     7   6 C        2.921    -0.033    28.834     8.806
     8   6 C        2.914    -0.036    28.887     8.813
     9   6 C        3.037     0.000    27.989     8.678
    10   6 C        3.036    -0.009    28.214     8.712
    11   6 C        2.914    -0.035    28.868     8.810
    12   6 C        2.923    -0.052    29.301     8.877
    13   6 C        2.926     0.061    26.631     8.463
    14   7 N        2.753    -0.072    22.642     7.067
    15   6 C        2.924     0.065    26.541     8.449
    16   6 C        2.922    -0.047    29.180     8.858
    17   6 C        2.920    -0.029    28.735     8.791
    18   6 C        2.919    -0.039    28.961     8.825
    19   6 C        2.920    -0.029    28.735     8.791
    20   6 C        2.922    -0.047    29.179     8.858
    21   6 C        2.926     0.061    26.631     8.463
    22   6 C        2.923    -0.052    29.301     8.877
    23   6 C        2.914    -0.035    28.868     8.810
    24   6 C        3.036    -0.009    28.213     8.712
    25   6 C        3.055    -0.002    28.015     8.680
    26   6 C        2.918    -0.052    29.302     8.877
    27   6 C        3.936     0.019    20.196     6.386
    28   6 C        3.758    -0.098    22.423     6.751
    29   6 C        3.759    -0.097    22.401     6.748
    30   6 C        3.056    -0.003    28.049     8.685
    31   6 C        2.915    -0.034    28.849     8.808
    32   6 C        2.922    -0.034    28.857     8.809
    33   6 C        2.921    -0.033    28.834     8.806
    34   6 C        2.914    -0.036    28.887     8.813
    35   6 C        3.037     0.000    27.989     8.678
    36   6 C        2.918    -0.052    29.303     8.877
    37   6 C        3.055    -0.002    28.015     8.680
    38   1 H        0.925     0.040     2.450     2.448
    39   1 H        0.925     0.041     2.441     2.443
    40   1 H        0.925     0.033     2.537     2.491
    41   1 H        0.925     0.040     2.447     2.446
    42   1 H        0.925     0.040     2.451     2.448
    43   1 H        0.925     0.036     2.508     2.476
    44   1 H        0.926     0.025     2.652     2.546
    45   1 H        0.926     0.027     2.630     2.536
    46   1 H        0.926     0.027     2.630     2.536
    47   1 H        0.926     0.028     2.616     2.529
    48   1 H        0.926     0.031     2.567     2.506
    49   1 H        0.926     0.031     2.579     2.511
    50   1 H        0.926     0.032     2.561     2.503
    51   1 H        0.926     0.031     2.575     2.509
    52   1 H        0.926     0.029     2.595     2.519
    53   1 H        0.926     0.031     2.575     2.509
    54   1 H        0.926     0.032     2.561     2.503
    55   1 H        0.926     0.031     2.579     2.511
    56   1 H        0.926     0.031     2.567     2.506
    57   1 H        0.926     0.030     2.581     2.512
    58   1 H        0.925     0.036     2.508     2.476
    59   1 H        0.925     0.040     2.447     2.446
    60   1 H        0.925     0.040     2.451     2.448
    61   1 H        0.925     0.041     2.441     2.443
    62   1 H        0.925     0.033     2.538     2.491
    63   1 H        0.925     0.040     2.450     2.448
    64   1 H        0.926     0.025     2.652     2.546
    65   1 H        0.926     0.027     2.630     2.536
    66   1 H        0.926     0.027     2.630     2.536
    67   1 H        0.926     0.028     2.616     2.529
    68   1 H        0.926     0.030     2.581     2.513

molecular dipole:
                 x           y           z       tot (Debye)
 q only:        0.002      -0.229      -0.001
   full:        0.002      -0.202      -0.001       0.512

 projected vibrational frequencies (cm⁻¹)
eigval :       -0.00    -0.00     0.00     0.00     0.00     0.00
eigval :       19.99    20.09    27.79    30.46    50.43    54.45
eigval :       76.60    79.25    95.18    99.25   120.32   131.71
eigval :      138.36   139.24   158.05   170.77   192.37   196.39
eigval :      204.42   210.15   223.72   226.98   236.18   248.00
eigval :      260.85   266.15   283.60   304.25   310.24   324.16
eigval :      328.10   328.65   337.86   361.42   381.22   394.32
eigval :      424.74   428.45   451.84   460.86   467.63   468.80
eigval :      493.61   515.28   521.67   541.62   542.34   551.71
eigval :      561.62   567.50   573.67   583.02   587.95   590.45
eigval :      616.33   627.03   660.92   661.71   692.34   692.85
eigval :      721.60   722.02   723.64   725.51   744.85   764.00
eigval :      777.82   778.40   778.62   810.20   823.95   829.47
eigval :      838.59   875.53   878.28   878.37   882.45   889.34
eigval :      892.73   909.40   909.42   913.34   913.37   926.81
eigval :      926.82   928.62   929.05   943.14   951.42   966.41
eigval :      966.66   966.76   979.41   986.36  1007.29  1012.14
eigval :     1012.59  1013.34  1069.67  1069.91  1078.63  1078.71
eigval :     1083.68  1112.93  1113.73  1122.93  1149.41  1152.19
eigval :     1159.29  1159.99  1175.85  1175.99  1180.81  1181.47
eigval :     1183.61  1183.81  1198.57  1219.39  1227.13  1228.24
eigval :     1233.89  1244.40  1262.64  1272.67  1272.95  1276.62
eigval :     1287.41  1289.85  1318.46  1318.85  1327.67  1334.47
eigval :     1334.57  1370.99  1371.05  1393.89  1396.21  1410.27
eigval :     1412.44  1430.52  1434.92  1436.20  1438.76  1444.66
eigval :     1455.03  1461.03  1473.13  1475.25  1477.78  1486.03
eigval :     1488.26  1489.78  1491.46  1497.01  1499.03  1503.12
eigval :     1504.61  1571.64  1577.20  1579.47  1594.17  1594.77
eigval :     1596.42  1599.50  1601.93  1610.46  1611.47  3027.03
eigval :     3027.23  3029.11  3029.40  3032.01  3032.15  3032.43
eigval :     3032.48  3037.48  3037.62  3038.99  3039.00  3068.70
eigval :     3068.74  3072.87  3072.91  3075.33  3076.37  3078.84
eigval :     3078.92  3080.13  3081.67  3081.86  3082.51  3086.06
eigval :     3088.62  3089.16  3089.24  3091.34  3091.54  3097.10

   temp. (K)  partition function   enthalpy   heat capacity  entropy
                                   cal/mol     cal/K/mol   cal/K/mol   J/K/mol
 298.15  VIB  0.540E+13            18163.048    117.751    110.222
         ROT  0.198E+08              888.752      2.981     36.368
         INT  0.107E+21            19051.801    120.732    146.590
         TR   0.101E+29             1481.254      4.968     44.359
         TOT                       20533.0548   125.6998   190.9486   798.9287

       T/K    H(0)-H(T)+PV         H(T)/Eh          T*S/Eh         G(T)/Eh
   ------------------------------------------------------------------------
    298.15    0.327215E-01    0.583168E+00    0.907258E-01    0.492443E+00
   ------------------------------------------------------------------------

         :::::::::::::::::::::::::::::::::::::::::::::::::::::
         ::                  THERMODYNAMIC                  ::
         :::::::::::::::::::::::::::::::::::::::::::::::::::::
         :: total free energy         -95.388059297885 Eh   ::
         ::.................................................::
         :: total energy              -95.880501873339 Eh   ::
         :: zero point energy           0.550446889187 Eh   ::
         :: G(RRHO) w/o ZPVE           -0.058004313733 Eh   ::
         :: G(RRHO) contrib.            0.492442575454 Eh   ::
         :::::::::::::::::::::::::::::::::::::::::::::::::::::

           -------------------------------------------------
          | TOTAL ENERGY              -95.880501873339 Eh   |
          | TOTAL ENTHALPY            -95.297333478559 Eh   |
          | TOTAL FREE ENERGY         -95.388059297885 Eh   |
          | GRADIENT NORM               0.000047864728 Eh/α |
          | HOMO-LUMO GAP               2.503964520777 eV   |
           -------------------------------------------------

 * finished run on 2025/09/10 at 08:59:37.591
