   * xtb version 6.7.1 (edcfbbe) compiled by 'albert@albert-system' on 2024-07-22

   ID    Z sym.   atoms
    1    6 C      1-13, 15-37
    2    7 N      14
    3    1 H      38-68

          program call               : xtb data2507/gas/F2PA/F2PA_gas_T1_crest.xyz --gfn 2 --spinpol --tblite --uhf 2 --ohess vtight --parallel 40 --molden --ceasefiles --namespace data2507/gas/F2PA/F2PA_gas_T1_finalOpt
 * total energy  :   -95.7903977 Eh     change       -0.3030678E-07 Eh
 * total energy  :   -95.7904017 Eh     change       -0.3970277E-05 Eh
 * total energy  :   -95.7904027 Eh     change       -0.9763778E-06 Eh
 * total energy  :   -95.7904031 Eh     change       -0.3897631E-06 Eh
 * total energy  :   -95.7904035 Eh     change       -0.4406277E-06 Eh
 * total energy  :   -95.7904038 Eh     change       -0.3205236E-06 Eh
 * total energy  :   -95.7904042 Eh     change       -0.3994737E-06 Eh
 * total energy  :   -95.7904043 Eh     change       -0.1146283E-07 Eh
   *** GEOMETRY OPTIMIZATION CONVERGED AFTER 8 ITERATIONS ***

 final structure:
================
68
 xtb: 6.7.1 (edcfbbe)
C           -1.99954267625783       -3.02204909156242        0.55110451842679
C           -2.93631961971650       -1.89651617139959        1.00203743594351
C           -2.97227334005899       -1.81578705176237        2.53188571281621
C           -4.32647892442441       -2.07344197411631        0.43258947677491
C           -5.21021746102577       -3.10439292824143        0.62187157962997
C           -6.45639460225708       -3.05270852133492       -0.00371056194394
C           -6.80090694462853       -1.97049090216028       -0.80951439046950
C           -5.92486526925041       -0.92633041238000       -1.01130289301792
C           -4.67004966080530       -0.96902876508243       -0.38925592506930
C           -3.58101314848229       -0.05812742110130       -0.41563077848371
C           -3.41235748255337        1.18187447339916       -1.06581630443641
C           -2.24312297179771        1.86965155563127       -0.90608559249395
C           -1.19168716208976        1.35603500459112       -0.10632115134640
N            0.00338663978768        2.04036500519457        0.00360585958958
C            0.00681170127600        3.44064140956477       -0.00004379658159
C            1.01549979815314        4.13989103809385       -0.66518869969785
C            1.01465277034761        5.52022814204436       -0.66440632861354
C            0.01417792213354        6.22042879102886       -0.00709228453849
C           -0.98997801227557        5.52883778811085        0.65373785180849
C           -0.99813488743927        4.14852647815625        0.66158286842504
C            1.19492267233859        1.35114792351359        0.11385189392009
C            2.25206201012671        1.86406048468532        0.90803538092404
C            3.41962636496631        1.17393331932552        1.06457590835759
C            3.58283433145002       -0.06903480215181        0.41621288041536
C            2.52135558899406       -0.58436488088309       -0.38705287482930
C            1.35560345175302        0.09613038777675       -0.53622940794466
C            2.92453305071011       -1.91056704376245       -0.99207189424683
C            2.94710863430894       -1.83736257905759       -2.52249680283461
C            1.98991385100782       -3.03247608171579       -0.52743585220761
C            4.31879078915252       -2.08732100539881       -0.43277117609995
C            5.19985489798125       -3.11938472095865       -0.62597618986522
C            6.45090821325610       -3.06780955794825       -0.00947147799688
C            6.80239050304621       -1.98396876765555        0.79172836506185
C            5.92943174576362       -0.93851363007689        0.99767131372703
C            4.66930054776488       -0.98065874381718        0.38456926791513
C           -1.35907361534430        0.10489101740676        0.54772581064271
C           -2.52640848950106       -0.57333898558256        0.39480132558647
H           -2.34525172715146       -3.97844431408936        0.93616028668712
H           -0.99056608959483       -2.84355726929641        0.91626889152462
H           -1.97457775076132       -3.07619295283674       -0.53550773443735
H           -3.33494435067192       -2.75181826934995        2.95007159397763
H           -1.97666266948033       -1.62087445634745        2.92433041486709
H           -3.63572480685139       -1.01412789999383        2.84966375166572
H           -4.95624061633169       -3.94941915601695        1.24612169440111
H           -7.16064815625212       -3.85856183717485        0.13945231698993
H           -7.77263268587811       -1.95381071745066       -1.28263775820682
H           -6.19480402724445       -0.08918305368325       -1.63785146305755
H           -4.19796574426256        1.57446737958075       -1.69312300323932
H           -2.08718932089621        2.80714534095656       -1.42064763093720
H            1.78345985866697        3.58966687617491       -1.18847304622364
H            1.79472576329891        6.05409172416052       -1.18611474303572
H            0.01699033151749        7.29958845174878       -0.00990623531774
H           -1.76730805634055        6.06951220621064        1.17250997839065
H           -1.76919814761224        3.60507274314789        1.18738571745126
H            2.10065884830576        2.80337086651178        1.42067072875050
H            4.20911251653110        1.56582893007054        1.68742485374161
H            0.55991657802828       -0.26987454663147       -1.16829716790508
H            3.60858806895821       -1.03802910440753       -2.85008113914756
H            3.30493237767989       -2.77583935236314       -2.93936196185421
H            1.94827126200895       -1.64318495329022       -2.90706068044946
H            0.97824257733525       -2.85450935341968       -0.88530945575367
H            1.97374586265239       -3.08054206867378        0.55963287113420
H            2.33124229317069       -3.99143580469673       -0.90999787284733
H            4.94064390207171       -3.96539197776812       -1.24675443273306
H            7.15322274152706       -3.87469388752095       -0.15605486393621
H            7.77748176496385       -1.96775284877272        1.25793282137132
H            6.20480708109079       -0.10038140781888        1.62051160790199
H           -0.56732645198858       -0.26140977253306        1.18459271308030

 projected vibrational frequencies (cm⁻¹)
eigval :       -0.00    -0.00     0.00     0.00     0.00     0.00
eigval :      -93.99    20.19    20.43    30.88    31.44    48.60
eigval :       60.93    74.01    76.01    99.08   101.31   129.25
eigval :      135.59   136.43   136.58   152.60   172.19   191.34
eigval :      194.91   204.29   209.91   224.32   227.86   240.29
eigval :      245.86   260.15   262.75   288.30   302.55   313.91
eigval :      315.37   316.09   329.02   339.56   358.00   380.66
eigval :      390.65   399.05   431.34   445.86   450.15   461.58
eigval :      466.16   499.88   511.41   517.95   519.76   526.64
eigval :      542.27   558.17   558.23   568.19   576.17   584.17
eigval :      591.76   598.83   608.97   652.51   661.44   671.87
eigval :      673.10   699.50   700.40   719.12   730.54   749.28
eigval :      753.45   754.73   768.87   774.56   801.82   806.47
eigval :      810.67   827.17   848.68   850.15   853.17   866.87
eigval :      872.26   895.26   895.36   895.87   897.75   899.64
eigval :      913.15   913.56   927.48   928.10   936.54   955.07
eigval :      958.09   964.63   964.92   970.38   971.40   995.10
eigval :     1000.65  1010.52  1011.80  1056.98  1059.25  1066.68
eigval :     1074.02  1077.40  1094.92  1096.20  1120.27  1142.28
eigval :     1150.18  1156.36  1171.98  1172.30  1174.70  1178.50
eigval :     1178.62  1179.40  1192.39  1193.04  1213.23  1215.34
eigval :     1218.20  1224.88  1243.85  1257.12  1267.47  1268.21
eigval :     1274.17  1279.46  1298.79  1319.86  1321.73  1331.60
eigval :     1343.62  1346.80  1352.68  1373.14  1377.27  1388.91
eigval :     1392.58  1395.12  1402.39  1408.62  1411.44  1420.90
eigval :     1438.68  1442.71  1452.99  1453.25  1467.64  1476.24
eigval :     1485.33  1487.83  1488.47  1490.36  1491.93  1494.54
eigval :     1498.12  1499.00  1505.26  1505.28  1537.40  1548.48
eigval :     1562.09  1565.00  1578.22  1581.72  1620.06  3025.44
eigval :     3025.63  3027.94  3028.07  3029.83  3030.50  3031.39
eigval :     3031.41  3037.08  3037.16  3038.38  3038.48  3066.15
eigval :     3066.42  3068.15  3068.36  3072.90  3073.18  3077.77
eigval :     3080.65  3080.82  3080.98  3082.54  3083.31  3088.49
eigval :     3089.50  3090.52  3090.85  3092.07  3094.71  3102.12

   temp. (K)  partition function   enthalpy   heat capacity  entropy
                                   cal/mol     cal/K/mol   cal/K/mol   J/K/mol
 298.15  VIB  0.495E+13            18319.562    119.137    110.887
         ROT  0.197E+08              888.752      2.981     36.356
         INT  0.974E+20            19208.314    122.118    147.243
         TR   0.101E+29             1481.254      4.968     44.359
         TOT                       20689.5682   127.0860   191.6019   801.6623

       T/K    H(0)-H(T)+PV         H(T)/Eh          T*S/Eh         G(T)/Eh
   ------------------------------------------------------------------------
    298.15    0.329709E-01    0.576710E+00    0.910362E-01    0.485674E+00
   ------------------------------------------------------------------------

         :::::::::::::::::::::::::::::::::::::::::::::::::::::
         ::                  THERMODYNAMIC                  ::
         :::::::::::::::::::::::::::::::::::::::::::::::::::::
         :: total free energy         -95.304730116094 Eh   ::
         ::.................................................::
         :: total energy              -95.790404256944 Eh   ::
         :: zero point energy           0.543739453734 Eh   ::
         :: G(RRHO) w/o ZPVE           -0.058065312883 Eh   ::
         :: G(RRHO) contrib.            0.485674140850 Eh   ::
         :::::::::::::::::::::::::::::::::::::::::::::::::::::

           -------------------------------------------------
          | TOTAL ENERGY              -95.790404256944 Eh   |
          | TOTAL ENTHALPY            -95.213693877607 Eh   |
          | TOTAL FREE ENERGY         -95.304730116094 Eh   |
          | GRADIENT NORM               0.000157129332 Eh/α |
           -------------------------------------------------

 * finished run on 2025/09/10 at 09:02:36.703
