   * xtb version 6.7.1 (edcfbbe) compiled by 'albert@albert-system' on 2024-07-22

   ID    Z sym.   atoms
    1    6 C      1-13, 15-37
    2    7 N      14
    3    1 H      38-68

          program call               : xtb data2507/gas/F2PA/F2PA.xyz --gfn 2 --ohess vtight --parallel 40 --molden --ceasefiles --namespace data2507/gas/F2PA/F2PA_gas_S0_preOpt
          :  Hamiltonian                  GFN2-xTB          :
 * total energy  :   -95.8653981 Eh     change       -0.8595435E-09 Eh
 * total energy  :   -95.8750534 Eh     change       -0.9655327E-02 Eh
 * total energy  :   -95.8783866 Eh     change       -0.3333123E-02 Eh
 * total energy  :   -95.8791782 Eh     change       -0.7916121E-03 Eh
 * total energy  :   -95.8794804 Eh     change       -0.3021950E-03 Eh
 * total energy  :   -95.8795931 Eh     change       -0.1127550E-03 Eh
 * total energy  :   -95.8796682 Eh     change       -0.7508484E-04 Eh
 * total energy  :   -95.8797276 Eh     change       -0.5938712E-04 Eh
 * total energy  :   -95.8797783 Eh     change       -0.5068768E-04 Eh
 * total energy  :   -95.8798382 Eh     change       -0.5995938E-04 Eh
 * total energy  :   -95.8799996 Eh     change       -0.8513487E-06 Eh
 * total energy  :   -95.8800004 Eh     change       -0.8420943E-06 Eh
 * total energy  :   -95.8800013 Eh     change       -0.8722718E-06 Eh
 * total energy  :   -95.8800021 Eh     change       -0.8372864E-06 Eh
 * total energy  :   -95.8800028 Eh     change       -0.6949240E-06 Eh
 * total energy  :   -95.8800034 Eh     change       -0.5262109E-06 Eh
 * total energy  :   -95.8800037 Eh     change       -0.3786918E-06 Eh
 * total energy  :   -95.8800040 Eh     change       -0.3041207E-06 Eh
 * total energy  :   -95.8800040 Eh     change       -0.3840938E-08 Eh
   *** GEOMETRY OPTIMIZATION CONVERGED AFTER 44 ITERATIONS ***

 final structure:
================
68
 xtb: 6.7.1 (edcfbbe)
C           -3.56643158591275       -1.73567871295838       -2.18652182003138
C           -3.72118078669879       -1.65610266642920       -0.66490045500613
C           -3.11574078388136       -2.89558793924938        0.00101021583020
C           -5.17028480082634       -1.47416691718122       -0.27124427128193
C           -6.23939443405088       -2.31222450312129       -0.50014356014221
C           -7.49576161229699       -1.93657047120477       -0.04223632481495
C           -7.67549577070108       -0.73952809266276        0.63293201110657
C           -6.60618420483728        0.10977208249347        0.86675162315360
C           -5.35163228891678       -0.26208088255893        0.41211064212086
C           -4.06744887410231        0.40880930442242        0.50794634755654
C           -3.70617788842444        1.61771986162541        1.08118218870878
C           -2.38315066491134        2.01420257614821        1.03467369953859
C           -1.41680809965855        1.22130554519325        0.41217751259858
N           -0.07939288454797        1.63128727691081        0.37786284097392
C            0.23962870818555        2.98102201038727        0.20377266192126
C           -0.53500508270171        3.79003598226768       -0.62801798722272
C           -0.21693948545107        5.12350684600178       -0.79548076088247
C            0.87875351276841        5.67135220562397       -0.14861061833136
C            1.65404712096465        4.87172697468691        0.67531997095445
C            1.33891428332773        3.53951280110966        0.85694407926490
C            0.93960840142903        0.68418561560060        0.52603874535676
C            0.77803079196135       -0.38960294854632        1.40482018018603
C            1.77306011432895       -1.33482158627474        1.56443166481485
C            2.95018277944671       -1.20113119886174        0.84524436107727
C            3.11739632769680       -0.12367702841513       -0.03793237930826
C            2.12439595106855        0.81069580040178       -0.20687258703325
C            4.47203197097957       -0.18460846642371       -0.70679458564052
C            5.30848115091595        1.05072935917700       -0.35982925837330
C            4.33499100239952       -0.32973114021667       -2.22529665568580
C            5.05762124236643       -1.43496870562226       -0.08869222990826
C            6.28911103407424       -2.01206299264561       -0.30802759074526
C            6.61758696705058       -3.17303017211918        0.38018069682058
C            5.72435525196199       -3.74518023916678        1.27228718038678
C            4.48333709384934       -3.17231104937118        1.49815112670041
C            4.15284183340457       -2.01394572760597        0.81410642320738
C           -1.78555817435911        0.00579528358187       -0.17375930800417
C           -3.09912418826877       -0.39190107136459       -0.11665296157612
H           -2.51465418697443       -1.79699916353944       -2.45639682529725
H           -3.99511407441729       -0.85169849950624       -2.65411902542162
H           -4.07717941112477       -2.61468855921498       -2.57269941435271
H           -3.61003265514568       -3.79607151885702       -0.35598555090703
H           -2.05444443127876       -2.96592085189897       -0.22676841584086
H           -3.23663293619216       -2.83807837523305        1.08079811944879
H           -6.11087951997173       -3.24780794080816       -1.02536534285108
H           -8.34258049178542       -2.58499170264323       -0.21421788936162
H           -8.66154648589784       -0.46674875311423        0.98048468007352
H           -6.74889823014112        1.04201460422533        1.39306185507029
H           -4.44109599920862        2.23978866886018        1.56977536305957
H           -2.08193825356769        2.94650936817624        1.48975601791596
H           -1.38381526504035        3.36347631620070       -1.14226027257631
H           -0.82489409515860        5.73762476839611       -1.44365630868142
H            1.12619483259841        6.71315778338110       -0.28496131775964
H            2.50697014790461        5.29096864901892        1.18889770547501
H            1.93898367903634        2.92193938749036        1.50920405799124
H           -0.13990206831290       -0.47090886948133        1.96850127152503
H            1.63430013522771       -2.15673006812735        2.25080685736556
H            2.24130322227955        1.63676164848394       -0.89321739836405
H            4.83096805512712        1.94967864339502       -0.74334189682656
H            5.40992838037994        1.14403069975470        0.71947466441545
H            6.30142582534460        0.96963356041690       -0.79584594282233
H            3.84875911560529        0.54733991716651       -2.64624786686905
H            3.73911947509275       -1.20767937495583       -2.46620223757163
H            5.31481553728815       -0.43898287722207       -2.68423162868607
H            6.99345489607784       -1.57474386822653       -1.00107461788525
H            7.58057951679715       -3.63518785153487        0.21845173506570
H            6.00040335267852       -4.64836788057091        1.79722129163936
H            3.78906211566466       -3.61994224663999        2.19391264423757
H           -1.03532811051976       -0.60011862702044       -0.66068112950177

          :  Hamiltonian                  GFN2-xTB          :
         :: gradient norm              0.000043115965 Eh/a0 ::
         :: HOMO-LUMO gap              2.510571403695 eV    ::
         :: SCC energy               -97.658024836706 Eh    ::
         :: -> dispersion             -0.089840469312 Eh    ::
         :: repulsion energy           1.778020799780 Eh    ::

    * Orbital Energies and Occupations

         #    Occupation            Energy/Eh            Energy/eV
      -------------------------------------------------------------
         1        2.0000           -0.6618681             -18.0103
       ...           ...                  ...                  ...
        78        2.0000           -0.4124741             -11.2240
        79        2.0000           -0.4113864             -11.1944
        80        2.0000           -0.4104856             -11.1699
        81        2.0000           -0.4099402             -11.1550
        82        2.0000           -0.4091051             -11.1323
        83        2.0000           -0.4042891             -11.0013
        84        2.0000           -0.4003819             -10.8949
        85        2.0000           -0.3990634             -10.8591
        86        2.0000           -0.3938140             -10.7162
        87        2.0000           -0.3931185             -10.6973
        88        2.0000           -0.3863665             -10.5136
        89        2.0000           -0.3762140             -10.2373
        90        2.0000           -0.3424847              -9.3195 (HOMO)
        91                         -0.2502229              -6.8089 (LUMO)
        92                         -0.2430026              -6.6124
        93                         -0.2239951              -6.0952
        94                         -0.2191635              -5.9637
        95                         -0.2185889              -5.9481
        96                         -0.2159019              -5.8750
        97                         -0.2145823              -5.8391
        98                         -0.2137450              -5.8163
        99                         -0.1887018              -5.1348
       100                         -0.1715684              -4.6686
       101                         -0.1086633              -2.9569
       ...                                ...                  ...
       179                          0.7374624              20.0674
      -------------------------------------------------------------
                  HL-Gap            0.0922618 Eh            2.5106 eV

     #   Z          covCN         q      C6AA      α(0)
     1   6 C        3.758    -0.098    22.421     6.751
     2   6 C        3.936     0.019    20.196     6.386
     3   6 C        3.759    -0.098    22.414     6.750
     4   6 C        3.056    -0.003    28.043     8.685
     5   6 C        2.915    -0.034    28.848     8.807
     6   6 C        2.922    -0.034    28.856     8.809
     7   6 C        2.921    -0.033    28.834     8.806
     8   6 C        2.914    -0.036    28.884     8.813
     9   6 C        3.037     0.000    27.987     8.677
    10   6 C        3.036    -0.009    28.201     8.710
    11   6 C        2.914    -0.035    28.865     8.810
    12   6 C        2.923    -0.052    29.289     8.875
    13   6 C        2.926     0.061    26.636     8.464
    14   7 N        2.753    -0.073    22.647     7.068
    15   6 C        2.924     0.065    26.537     8.448
    16   6 C        2.922    -0.048    29.195     8.861
    17   6 C        2.919    -0.030    28.739     8.791
    18   6 C        2.919    -0.039    28.977     8.827
    19   6 C        2.919    -0.030    28.746     8.792
    20   6 C        2.922    -0.048    29.195     8.861
    21   6 C        2.926     0.061    26.630     8.463
    22   6 C        2.923    -0.052    29.289     8.875
    23   6 C        2.913    -0.035    28.873     8.811
    24   6 C        3.036    -0.009    28.211     8.712
    25   6 C        3.055    -0.001    28.010     8.680
    26   6 C        2.918    -0.052    29.304     8.877
    27   6 C        3.936     0.019    20.196     6.386
    28   6 C        3.759    -0.098    22.413     6.750
    29   6 C        3.758    -0.098    22.419     6.750
    30   6 C        3.056    -0.003    28.046     8.685
    31   6 C        2.915    -0.034    28.848     8.808
    32   6 C        2.922    -0.034    28.856     8.809
    33   6 C        2.921    -0.033    28.834     8.806
    34   6 C        2.914    -0.036    28.887     8.813
    35   6 C        3.037     0.000    27.990     8.678
    36   6 C        2.918    -0.052    29.291     8.875
    37   6 C        3.055    -0.001    28.005     8.679
    38   1 H        0.925     0.040     2.452     2.449
    39   1 H        0.925     0.035     2.510     2.478
    40   1 H        0.925     0.040     2.446     2.446
    41   1 H        0.925     0.040     2.447     2.446
    42   1 H        0.925     0.040     2.447     2.446
    43   1 H        0.925     0.035     2.511     2.478
    44   1 H        0.926     0.026     2.650     2.546
    45   1 H        0.926     0.027     2.630     2.536
    46   1 H        0.926     0.027     2.630     2.536
    47   1 H        0.926     0.028     2.615     2.529
    48   1 H        0.926     0.032     2.563     2.504
    49   1 H        0.926     0.031     2.575     2.509
    50   1 H        0.926     0.031     2.567     2.505
    51   1 H        0.926     0.030     2.582     2.513
    52   1 H        0.926     0.029     2.604     2.524
    53   1 H        0.926     0.030     2.586     2.515
    54   1 H        0.926     0.032     2.563     2.504
    55   1 H        0.926     0.031     2.567     2.506
    56   1 H        0.926     0.031     2.567     2.506
    57   1 H        0.926     0.030     2.593     2.518
    58   1 H        0.925     0.040     2.449     2.447
    59   1 H        0.925     0.035     2.512     2.479
    60   1 H        0.925     0.040     2.447     2.446
    61   1 H        0.925     0.040     2.453     2.449
    62   1 H        0.925     0.035     2.514     2.480
    63   1 H        0.925     0.040     2.446     2.446
    64   1 H        0.926     0.026     2.651     2.546
    65   1 H        0.926     0.027     2.630     2.536
    66   1 H        0.926     0.027     2.630     2.536
    67   1 H        0.926     0.028     2.616     2.529
    68   1 H        0.926     0.030     2.587     2.515

molecular dipole:
                 x           y           z       tot (Debye)
 q only:        0.226       0.005      -0.330
   full:        0.219       0.021      -0.309       0.963

 projected vibrational frequencies (cm⁻¹)
eigval :       -0.00     0.00     0.00     0.00     0.00     0.00
eigval :       17.26    20.03    23.81    28.18    48.86    56.96
eigval :       70.58    80.37    97.29   100.45   119.45   130.97
eigval :      135.90   139.40   158.57   169.06   181.29   197.79
eigval :      199.16   209.67   218.13   224.38   244.91   253.54
eigval :      259.39   261.90   292.95   303.32   314.17   324.03
eigval :      327.42   329.38   339.85   348.95   381.77   395.00
eigval :      419.14   426.00   450.33   464.63   467.85   472.00
eigval :      492.53   516.73   521.11   541.88   542.29   554.00
eigval :      560.39   568.05   569.99   582.63   586.96   592.77
eigval :      614.28   630.27   660.78   662.33   692.34   692.93
eigval :      719.29   722.16   722.52   725.64   745.14   763.06
eigval :      777.62   778.39   778.57   805.56   827.32   829.86
eigval :      844.19   875.29   878.34   878.35   884.04   885.02
eigval :      892.65   909.39   909.41   913.17   913.83   926.79
eigval :      926.80   928.69   929.03   937.79   952.48   965.15
eigval :      966.57   966.61   981.21   986.19  1006.41  1013.19
eigval :     1013.30  1013.78  1069.72  1069.84  1078.64  1078.77
eigval :     1084.02  1112.92  1113.52  1123.57  1149.46  1152.26
eigval :     1159.23  1159.71  1175.89  1175.94  1180.85  1181.45
eigval :     1183.57  1183.69  1198.71  1220.56  1227.07  1227.69
eigval :     1233.82  1246.59  1257.90  1272.67  1272.76  1278.28
eigval :     1285.98  1289.93  1318.73  1324.77  1325.44  1332.35
eigval :     1335.61  1367.54  1374.25  1395.49  1395.55  1411.57
eigval :     1411.62  1431.26  1434.21  1436.25  1438.75  1443.59
eigval :     1457.26  1460.18  1473.10  1476.31  1476.89  1487.40
eigval :     1487.53  1489.73  1489.87  1497.68  1497.81  1502.59
eigval :     1502.71  1572.09  1576.37  1579.34  1594.37  1594.50
eigval :     1596.58  1599.57  1601.89  1610.24  1611.42  3027.59
eigval :     3027.95  3029.37  3029.39  3031.84  3032.05  3033.17
eigval :     3033.36  3037.61  3037.75  3038.80  3038.91  3068.74
eigval :     3068.80  3072.85  3072.95  3074.79  3076.03  3078.52
eigval :     3078.81  3080.29  3080.69  3081.82  3081.99  3086.22
eigval :     3088.69  3089.06  3089.21  3091.30  3091.39  3096.79

   temp. (K)  partition function   enthalpy   heat capacity  entropy
                                   cal/mol     cal/K/mol   cal/K/mol   J/K/mol
 298.15  VIB  0.845E+13            18196.577    117.681    110.684
         ROT  0.410E+08              888.752      2.981     37.816
         INT  0.347E+21            19085.329    120.662    148.500
         TR   0.101E+29             1481.254      4.968     44.359
         TOT                       20566.5830   125.6298   192.8584   806.9195

       T/K    H(0)-H(T)+PV         H(T)/Eh          T*S/Eh         G(T)/Eh
   ------------------------------------------------------------------------
    298.15    0.327749E-01    0.583142E+00    0.916332E-01    0.491509E+00
   ------------------------------------------------------------------------

         :::::::::::::::::::::::::::::::::::::::::::::::::::::
         ::                  THERMODYNAMIC                  ::
         :::::::::::::::::::::::::::::::::::::::::::::::::::::
         :: total free energy         -95.388495055893 Eh   ::
         ::.................................................::
         :: total energy              -95.880004036911 Eh   ::
         :: zero point energy           0.550367287667 Eh   ::
         :: G(RRHO) w/o ZPVE           -0.058858306649 Eh   ::
         :: G(RRHO) contrib.            0.491508981018 Eh   ::
         :::::::::::::::::::::::::::::::::::::::::::::::::::::

           -------------------------------------------------
          | TOTAL ENERGY              -95.880004036911 Eh   |
          | TOTAL ENTHALPY            -95.296861812955 Eh   |
          | TOTAL FREE ENERGY         -95.388495055893 Eh   |
          | GRADIENT NORM               0.000043116714 Eh/α |
          | HOMO-LUMO GAP               2.510571546363 eV   |
           -------------------------------------------------

 * finished run on 2025/09/10 at 08:57:22.404
