   * xtb version 6.7.1 (edcfbbe) compiled by 'albert@albert-system' on 2024-07-22

   ID    Z sym.   atoms
    1    6 C      1-5, 7-11, 13-27, 29-33, 35-49, 51-53, 55-66
    2    7 N      6, 12, 28, 34, 50, 54
    3    1 H      67-108

          program call               : xtb data2507/gas/CZ-TRZ/CZ-TRZ_gas_S0_finalOpt.xtbopt.xyz --gfn 2 --spinpol --tblite --uhf 2 --ohess vtight --parallel 40 --molden --ceasefiles --namespace data2507/gas/CZ-TRZ/CZ-TRZ_gas_T1_preOpt
 * total energy  :  -167.5197031 Eh     change        0.4980183E-07 Eh
 * total energy  :  -167.5215198 Eh     change       -0.1816762E-02 Eh
 * total energy  :  -167.5221798 Eh     change       -0.6599948E-03 Eh
 * total energy  :  -167.5222053 Eh     change       -0.2544201E-04 Eh
 * total energy  :  -167.5222221 Eh     change       -0.1681648E-04 Eh
 * total energy  :  -167.5222281 Eh     change       -0.5983444E-05 Eh
 * total energy  :  -167.5222404 Eh     change       -0.1233291E-04 Eh
 * total energy  :  -167.5222446 Eh     change       -0.4255718E-05 Eh
 * total energy  :  -167.5222737 Eh     change       -0.2906098E-04 Eh
 * total energy  :  -167.5223013 Eh     change       -0.2764293E-04 Eh
 * total energy  :  -167.5226185 Eh     change       -0.2760222E-06 Eh
 * total energy  :  -167.5226187 Eh     change       -0.1839596E-06 Eh
 * total energy  :  -167.5226188 Eh     change       -0.4984381E-07 Eh
 * total energy  :  -167.5226190 Eh     change       -0.2521173E-06 Eh
 * total energy  :  -167.5226190 Eh     change       -0.3067527E-07 Eh
 * total energy  :  -167.5226202 Eh     change       -0.1127240E-05 Eh
 * total energy  :  -167.5226207 Eh     change       -0.5215472E-06 Eh
 * total energy  :  -167.5226207 Eh     change        0.1877683E-07 Eh
 * total energy  :  -167.5226207 Eh     change       -0.4935981E-07 Eh
   *** GEOMETRY OPTIMIZATION CONVERGED AFTER 60 ITERATIONS ***

 final structure:
================
108
 xtb: 6.7.1 (edcfbbe)
C           -4.09224847607962       -4.51006712610593       -0.36484128840642
C           -2.63170037714787       -4.19676232317117       -0.23693381676381
C           -2.18809786524938       -2.89209284700962       -0.19389021635169
C           -0.82207561481055       -2.57852736449811       -0.12267463368043
C           -0.38812417330659       -1.21467863676239       -0.07432394309928
N            0.95570310540474       -0.94771050981421       -0.01789028457928
C            1.32587174078391        0.31730747002568        0.03125520499444
C            2.75640721672178        0.62102054323649        0.07956651737796
C            3.19307791531046        1.94180714285984        0.15823690240320
C            4.54286703035641        2.21259640034752        0.21292127581981
C            5.47170198769598        1.17538484013478        0.18629409357864
N            6.84209289858781        1.48622259119738        0.24896542614280
C            7.71046661287571        1.12806696968904        1.25572657222658
C            7.45083503093695        0.45439356228156        2.44081495118144
C            8.51067137348300        0.23396739189443        3.29947646685829
C            9.79537086937471        0.68045936403369        2.99704099879381
C           10.05237882104554        1.37804888061113        1.83261773759443
C            9.00454581695719        1.61213347566136        0.95282597298463
C            8.89496174265665        2.30663604110922       -0.30058127248252
C            9.80012170699889        2.98209062917746       -1.10777419611932
C            9.34451030400774        3.54708792973340       -2.28324407540582
C            8.00808101360001        3.43991091964836       -2.66303204218298
C            7.08795317560717        2.77083507294558       -1.87900923409875
C            7.53905255280331        2.21273832960770       -0.69174834513897
C            5.05114068372596       -0.15576742078457        0.07444483093399
C            6.04231787619110       -1.27359968571055       -0.03489873148211
C            3.69093365161208       -0.40981905091579        0.03313172698209
N            0.47227910212144        1.32395384282531        0.04628049906967
C           -0.86421872184299        1.02547506485253       -0.02206283161863
C           -1.81428429554884        2.09751717990853       -0.02337460253317
C           -1.38490366620124        3.43216087272750        0.03907804749961
C           -2.30604002404112        4.45102278667458        0.04818356794409
C           -3.67166481297040        4.17234516902711       -0.00493453350807
N           -4.58937356359693        5.24138268592059        0.01167128949215
C           -4.71804843274023        6.19486262013113       -0.97076739543656
C           -4.02347975573333        6.31948640541592       -2.16615067809726
C           -4.36026685460634        7.37132972400647       -2.99617564784556
C           -5.36480626109268        8.27412619692659       -2.65284200217003
C           -6.06614091127649        8.14763230320521       -1.46793603859643
C           -5.74580134866795        7.10106743502332       -0.61548853448422
C           -6.24458668957939        6.66494950293294        0.66050824446082
C           -7.22211730288294        7.13806614905235        1.52367531138981
C           -7.42965733735477        6.47202777048958        2.71738526463714
C           -6.66727757382649        5.35796195656503        3.06280736732573
C           -5.68801233140794        4.86692265466880        2.22094932488823
C           -5.49357452800886        5.51685749173838        1.00949982488454
C           -4.12466265885211        2.84721110217818       -0.09795344074604
C           -5.58751747845544        2.54693830997328       -0.23048170195292
C           -3.19032061122339        1.83329729597543       -0.09770972213191
N           -1.27258641369063       -0.23043513264974       -0.08650983181743
C            0.11146016825778       -3.62657683890878       -0.10849395973189
C           -0.31810510790438       -4.93075869351781       -0.14180034854647
C           -1.68009084227619       -5.22738885171307       -0.19107597724041
N           -2.08656235675130       -6.57637540994763       -0.21732945386218
C           -2.79090448098425       -7.22840718329061        0.76645937175257
C           -3.21705725088377       -6.75521622563374        2.00028511049266
C           -3.90512318754935       -7.62896525795543        2.81996568781509
C           -4.15705613226134       -8.94313290017187        2.43106159403165
C           -3.71233317439029       -9.42633223392076        1.21439577740209
C           -3.01891328527277       -8.56887544623626        0.37266242780553
C           -2.40193536353270       -8.72115518929638       -0.91698955205517
C           -2.28321596949808       -9.77707682333157       -1.80895425594887
C           -1.60499798353193       -9.56771432095903       -2.99553171607119
C           -1.05419386218959       -8.32475787599147       -3.30171448572313
C           -1.16023277771718       -7.25659632780062       -2.43194299162849
C           -1.83157334203764       -7.46522360800949       -1.23499651935639
H           -4.25113070071250       -5.31347573754926       -1.08305071208955
H           -4.50818036305794       -4.83414792783966        0.58907217456355
H           -4.63903296692730       -3.63043356962926       -0.69446723930583
H           -2.89530861666958       -2.07734369954297       -0.22829737622678
H            2.46331780386906        2.73542442382677        0.18329623757862
H            4.89837386346956        3.23009870814948        0.28614570043554
H            6.45112307466104        0.13094600501470        2.69034132638767
H            8.33899367178785       -0.29047717091140        4.22793447664219
H           10.59767350840546        0.48662548827486        3.69328016805083
H           11.04484412398199        1.74030207032892        1.61070927652702
H           10.83764896298647        3.06085782030907       -0.81999587536058
H           10.03271633974716        4.07856409200369       -2.92352535010105
H            7.68543384313698        3.88800569440442       -3.59116008425270
H            6.05411327671652        2.68191231066339       -2.17795741759333
H            5.57364337086083       -2.15049966637579       -0.47397563566649
H            6.88872319765635       -0.97751967982223       -0.65268606759086
H            6.43116791996568       -1.54912639879570        0.94521215872444
H            3.33138513835010       -1.42424292898111       -0.05143917615081
H           -0.32708753934310        3.63672167596136        0.08603671156707
H           -1.98747044344121        5.48202931888880        0.10698304918043
H           -3.24963453416980        5.61555038430455       -2.43328526026318
H           -3.83566828172522        7.49634087481007       -3.93181190765072
H           -5.59850677536029        9.08357229812841       -3.32832012923133
H           -6.84749453366402        8.84629351864630       -1.20925076336722
H           -7.80358817496653        8.01104451974623        1.26806442130955
H           -8.18724420386138        6.82427700099778        3.40151447638005
H           -6.84296667457204        4.87177895022898        4.01108490548403
H           -5.08181856559711        4.01756439398647        2.49877402120979
H           -5.73281323609088        1.53306760857100       -0.59424073122981
H           -6.09540983657662        2.64248743283196        0.72912436671790
H           -6.06061550294017        3.24131537529563       -0.92371563036549
H           -3.50689687038496        0.80382706097468       -0.16954073122940
H            1.16193289074408       -3.38690621290691       -0.06329092987654
H            0.39118322073170       -5.74588690017462       -0.11990348455838
H           -3.00210014951056       -5.74368192652655        2.31117803685933
H           -4.25116224355121       -7.28867223232284        3.78481666798998
H           -4.70019337968129       -9.59495873383699        3.09902047807987
H           -3.89523172240979      -10.45012419303119        0.92466917606700
H           -2.71313289097540      -10.74032958054002       -1.57899006587018
H           -1.50063154396312      -10.37810139513535       -3.70155255115882
H           -0.53523490872417       -8.19420424427937       -4.23974985588287
H           -0.73948570610290       -6.29121180587309       -2.67015647188046

 projected vibrational frequencies (cm⁻¹)
eigval :       -0.00    -0.00    -0.00     0.00     0.00     0.00
eigval :        6.56     8.73     8.84     9.10    13.21    13.52
eigval :       22.21    22.68    35.85    43.54    45.63    47.71
eigval :       50.34    51.45    53.39    88.36    91.97    93.34
eigval :       95.47    96.29    97.45   106.03   106.80   108.06
eigval :      121.61   138.26   140.03   140.64   143.65   144.74
eigval :      151.32   156.00   164.99   189.84   196.97   203.94
eigval :      206.34   216.30   217.54   225.45   227.36   232.91
eigval :      268.67   270.57   271.19   271.77   291.90   308.41
eigval :      312.16   324.74   331.81   348.20   355.56   377.16
eigval :      383.49   391.53   395.12   397.10   398.08   408.76
eigval :      413.01   417.31   421.24   422.65   423.10   428.70
eigval :      433.68   434.48   437.55   458.84   467.87   474.38
eigval :      485.94   514.13   516.64   517.39   518.12   519.05
eigval :      520.81   521.91   539.37   539.43   541.15   549.57
eigval :      552.34   559.85   561.67   566.32   578.08   580.83
eigval :      582.71   584.83   589.77   594.79   598.57   611.61
eigval :      625.45   631.60   641.00   666.45   673.66   674.03
eigval :      674.06   677.47   681.66   692.13   692.36   699.52
eigval :      707.29   708.82   709.70   713.22   735.01   750.48
eigval :      755.69   756.12   756.54   768.96   769.04   769.76
eigval :      779.20   779.22   780.88   817.16   818.30   835.23
eigval :      845.71   863.62   867.84   869.01   869.62   870.11
eigval :      873.48   873.60   875.20   884.81   895.00   895.25
eigval :      898.05   901.59   901.60   902.20   903.50   903.54
eigval :      904.06   908.90   909.09   912.97   915.00   918.66
eigval :      920.61   920.64   920.81   922.02   922.07   922.48
eigval :      923.20   930.94   947.02   959.58   989.76  1010.90
eigval :     1010.94  1011.70  1013.93  1017.99  1022.48  1032.33
eigval :     1032.64  1032.67  1065.78  1065.81  1067.27  1068.77
eigval :     1068.89  1070.49  1081.20  1089.47  1094.50  1098.69
eigval :     1115.34  1131.38  1136.53  1140.22  1144.68  1144.70
eigval :     1148.32  1155.69  1173.41  1173.56  1174.71  1180.42
eigval :     1180.45  1180.80  1181.17  1181.47  1185.16  1200.30
eigval :     1210.43  1225.50  1227.37  1234.45  1234.66  1234.68
eigval :     1236.10  1237.49  1239.42  1242.35  1254.65  1275.22
eigval :     1295.25  1296.23  1297.58  1298.44  1298.53  1303.45
eigval :     1322.74  1325.62  1326.35  1339.35  1349.08  1350.50
eigval :     1352.23  1352.55  1356.54  1358.62  1359.44  1361.73
eigval :     1365.15  1371.08  1399.43  1408.03  1408.45  1408.99
eigval :     1415.54  1418.12  1418.13  1420.10  1424.68  1431.16
eigval :     1431.52  1432.90  1437.70  1467.29  1467.42  1469.68
eigval :     1471.60  1475.84  1480.01  1480.78  1482.02  1483.99
eigval :     1484.47  1484.55  1486.33  1486.42  1487.93  1494.05
eigval :     1525.11  1526.32  1558.29  1567.14  1567.46  1568.48
eigval :     1571.42  1575.12  1585.12  1585.68  1586.15  1586.20
eigval :     1586.95  1589.63  1594.20  1606.46  1607.66  1610.39
eigval :     3001.50  3001.78  3004.29  3020.32  3020.37  3026.02
eigval :     3046.54  3046.93  3047.51  3076.19  3076.85  3077.22
eigval :     3077.23  3077.50  3077.52  3078.16  3078.30  3080.93
eigval :     3081.72  3081.74  3082.13  3083.24  3083.32  3084.75
eigval :     3087.81  3088.60  3088.65  3089.73  3090.44  3090.55
eigval :     3092.48  3094.04  3094.88  3095.70  3095.88  3095.99
eigval :     3096.47  3096.51  3097.15  3103.64  3104.14  3107.72

   temp. (K)  partition function   enthalpy   heat capacity  entropy
                                   cal/mol     cal/K/mol   cal/K/mol   J/K/mol
 298.15  VIB  0.128E+28            32505.855    200.701    205.888
         ROT  0.391E+09              888.752      2.981     42.295
         INT  0.498E+36            33394.607    203.681    248.184
         TR   0.239E+29             1481.254      4.968     46.066
         TOT                       34875.8610   208.6496   294.2496  1231.1402

       T/K    H(0)-H(T)+PV         H(T)/Eh          T*S/Eh         G(T)/Eh
   ------------------------------------------------------------------------
    298.15    0.555782E-01    0.882769E+00    0.139807E+00    0.742961E+00
   ------------------------------------------------------------------------

         :::::::::::::::::::::::::::::::::::::::::::::::::::::
         ::                  THERMODYNAMIC                  ::
         :::::::::::::::::::::::::::::::::::::::::::::::::::::
         :: total free energy        -166.779659522464 Eh   ::
         ::.................................................::
         :: total energy             -167.522620830027 Eh   ::
         :: zero point energy           0.827190554474 Eh   ::
         :: G(RRHO) w/o ZPVE           -0.084229246912 Eh   ::
         :: G(RRHO) contrib.            0.742961307563 Eh   ::
         :::::::::::::::::::::::::::::::::::::::::::::::::::::

           -------------------------------------------------
          | TOTAL ENERGY             -167.522620830027 Eh   |
          | TOTAL ENTHALPY           -166.639852053356 Eh   |
          | TOTAL FREE ENERGY        -166.779659522464 Eh   |
          | GRADIENT NORM               0.000097570942 Eh/α |
           -------------------------------------------------

 * finished run on 2025/08/25 at 17:26:03.835
