   * xtb version 6.7.1 (edcfbbe) compiled by 'albert@albert-system' on 2024-07-22

   ID    Z sym.   atoms
    1    6 C      1-5, 7-11, 13-27, 29-33, 35-49, 51-53, 55-66
    2    7 N      6, 12, 28, 34, 50, 54
    3    1 H      67-108

          program call               : xtb data2507/gas/CZ-TRZ/CZ-TRZ.xyz --gfn 2 --ohess vtight --parallel 40 --molden --ceasefiles --namespace data2507/gas/CZ-TRZ/CZ-TRZ_gas_S0_preOpt
          :  Hamiltonian                  GFN2-xTB          :
 * total energy  :  -167.5703413 Eh     change       -0.2792575E-08 Eh
 * total energy  :  -167.5900422 Eh     change       -0.1970091E-01 Eh
 * total energy  :  -167.5947905 Eh     change       -0.4748253E-02 Eh
 * total energy  :  -167.5960195 Eh     change       -0.1229034E-02 Eh
 * total energy  :  -167.5969862 Eh     change       -0.9666549E-03 Eh
 * total energy  :  -167.5974259 Eh     change       -0.4397658E-03 Eh
 * total energy  :  -167.5976493 Eh     change       -0.2233523E-03 Eh
 * total energy  :  -167.5977414 Eh     change       -0.9212644E-04 Eh
 * total energy  :  -167.5977777 Eh     change       -0.3634954E-04 Eh
 * total energy  :  -167.5977994 Eh     change       -0.2160481E-04 Eh
 * total energy  :  -167.5980126 Eh     change       -0.1324529E-05 Eh
 * total energy  :  -167.5980150 Eh     change       -0.2384557E-05 Eh
 * total energy  :  -167.5980184 Eh     change       -0.3427234E-05 Eh
 * total energy  :  -167.5980212 Eh     change       -0.2832229E-05 Eh
 * total energy  :  -167.5980226 Eh     change       -0.1384652E-05 Eh
 * total energy  :  -167.5980232 Eh     change       -0.6143009E-06 Eh
 * total energy  :  -167.5980236 Eh     change       -0.3573954E-06 Eh
 * total energy  :  -167.5980239 Eh     change       -0.2990150E-06 Eh
 * total energy  :  -167.5980239 Eh     change       -0.2138330E-07 Eh
   *** GEOMETRY OPTIMIZATION CONVERGED AFTER 41 ITERATIONS ***

 final structure:
================
108
 xtb: 6.7.1 (edcfbbe)
C           -4.16121934511428       -4.27449596934734       -0.43682642783290
C           -2.69086646558419       -4.03401497825046       -0.28193918385327
C           -2.18879657539978       -2.74480661232693       -0.22683875315734
C           -0.82121238683503       -2.49946247409411       -0.13801101930500
C           -0.32515977830991       -1.12568950596322       -0.07834518090762
N            0.99050566935290       -0.93992730502742       -0.02298227460464
C            1.39815024647086        0.32485620820763        0.03724211333610
C            2.83565097326111        0.58090582045078        0.09888303839051
C            3.31439067640464        1.88633327646468        0.19285043039888
C            4.67192302312016        2.11174349757736        0.26000748158839
C            5.56738139829421        1.04523476489503        0.23214978940881
N            6.94476070091653        1.31177252888073        0.30917721298273
C            7.79875884071295        0.89814457989913        1.30845221708438
C            7.51431599277072        0.20302770964747        2.47493555072584
C            8.56337240490183       -0.07188783354729        3.33100085250618
C            9.86232798194469        0.34323029926947        3.04505469599699
C           10.14425467892569        1.06392717345222        1.90153281835952
C            9.10726356635361        1.35254881021866        1.02421977969705
C            9.02415540780911        2.08639106771697       -0.20797782977807
C            9.95437113267236        2.75601318494087       -0.99225838195767
C            9.52311563280239        3.36793814276935       -2.15238257873351
C            8.18586311300237        3.31279854815086       -2.54055162508322
C            7.24152305222682        2.65091668880223       -1.77971484417539
C            7.66829436779938        2.04646889617188       -0.60665877762756
C            5.10414010228037       -0.27037575785297        0.10379873126013
C            6.05721375879714       -1.42003740559545       -0.01266826334595
C            3.73650907183063       -0.47955822731768        0.04944052632184
N            0.57757838267916        1.37152309230552        0.04560401861643
C           -0.72147241110438        1.09388256501384       -0.01619428897960
C           -1.66211292482741        2.21254046446750       -0.01220814331029
C           -1.19827276167663        3.52196437710235        0.09907033577206
C           -2.09785941674405        4.56544146430399        0.11361169117161
C           -3.46553532998608        4.32084507586106        0.01449067001887
N           -4.35496294279430        5.40810729310269        0.04048452433587
C           -4.39143117690763        6.43354887928686       -0.88117487061515
C           -3.61269861943119        6.62428479430225       -2.01287795538259
C           -3.87431031675338        7.73494071407390       -2.79185853476716
C           -4.88878133171943        8.63154818316782       -2.46189370034742
C           -5.67502173971228        8.43797329736813       -1.34357086654818
C           -5.43042783986403        7.33046672894434       -0.54210559141924
C           -6.03127613578878        6.82121228414429        0.65929687647612
C           -7.06200031636960        7.26245169480349        1.47857316890724
C           -7.36922301030782        6.52999250350043        2.60802537337345
C           -6.65101671718538        5.38246320521764        2.93775169713450
C           -5.62093264187475        4.92309154699148        2.13972348266369
C           -5.33110151786942        5.63700002410868        0.98598713929263
C           -3.94582376018978        3.01338906261766       -0.13329653529875
C           -5.40587712556182        2.74019275080042       -0.32699798258091
C           -3.02879249536974        1.97600381360198       -0.13294051051148
N           -1.21702194026781       -0.13895285212746       -0.08015305021318
C            0.06935403698576       -3.57109135748439       -0.11684421258771
C           -0.41363979706465       -4.86079922936197       -0.15950260452090
C           -1.78415992299368       -5.10004063403893       -0.22524316121281
N           -2.24259154846844       -6.42794402375311       -0.25659548475668
C           -3.03773339038307       -7.03525404722212        0.69108793529823
C           -3.51022429665370       -6.53192927834047        1.89448900774313
C           -4.28096976659579       -7.36602518099804        2.68138335567061
C           -4.56694040401272       -8.67286544840578        2.29182363439086
C           -4.07162813483870       -9.18839700840917        1.11055650368620
C           -3.29466891812334       -8.36995738330940        0.30134845428619
C           -2.60487066352176       -8.57018926931778       -0.94273154233570
C           -2.48137200522093       -9.64774040033071       -1.81011720628969
C           -1.72402534207458       -9.49237415544177       -2.95405616526931
C           -1.09996620819133       -8.28070260383830       -3.24451950428331
C           -1.20937957259416       -7.19306959772107       -2.39959777415199
C           -1.95816435822440       -7.34921393696309       -1.24266243748222
H           -4.34472442402242       -5.12575517356767       -1.09034283259342
H           -4.62618936120216       -4.49214702568463        0.52449897807658
H           -4.64368435430386       -3.39544979179375       -0.85662569109042
H           -2.85956015302695       -1.90041946197757       -0.26570391039264
H            2.61111467842096        2.70280558555559        0.21935935213223
H            5.06003186491537        3.11632756442287        0.34479831443462
H            6.50413373483099       -0.09477083339252        2.71431643874141
H            8.37184032065539       -0.61479709061935        4.24498927694983
H           10.65539405761901        0.10701451353539        3.73886821205069
H           11.14755470588472        1.40388976213849        1.69329325021567
H           10.99240926679498        2.79332838955635       -0.69786976816871
H           10.23059537057323        3.89562216027497       -2.77463741583670
H            7.88184806111493        3.79623558778065       -3.45729345718228
H            6.20728779117422        2.60223412334537       -2.08686937388417
H            5.56886122404153       -2.26616208076651       -0.48937317916184
H            6.92999276406902       -1.13764402330814       -0.59916759202467
H            6.40970293975736       -1.73816122798616        0.96826422815895
H            3.34519567247077       -1.48039563959161       -0.04878015423529
H           -0.13802579543379        3.69809211919714        0.18133793123633
H           -1.75639094400615        5.58558974827058        0.21201224397712
H           -2.83155141194762        5.92632596207262       -2.27555892759127
H           -3.28131317933602        7.91123554888269       -3.67719549368158
H           -5.06162031836251        9.48793975790965       -3.09662445940816
H           -6.46565187567710        9.12960100125745       -1.09430839993590
H           -7.60490611681474        8.16384908019465        1.23720070318784
H           -8.16883782560529        6.85535879205721        3.25676614853428
H           -6.90120527809004        4.84428604520862        3.84029969053981
H           -5.04731214364437        4.05011922365016        2.41413450840699
H           -5.54640837214992        1.78099622983749       -0.81892977711071
H           -5.92994264449642        2.71321699476804        0.62815283135106
H           -5.86609529714166        3.51956912223424       -0.93204444192253
H           -3.36481187469068        0.95645731429320       -0.24283409307121
H            1.12731572726400       -3.37323958932415       -0.05772906505480
H            0.26200174624801       -5.70329042969114       -0.13193038749655
H           -3.26659919725397       -5.52931057837830        2.21366039768609
H           -4.66510981410994       -6.99964974904151        3.62213807884069
H           -5.17470671152779       -9.29279163699052        2.93403014303466
H           -4.27604531443820      -10.20826648967641        0.82139547680258
H           -2.97045396546229      -10.58498308904055       -1.59115844244096
H           -1.61384724558614      -10.31910220279088       -3.64001706089258
H           -0.52010143225466       -8.18960223355181       -4.15117241156069
H           -0.73182073506973       -6.25246681550785       -2.63111371327968

          :  Hamiltonian                  GFN2-xTB          :
         :: gradient norm              0.000168372135 Eh/a0 ::
         :: HOMO-LUMO gap              2.002562415468 eV    ::
         :: SCC energy              -170.677377760617 Eh    ::
         :: -> dispersion             -0.152494460872 Eh    ::
         :: repulsion energy           3.079353842423 Eh    ::

    * Orbital Energies and Occupations

         #    Occupation            Energy/Eh            Energy/eV
      -------------------------------------------------------------
         1        2.0000           -0.6855002             -18.6534
       ...           ...                  ...                  ...
       144        2.0000           -0.4061859             -11.0529
       145        2.0000           -0.4058471             -11.0437
       146        2.0000           -0.4045424             -11.0082
       147        2.0000           -0.4042315             -10.9997
       148        2.0000           -0.4038485             -10.9893
       149        2.0000           -0.3783698             -10.2960
       150        2.0000           -0.3780821             -10.2881
       151        2.0000           -0.3777044             -10.2779
       152        2.0000           -0.3734806             -10.1629
       153        2.0000           -0.3731174             -10.1530
       154        2.0000           -0.3638296              -9.9003
       155        2.0000           -0.3635009              -9.8914
       156        2.0000           -0.3630555              -9.8792 (HOMO)
       157                         -0.2894628              -7.8767 (LUMO)
       158                         -0.2893919              -7.8748
       159                         -0.2520105              -6.8576
       160                         -0.2444900              -6.6529
       161                         -0.2441383              -6.6433
       162                         -0.2430721              -6.6143
       163                         -0.2341912              -6.3727
       164                         -0.2337792              -6.3615
       165                         -0.2333659              -6.3502
       166                         -0.2214884              -6.0270
       167                         -0.2211984              -6.0191
       ...                                ...                  ...
       306                          0.7471311              20.3305
      -------------------------------------------------------------
                  HL-Gap            0.0735927 Eh            2.0026 eV

     #   Z          covCN         q      C6AA      α(0)
     1   6 C        3.757    -0.108    22.615     6.780
     2   6 C        2.965     0.010    27.784     8.646
     3   6 C        2.930    -0.035    28.876     8.813
     4   6 C        2.982    -0.004    28.123     8.699
     5   6 C        2.983     0.202    23.708     7.987
     6   7 N        1.844    -0.296    28.511     7.913
     7   6 C        2.983     0.202    23.705     7.986
     8   6 C        2.982    -0.004    28.126     8.699
     9   6 C        2.923    -0.028    28.712     8.787
    10   6 C        2.921    -0.041    29.020     8.834
    11   6 C        2.918     0.059    26.666     8.468
    12   7 N        2.804    -0.043    22.063     6.976
    13   6 C        3.079     0.048    26.844     8.494
    14   6 C        2.909    -0.051    29.256     8.869
    15   6 C        2.924    -0.034    28.842     8.807
    16   6 C        2.920    -0.041    29.024     8.835
    17   6 C        2.913    -0.033    28.816     8.802
    18   6 C        3.069    -0.018    28.379     8.735
    19   6 C        3.068    -0.018    28.382     8.736
    20   6 C        2.912    -0.033    28.820     8.803
    21   6 C        2.920    -0.041    29.022     8.834
    22   6 C        2.924    -0.033    28.825     8.805
    23   6 C        2.909    -0.051    29.268     8.871
    24   6 C        3.080     0.046    26.881     8.500
    25   6 C        2.965     0.010    27.782     8.646
    26   6 C        3.757    -0.108    22.618     6.781
    27   6 C        2.930    -0.035    28.874     8.812
    28   7 N        1.844    -0.295    28.503     7.912
    29   6 C        2.983     0.202    23.707     7.987
    30   6 C        2.982    -0.004    28.125     8.699
    31   6 C        2.923    -0.028    28.711     8.787
    32   6 C        2.921    -0.041    29.020     8.834
    33   6 C        2.918     0.059    26.667     8.468
    34   7 N        2.804    -0.043    22.064     6.976
    35   6 C        3.080     0.046    26.882     8.500
    36   6 C        2.909    -0.051    29.268     8.871
    37   6 C        2.924    -0.033    28.824     8.804
    38   6 C        2.920    -0.041    29.021     8.834
    39   6 C        2.912    -0.033    28.820     8.803
    40   6 C        3.068    -0.018    28.382     8.736
    41   6 C        3.069    -0.018    28.379     8.735
    42   6 C        2.913    -0.033    28.816     8.802
    43   6 C        2.920    -0.041    29.024     8.835
    44   6 C        2.924    -0.034    28.843     8.807
    45   6 C        2.909    -0.051    29.256     8.869
    46   6 C        3.079     0.048    26.845     8.494
    47   6 C        2.965     0.010    27.787     8.646
    48   6 C        3.757    -0.108    22.614     6.780
    49   6 C        2.930    -0.035    28.876     8.813
    50   7 N        1.844    -0.296    28.519     7.914
    51   6 C        2.923    -0.029    28.714     8.787
    52   6 C        2.921    -0.041    29.021     8.834
    53   6 C        2.918     0.059    26.668     8.468
    54   7 N        2.804    -0.043    22.067     6.977
    55   6 C        3.079     0.048    26.845     8.494
    56   6 C        2.909    -0.051    29.257     8.869
    57   6 C        2.924    -0.034    28.842     8.807
    58   6 C        2.920    -0.041    29.024     8.835
    59   6 C        2.913    -0.033    28.816     8.802
    60   6 C        3.069    -0.018    28.379     8.735
    61   6 C        3.068    -0.018    28.382     8.736
    62   6 C        2.912    -0.033    28.820     8.803
    63   6 C        2.920    -0.041    29.022     8.834
    64   6 C        2.924    -0.033    28.826     8.805
    65   6 C        2.909    -0.051    29.269     8.871
    66   6 C        3.080     0.046    26.882     8.500
    67   1 H        0.925     0.048     2.343     2.394
    68   1 H        0.925     0.056     2.244     2.343
    69   1 H        0.925     0.048     2.347     2.396
    70   1 H        0.926     0.060     2.198     2.318
    71   1 H        0.926     0.059     2.205     2.322
    72   1 H        0.926     0.046     2.373     2.409
    73   1 H        0.926     0.025     2.665     2.553
    74   1 H        0.926     0.028     2.614     2.528
    75   1 H        0.926     0.028     2.620     2.531
    76   1 H        0.926     0.031     2.577     2.510
    77   1 H        0.926     0.031     2.578     2.511
    78   1 H        0.926     0.028     2.618     2.530
    79   1 H        0.926     0.029     2.602     2.522
    80   1 H        0.926     0.026     2.649     2.545
    81   1 H        0.925     0.048     2.341     2.393
    82   1 H        0.925     0.048     2.343     2.394
    83   1 H        0.925     0.056     2.243     2.342
    84   1 H        0.926     0.060     2.194     2.316
    85   1 H        0.926     0.060     2.204     2.321
    86   1 H        0.926     0.046     2.372     2.408
    87   1 H        0.926     0.026     2.648     2.545
    88   1 H        0.926     0.029     2.600     2.522
    89   1 H        0.926     0.028     2.617     2.530
    90   1 H        0.926     0.031     2.577     2.510
    91   1 H        0.926     0.031     2.576     2.510
    92   1 H        0.926     0.028     2.620     2.531
    93   1 H        0.926     0.028     2.614     2.528
    94   1 H        0.926     0.025     2.665     2.553
    95   1 H        0.925     0.048     2.348     2.396
    96   1 H        0.925     0.056     2.245     2.343
    97   1 H        0.925     0.048     2.344     2.394
    98   1 H        0.926     0.060     2.201     2.320
    99   1 H        0.926     0.059     2.209     2.324
   100   1 H        0.926     0.046     2.376     2.411
   101   1 H        0.926     0.024     2.666     2.553
   102   1 H        0.926     0.028     2.614     2.528
   103   1 H        0.926     0.028     2.620     2.531
   104   1 H        0.926     0.031     2.576     2.510
   105   1 H        0.926     0.031     2.577     2.510
   106   1 H        0.926     0.028     2.617     2.530
   107   1 H        0.926     0.029     2.602     2.523
   108   1 H        0.926     0.025     2.651     2.546

molecular dipole:
                 x           y           z       tot (Debye)
 q only:       -0.332      -0.275      -0.086
   full:       -0.299      -0.248      -0.058       0.999

 projected vibrational frequencies (cm⁻¹)
eigval :       -0.00    -0.00    -0.00    -0.00     0.00     0.00
eigval :        4.29     6.44     6.46     9.16    14.01    14.21
eigval :       22.28    22.48    35.66    45.56    47.02    48.54
eigval :       50.86    52.13    55.10    85.82    86.63    94.19
eigval :       95.88    97.52    97.67   109.00   109.46   109.99
eigval :      127.52   141.57   142.37   143.73   144.49   149.28
eigval :      154.80   154.98   157.89   190.86   193.28   202.70
eigval :      213.49   217.14   222.32   223.52   229.75   234.91
eigval :      271.66   271.80   272.10   278.31   298.73   306.00
eigval :      308.99   329.56   335.59   352.58   361.28   389.38
eigval :      393.43   397.72   399.47   401.96   415.54   417.19
eigval :      419.51   420.34   422.43   424.40   428.80   432.11
eigval :      436.04   442.17   458.23   478.05   485.25   491.46
eigval :      496.16   517.42   518.10   518.54   520.04   521.46
eigval :      522.20   526.32   542.18   542.20   542.23   550.80
eigval :      556.12   562.61   569.23   581.58   583.83   584.88
eigval :      597.87   599.09   603.73   621.84   625.62   643.38
eigval :      659.81   660.16   673.54   673.57   673.58   690.71
eigval :      703.17   703.19   706.73   710.00   710.04   711.01
eigval :      711.09   715.50   756.40   756.42   756.51   767.85
eigval :      768.98   770.18   770.61   770.97   781.60   781.76
eigval :      781.77   783.16   838.96   839.68   840.84   865.27
eigval :      870.68   870.73   870.82   876.01   876.08   876.35
eigval :      885.15   888.30   890.40   898.51   898.81   899.29
eigval :      902.13   902.16   902.20   903.99   904.01   904.04
eigval :      917.78   918.90   920.20   920.67   921.14   923.48
eigval :      923.53   923.59   923.89   924.21   925.29   927.96
eigval :      971.55   975.48  1011.60  1011.99  1011.99  1013.40
eigval :     1018.08  1020.99  1032.81  1032.95  1033.12  1049.83
eigval :     1068.02  1068.06  1068.07  1071.22  1071.24  1071.32
eigval :     1092.95  1093.11  1093.26  1102.61  1129.96  1131.30
eigval :     1140.28  1150.32  1150.45  1150.48  1156.02  1159.88
eigval :     1174.31  1174.75  1175.19  1181.60  1181.60  1181.62
eigval :     1184.40  1185.14  1186.50  1207.92  1214.81  1225.56
eigval :     1225.90  1236.09  1236.66  1236.96  1237.19  1237.62
eigval :     1240.24  1245.93  1254.14  1259.87  1298.77  1299.24
eigval :     1299.47  1306.43  1306.60  1306.72  1324.71  1326.55
eigval :     1328.25  1344.22  1349.81  1352.70  1358.91  1359.61
eigval :     1361.08  1363.17  1363.24  1363.27  1375.88  1379.86
eigval :     1388.60  1408.52  1408.61  1409.27  1419.12  1421.52
eigval :     1427.94  1428.65  1428.68  1429.01  1431.35  1433.63
eigval :     1436.13  1473.21  1473.66  1474.02  1477.57  1477.76
eigval :     1478.09  1481.24  1482.11  1482.29  1488.40  1488.51
eigval :     1488.62  1490.94  1492.10  1495.38  1510.96  1512.95
eigval :     1562.85  1565.28  1568.14  1574.38  1574.42  1574.65
eigval :     1589.43  1589.70  1589.96  1592.04  1592.32  1593.34
eigval :     1599.59  1599.62  1599.67  1615.87  1615.91  1616.12
eigval :     3004.56  3004.73  3004.80  3028.01  3028.30  3028.74
eigval :     3045.09  3045.54  3046.07  3074.37  3074.39  3074.41
eigval :     3075.74  3075.79  3075.85  3079.61  3079.65  3079.69
eigval :     3080.69  3080.73  3080.81  3085.37  3085.58  3085.83
eigval :     3086.45  3086.47  3086.57  3088.36  3088.38  3088.44
eigval :     3094.55  3094.57  3094.63  3096.33  3096.35  3096.44
eigval :     3101.31  3102.49  3103.45  3114.10  3115.00  3116.11

   temp. (K)  partition function   enthalpy   heat capacity  entropy
                                   cal/mol     cal/K/mol   cal/K/mol   J/K/mol
 298.15  VIB  0.176E+28            32044.573    197.506    204.301
         ROT  0.389E+09              888.752      2.981     42.285
         INT  0.685E+36            32933.325    200.487    246.586
         TR   0.239E+29             1481.254      4.968     46.066
         TOT                       34414.5790   205.4555   292.6513  1224.4530

       T/K    H(0)-H(T)+PV         H(T)/Eh          T*S/Eh         G(T)/Eh
   ------------------------------------------------------------------------
    298.15    0.548431E-01    0.888897E+00    0.139048E+00    0.749848E+00
   ------------------------------------------------------------------------

         :::::::::::::::::::::::::::::::::::::::::::::::::::::
         ::                  THERMODYNAMIC                  ::
         :::::::::::::::::::::::::::::::::::::::::::::::::::::
         :: total free energy        -166.848175480111 Eh   ::
         ::.................................................::
         :: total energy             -167.598023918195 Eh   ::
         :: zero point energy           0.834053390521 Eh   ::
         :: G(RRHO) w/o ZPVE           -0.084204952437 Eh   ::
         :: G(RRHO) contrib.            0.749848438084 Eh   ::
         :::::::::::::::::::::::::::::::::::::::::::::::::::::

           -------------------------------------------------
          | TOTAL ENERGY             -167.598023918195 Eh   |
          | TOTAL ENTHALPY           -166.709127405182 Eh   |
          | TOTAL FREE ENERGY        -166.848175480111 Eh   |
          | GRADIENT NORM               0.000168396389 Eh/α |
          | HOMO-LUMO GAP               2.002559022280 eV   |
           -------------------------------------------------

 * finished run on 2025/08/25 at 17:18:30.864
