   * xtb version 6.7.1 (edcfbbe) compiled by 'albert@albert-system' on 2024-07-22

   ID    Z sym.   atoms
    1    6 C      1-5, 7-11, 13-27, 29-33, 35-49, 51-53, 55-66
    2    7 N      6, 12, 28, 34, 50, 54
    3    1 H      67-108

          program call               : xtb data2507/gas/CZ-TRZ/CZ-TRZ_gas_T1_crest.xyz --gfn 2 --spinpol --tblite --uhf 2 --ohess vtight --parallel 40 --molden --ceasefiles --namespace data2507/gas/CZ-TRZ/CZ-TRZ_gas_T1_finalOpt
 * total energy  :  -167.5222957 Eh     change       -0.3384253E-07 Eh
 * total energy  :  -167.5223252 Eh     change       -0.2945291E-04 Eh
 * total energy  :  -167.5223374 Eh     change       -0.1225182E-04 Eh
 * total energy  :  -167.5223397 Eh     change       -0.2302223E-05 Eh
 * total energy  :  -167.5223720 Eh     change       -0.3223364E-04 Eh
 * total energy  :  -167.5193301 Eh     change        0.3041818E-02 Eh
 * total energy  :  -167.5223098 Eh     change       -0.2979641E-02 Eh
 * total energy  :  -167.5223585 Eh     change       -0.4874821E-04 Eh
 * total energy  :  -167.5224100 Eh     change       -0.5151841E-04 Eh
 * total energy  :  -167.5224271 Eh     change       -0.1710016E-04 Eh
 * total energy  :  -167.5226212 Eh     change       -0.2456645E-06 Eh
 * total energy  :  -167.5226210 Eh     change        0.2519179E-06 Eh
 * total energy  :  -167.5226212 Eh     change       -0.2354205E-06 Eh
 * total energy  :  -167.5226215 Eh     change       -0.3193095E-06 Eh
 * total energy  :  -167.5226217 Eh     change       -0.1448440E-06 Eh
 * total energy  :  -167.5226215 Eh     change        0.1336647E-06 Eh
 * total energy  :  -167.5226219 Eh     change       -0.3469144E-06 Eh
 * total energy  :  -167.5226218 Eh     change        0.7362374E-07 Eh
 * total energy  :  -167.5226219 Eh     change       -0.6130739E-07 Eh
   *** GEOMETRY OPTIMIZATION CONVERGED AFTER 48 ITERATIONS ***

 final structure:
================
108
 xtb: 6.7.1 (edcfbbe)
C           -4.14207456231822        4.46644713281725        0.28063670326137
C           -2.67658478442867        4.16845796604897        0.17487704903406
C           -2.21847160902889        2.86888041462756        0.13255678900003
C           -0.84812436807728        2.57024621569909        0.08047585677526
C           -0.39912657855419        1.21131749158452        0.03709331943570
N            0.94763814948418        0.95820243130517       -0.01069469150079
C            1.33170056546290       -0.30274262015634       -0.04743346134059
C            2.76560840723480       -0.59185662107478       -0.08222912666258
C            3.21703074182611       -1.90982242280617       -0.10732567115911
C            4.56993714576234       -2.16754529942110       -0.14499789669878
C            5.48720738344020       -1.11982466555145       -0.15629777038339
N            6.86130267116241       -1.41805749381658       -0.19811681807969
C            7.73162529569058       -1.09617157893994       -1.21531038132053
C            7.47174382458416       -0.47900251349897       -2.43069873038930
C            8.53406281437237       -0.28634756697618       -3.29294892137225
C            9.82155522124689       -0.70533726915662       -2.96412848924715
C           10.07930212983290       -1.34669061208162       -1.76796669034351
C            9.02902364656645       -1.55190366748363       -0.88389835390018
C            8.91968366793045       -2.18961380562199        0.39936461001197
C            9.82743598458088       -2.81698083197298        1.24169982292672
C            9.37117330597325       -3.33214130650831        2.43960677279005
C            8.03142054075582       -3.22265619727650        2.80685397228937
C            7.10859526216747       -2.60092045941933        1.98781826712861
C            7.56057758860776       -2.09294678812987        0.77858958219232
C            5.05163051504970        0.21001909065182       -0.10172233858544
C            6.02984844414212        1.34267690986448       -0.03793921397844
C            3.68854652414503        0.45036753796207       -0.07462930602475
N            0.48887858110788       -1.31903853349984       -0.05956202132497
C           -0.85100301681798       -1.03412662259564       -0.00293982562260
C           -1.78985232095911       -2.11630821726660        0.00225305983996
C           -1.34646820958454       -3.44673945392593       -0.04877316371420
C           -2.25707288675436       -4.47517791480720       -0.05226587493126
C           -3.62555022278144       -4.21016460197378       -0.00470966812433
N           -4.53257103606442       -5.28841634002632       -0.01534971053659
C           -4.65710349113584       -6.23398606648679        0.97524684366888
C           -3.96628151317878       -6.34202278244446        2.17439724987563
C           -4.29773444212946       -7.38901285610197        3.01267842592625
C           -5.29341278449535       -8.30320652405763        2.67370055784086
C           -5.99093503811711       -8.19336984466987        1.48492164457239
C           -5.67583546957600       -7.15196578444732        0.62421244017829
C           -6.17335096372585       -6.73156601775931       -0.65752317164321
C           -7.14373253128712       -7.22044448615774       -1.52001283798819
C           -7.35244966528286       -6.56667889789820       -2.72026084168801
C           -6.59821063859815       -5.44926624907127       -3.07271767071164
C           -5.62618895121282       -4.94264106420977       -2.23171107057014
C           -5.43071444803009       -5.58036050299496       -1.01396660107578
C           -4.09250153007051       -2.88911241926890        0.07630628160695
C           -5.55873401976578       -2.60286788154799        0.20218958125005
C           -3.16863932465884       -1.86563915892108        0.07049211086610
N           -1.27322265637294        0.21734791147905        0.04936599172969
C            0.07415762209278        3.62836239622218        0.08352541986988
C           -0.36983981489789        4.92768820324280        0.11789774442848
C           -1.73546173596172        5.20933983940997        0.14956929203221
N           -2.15709421398351        6.55375172992777        0.17979726686915
C           -2.84755293966673        7.20781072502654       -0.81227118438679
C           -3.24307259293734        6.74184116022380       -2.05897957586647
C           -3.92276060070588        7.61629515164838       -2.88486937179278
C           -4.19639676294001        8.92408354740781       -2.48915540853201
C           -3.78292203822837        9.40008673966677       -1.25867960290424
C           -3.09847055271960        8.54182588126323       -0.41048268098009
C           -2.51118199487197        8.68770558669800        0.89370672478966
C           -2.42353735268653        9.73554458187818        1.79868133050320
C           -1.76917484536259        9.52117328445431        2.99772785929727
C           -1.21140180565656        8.28117717399464        3.30332325803388
C           -1.28654500093681        7.22103225818696        2.42062656521884
C           -1.93411211141976        7.43478335534017        1.21153968744465
H           -4.54309859591606        4.80202800958719       -0.67568958139447
H           -4.68680186350542        3.57698622190500        0.58635942961414
H           -4.32141681708108        5.25703597019287        1.00825724269657
H           -2.91723861680656        2.04640451444806        0.15252890362537
H            2.49610018138128       -2.71185088326623       -0.10322373320907
H            4.93701683323494       -3.18313644632505       -0.17490662080709
H            6.47022764665776       -0.17721950028641       -2.69935727446742
H            8.36227518847741        0.19401698163599       -4.24493760248009
H           10.62567484562661       -0.53478332382180       -3.66434938554060
H           11.07422893482683       -1.68787399324739       -1.52471230515748
H           10.86743535014379       -2.89726229286207        0.96342554338729
H           10.06143069796328       -3.82558937066381        3.10751837596746
H            7.70830709260171       -3.63099873793439        3.75298762327369
H            6.07206591335370       -2.51002483733008        2.27670516567742
H            5.55226713773530        2.22990852044941        0.36972820993329
H            6.88215118495740        1.08026560768007        0.58685246948503
H            6.41131704122820        1.58573030061161       -1.02953399968948
H            3.31754800787558        1.46331534643356       -0.03271996594743
H           -0.28648840089798       -3.64071611774345       -0.09170001864889
H           -1.92773025385236       -5.50326959570531       -0.10199590981036
H           -3.19927613443518       -5.62936961557460        2.43813660310276
H           -3.77588228421999       -7.50115552822578        3.95147816499808
H           -5.52320602756966       -9.10829989412888        3.35568961686541
H           -6.76549346045960       -8.90075265524495        1.22952315931221
H           -7.71881488484189       -8.09598169311489       -1.25877072401615
H           -8.10454739306603       -6.93124913508274       -3.40398932380207
H           -6.77456140074328       -4.97284195847810       -4.02581176799154
H           -5.02627574304857       -4.09052022551229       -2.51468128719994
H           -6.02667866834726       -3.29628624587473        0.89986907134781
H           -5.71550237740860       -1.58755610318590        0.55706743657818
H           -6.06278600684487       -2.71167616170237       -0.75804369827515
H           -3.49594587207450       -0.83895290030839        0.13339969260147
H            1.12769522976779        3.40014453722627        0.05271633151523
H            0.33081884310552        5.75051612511472        0.11115077827050
H           -3.01170829689117        5.73526110646614       -2.37420655808412
H           -4.24501758772893        7.28167383651825       -3.85988327780752
H           -4.73189181135409        9.57674173004729       -3.16245977346677
H           -3.98288375531462       10.41904888105626       -0.96325115395070
H           -2.85898764518072       10.69642166425975        1.56918475277573
H           -1.68935308330444       10.32523559674125        3.71411621571417
H           -0.71164718512438        8.14656160070745        4.25116115507994
H           -0.86026161865750        6.25785979203796        2.65797769782380

 projected vibrational frequencies (cm⁻¹)
eigval :       -0.00    -0.00     0.00     0.00     0.00     0.00
eigval :        6.30     8.54     8.70     8.91    13.27    13.55
eigval :       22.10    22.52    35.63    43.18    45.06    47.15
eigval :       50.28    51.36    53.23    88.26    91.94    93.19
eigval :       95.64    96.55    97.69   105.95   106.71   108.14
eigval :      121.44   138.22   139.51   140.55   143.69   144.73
eigval :      151.09   155.92   164.70   189.80   197.10   203.84
eigval :      206.26   215.93   217.27   225.21   227.29   232.63
eigval :      268.70   270.47   270.93   271.52   291.58   308.48
eigval :      312.30   325.14   331.85   347.51   355.53   377.15
eigval :      383.12   391.54   394.97   397.01   398.00   408.61
eigval :      412.85   417.40   421.14   422.51   422.99   428.47
eigval :      433.46   434.38   437.44   459.64   467.99   474.52
eigval :      485.65   514.06   516.59   517.31   518.07   518.95
eigval :      520.69   521.82   539.36   539.39   541.10   549.35
eigval :      552.49   559.96   561.55   566.21   577.97   580.67
eigval :      582.73   584.63   589.69   594.74   598.49   611.69
eigval :      623.16   631.40   640.77   666.37   673.62   673.99
eigval :      674.02   677.49   681.67   691.89   692.28   699.48
eigval :      707.26   708.83   709.51   713.26   734.94   748.97
eigval :      755.53   755.97   756.22   768.85   768.94   769.63
eigval :      779.06   779.14   780.75   816.82   818.27   835.04
eigval :      844.44   863.46   867.74   868.84   869.48   869.96
eigval :      873.26   873.48   874.94   884.78   894.90   895.17
eigval :      897.98   901.46   901.51   902.10   903.36   903.44
eigval :      903.91   908.44   909.05   912.90   914.41   918.51
eigval :      919.38   920.50   920.57   921.89   921.95   922.28
eigval :      923.04   931.50   947.32   958.74   990.14  1010.81
eigval :     1010.85  1011.61  1013.95  1017.01  1021.63  1032.29
eigval :     1032.57  1032.62  1065.68  1065.75  1067.19  1068.67
eigval :     1068.77  1070.37  1081.16  1089.26  1093.97  1098.99
eigval :     1115.36  1131.06  1136.43  1139.96  1144.49  1144.58
eigval :     1148.16  1155.48  1173.21  1173.32  1174.37  1180.24
eigval :     1180.27  1180.66  1180.99  1181.38  1184.92  1200.28
eigval :     1210.34  1225.36  1227.31  1234.50  1234.56  1234.71
eigval :     1236.01  1237.26  1238.98  1242.35  1253.72  1275.02
eigval :     1294.78  1295.75  1297.14  1298.06  1298.24  1303.22
eigval :     1322.31  1325.47  1326.33  1338.82  1347.94  1350.14
eigval :     1352.11  1352.38  1356.30  1358.59  1359.35  1361.40
eigval :     1364.83  1370.84  1399.27  1407.83  1408.22  1408.79
eigval :     1415.39  1417.63  1417.75  1419.92  1424.19  1430.95
eigval :     1431.35  1432.76  1437.70  1466.85  1466.93  1469.64
eigval :     1471.18  1475.60  1479.85  1480.58  1481.82  1483.87
eigval :     1484.34  1484.44  1485.86  1485.92  1487.40  1493.81
eigval :     1525.00  1526.38  1558.19  1567.01  1567.25  1568.34
eigval :     1571.23  1575.06  1585.22  1585.49  1585.97  1586.06
eigval :     1586.75  1589.45  1593.98  1605.90  1606.63  1610.41
eigval :     3001.30  3001.58  3003.77  3019.66  3020.05  3026.11
eigval :     3046.41  3046.72  3046.96  3075.96  3076.49  3076.92
eigval :     3076.96  3077.22  3077.27  3077.89  3078.03  3080.68
eigval :     3081.40  3081.45  3081.84  3082.93  3083.03  3084.41
eigval :     3087.41  3088.14  3088.20  3089.29  3090.03  3090.13
eigval :     3092.16  3093.70  3094.69  3095.38  3095.51  3095.62
eigval :     3096.21  3096.31  3097.02  3103.29  3103.80  3107.32

   temp. (K)  partition function   enthalpy   heat capacity  entropy
                                   cal/mol     cal/K/mol   cal/K/mol   J/K/mol
 298.15  VIB  0.149E+28            32517.770    200.704    206.047
         ROT  0.391E+09              888.752      2.981     42.296
         INT  0.583E+36            33406.522    203.685    248.343
         TR   0.239E+29             1481.254      4.968     46.066
         TOT                       34887.7759   208.6530   294.4088  1231.8065

       T/K    H(0)-H(T)+PV         H(T)/Eh          T*S/Eh         G(T)/Eh
   ------------------------------------------------------------------------
    298.15    0.555972E-01    0.882648E+00    0.139883E+00    0.742765E+00
   ------------------------------------------------------------------------

         :::::::::::::::::::::::::::::::::::::::::::::::::::::
         ::                  THERMODYNAMIC                  ::
         :::::::::::::::::::::::::::::::::::::::::::::::::::::
         :: total free energy        -166.779857328270 Eh   ::
         ::.................................................::
         :: total energy             -167.522621844388 Eh   ::
         :: zero point energy           0.827050437096 Eh   ::
         :: G(RRHO) w/o ZPVE           -0.084285920979 Eh   ::
         :: G(RRHO) contrib.            0.742764516117 Eh   ::
         :::::::::::::::::::::::::::::::::::::::::::::::::::::

           -------------------------------------------------
          | TOTAL ENERGY             -167.522621844388 Eh   |
          | TOTAL ENTHALPY           -166.639974197404 Eh   |
          | TOTAL FREE ENERGY        -166.779857328270 Eh   |
          | GRADIENT NORM               0.000112180015 Eh/α |
           -------------------------------------------------

 * finished run on 2025/08/25 at 17:41:27.336
