   * xtb version 6.7.1 (edcfbbe) compiled by 'albert@albert-system' on 2024-07-22

   ID    Z sym.   atoms
    1    6 C      1-5, 7-11, 13-27, 29-33, 35-49, 51-53, 55-66
    2    7 N      6, 12, 28, 34, 50, 54
    3    1 H      67-108

          program call               : xtb data2507/gas/CZ-TRZ/CZ-TRZ_gas_S0_crest.xyz --gfn 2 --ohess vtight --parallel 40 --molden --ceasefiles --namespace data2507/gas/CZ-TRZ/CZ-TRZ_gas_S0_finalOpt
          :  Hamiltonian                  GFN2-xTB          :
 * total energy  :  -167.5980196 Eh     change       -0.2009017E-08 Eh
 * total energy  :  -167.5980207 Eh     change       -0.1047434E-05 Eh
 * total energy  :  -167.5980216 Eh     change       -0.8955732E-06 Eh
 * total energy  :  -167.5980255 Eh     change       -0.3887866E-05 Eh
 * total energy  :  -167.5980266 Eh     change       -0.1168267E-05 Eh
 * total energy  :  -167.5980275 Eh     change       -0.9125469E-06 Eh
 * total energy  :  -167.5980280 Eh     change       -0.4503268E-06 Eh
 * total energy  :  -167.5980284 Eh     change       -0.3860182E-06 Eh
 * total energy  :  -167.5980286 Eh     change       -0.2570972E-06 Eh
 * total energy  :  -167.5980289 Eh     change       -0.2246282E-06 Eh
 * total energy  :  -167.5980291 Eh     change       -0.2190136E-06 Eh
 * total energy  :  -167.5980293 Eh     change       -0.2438158E-06 Eh
 * total energy  :  -167.5980294 Eh     change       -0.1286227E-06 Eh
 * total energy  :  -167.5980295 Eh     change       -0.1028837E-07 Eh
   *** GEOMETRY OPTIMIZATION CONVERGED AFTER 14 ITERATIONS ***

 final structure:
================
108
 xtb: 6.7.1 (edcfbbe)
C           -4.07835533594624       -4.46206127143518       -0.42055521611642
C           -2.61832297123376       -4.17286320813074       -0.25195811103156
C           -2.15753586630769       -2.86788128094362       -0.21064283768763
C           -0.79939726116751       -2.57856493515909       -0.10998857672993
C           -0.34714422627152       -1.18922798631617       -0.06791533506119
N            0.96234840444789       -0.96089020855715       -0.02797300918045
C            1.32952749361939        0.31688376426912        0.01574567044254
C            2.75843939818984        0.61980214470859        0.06050321364210
C            3.19463923764490        1.93952922273307        0.16136508110869
C            4.54468045384712        2.20952735634197        0.21255054001546
C            5.47456270835448        1.17381852343299        0.16132752832990
N            6.84322076003117        1.48534811176867        0.22252745060248
C            7.72372577896302        1.09031755863648        1.20619550088664
C            7.47814764799168        0.37422074745167        2.36878548593371
C            8.54703177938182        0.12622368773273        3.20840041064129
C            9.82740180245812        0.58789954018166        2.91036568189143
C           10.06989828232581        1.32925418897729        1.77101451206767
C            9.01235726887378        1.59148535186107        0.91012660085939
C            8.88836113395796        2.33497297289246       -0.31281697928353
C            9.78522893248369        3.04377261881310       -1.10147626740388
C            9.31827643613095        3.65389390482133       -2.24865765787815
C            7.97845563932021        3.55857671191283       -2.61976695464500
C            7.06697593563924        2.85694854230276       -1.85445769829394
C            7.52935437974509        2.25397701141406       -0.69420951853628
C            5.05366622098589       -0.15526808272511        0.02584474074305
C            6.04281634738467       -1.27121876871893       -0.11523543719754
C            3.69314814289787       -0.40956681846101       -0.01187401580391
N            0.47584743330352        1.33667949232798        0.02160663852277
C           -0.81415718424516        1.01689040278423       -0.02348449541365
C           -1.79000908264668        2.10489375745252       -0.02110603720835
C           -1.36539529248272        3.43062849755969        0.04309852738558
C           -2.29721792726582        4.44545256434952        0.05526770629022
C           -3.65839520171332        4.15528381711209        0.00133462421585
N           -4.58119978179386        5.21452072307739        0.02275152913683
C           -4.67555625639533        6.21121288499929       -0.92581031101667
C           -3.93635408229870        6.39155374256378       -2.08536986222034
C           -4.25365897961402        7.47124217181534       -2.88685104583975
C           -5.28431254922869        8.34719994591990       -2.55163020570143
C           -6.03138359282395        8.16328830842273       -1.40517136277685
C           -5.73044547698002        7.08699422450394       -0.58069343298597
C           -6.27957849622134        6.59584982911907        0.65257841998160
C           -7.29764244709508        7.03112528379821        1.49064131650416
C           -7.54848081539583        6.32379390516743        2.64965032358180
C           -6.78698873154404        5.20752626723780        2.98932212495487
C           -5.76844384531132        4.75461741588243        2.17296646972824
C           -5.53483488081426        5.44250414505633        0.99102444204696
C           -4.10060713280799        2.82992051416064       -0.09776312248148
C           -5.55622686302613        2.50701236835763       -0.24168830320231
C           -3.15119433563058        1.82217191250325       -0.09666438258592
N           -1.27035985927170       -0.23178318108395       -0.06943410387108
C            0.12402112594760       -3.62103820981386       -0.06106579537825
C           -0.31788936403182       -4.92576092150166       -0.08944948719652
C           -1.67930182212078       -5.20877000417331       -0.16862031979695
N           -2.09519957482478       -6.55075963841859       -0.18808884190828
C           -2.88447027034257       -7.17118800686637        0.75586198013894
C           -3.38855728960511       -6.66884832495035        1.94678130485813
C           -4.14421260651846       -7.51716504005235        2.73312953602765
C           -4.38467944290763       -8.83654551634434        2.35533847453206
C           -3.85764394367225       -9.35015022272642        1.18701831607378
C           -3.09507537341704       -8.51755982273231        0.37857818302949
C           -2.38215663803348       -8.71081343446136       -0.85354261470318
C           -2.21370616883402       -9.79381842959667       -1.70645907287820
C           -1.44508017775885       -9.62839664666327       -2.84143562015645
C           -0.85386257638724       -8.40169103866564       -3.13738549821085
C           -1.00850349731641       -7.30833083073792       -2.30706854256830
C           -1.76882714046522       -7.47412576108132       -1.15905493256893
H           -4.22692828384097       -5.32487583340337       -1.06772661689940
H           -4.54676244875587       -4.68578122670331        0.53765332004738
H           -4.58415807448819       -3.60309177159935       -0.85411302884258
H           -2.85350096041248       -2.04548897689015       -0.27148768114865
H            2.46484177207011        2.73153552384515        0.20649128306897
H            4.90030312648558        3.22558893757323        0.30278543319069
H            6.48175594509563        0.04037855952750        2.61817099223361
H            8.38576310714597       -0.43179915896798        4.11911633204655
H           10.63695620589029        0.37157637693377        3.59149740928210
H           11.05837382015841        1.70485611140711        1.55334491048825
H           10.82529063943261        3.11237207008721       -0.82017282674655
H            9.99933227975490        4.21183651503255       -2.87398488899280
H            7.64615820830193        4.04209985179797       -3.52659387382357
H            6.03090566617124        2.77728446146521       -2.14866264840473
H            5.57690768827717       -2.12788397477380       -0.59550901393649
H            6.89838728115799       -0.95359892323697       -0.70894039374376
H            6.41780479390641       -1.58815040378362        0.85768207421372
H            3.33389096854329       -1.42182589314941       -0.11557853001009
H           -0.30941769699103        3.64182613363841        0.09003376915137
H           -1.98619725640149        5.47816147600845        0.11655847372919
H           -3.14267759976837        5.70927231558014       -2.35166070263154
H           -3.69220095945871        7.63920948385849       -3.79409325874967
H           -5.50099502111102        9.17960809708785       -3.20454618484409
H           -6.83466207411697        8.83859290016169       -1.15166039043258
H           -7.87423806751860        7.90889776513883        1.24047529918232
H           -8.33720458744043        6.64504578689793        3.31359338670951
H           -6.99343095883037        4.68928143719893        3.91431858852657
H           -5.16118093555180        3.90693322459696        2.45426068103715
H           -5.68070836186515        1.52618463009549       -0.69354691568468
H           -6.05452718514231        2.50160051932559        0.72747476103837
H           -6.05481533348818        3.24930502424589       -0.86279415830074
H           -3.45687630426364        0.78988450984383       -0.16989407534270
H            1.17436913075951       -3.38879659354544        0.00801257574612
H            0.38318193585016       -5.74620349899977       -0.04048326508697
H           -3.17989545236256       -5.65571645736877        2.25742705071718
H           -4.55211590436834       -7.15201355232066        3.66430334133417
H           -4.98193078573713       -9.46742918226554        2.99673038131807
H           -4.02674950126647      -10.37906062380017        0.90724604754292
H           -2.67743927513435      -10.74291211307112       -1.48346798567062
H           -1.30012440409510      -10.45903540740113       -3.51610426577277
H           -0.26369677733001       -8.30335847080075       -4.03660089951429
H           -0.55637086541799       -6.35631432627440       -2.54289927217892

          :  Hamiltonian                  GFN2-xTB          :
         :: gradient norm              0.000076175464 Eh/a0 ::
         :: HOMO-LUMO gap              2.002883907970 eV    ::
         :: SCC energy              -170.677663278201 Eh    ::
         :: -> dispersion             -0.152500292330 Eh    ::
         :: repulsion energy           3.079633820632 Eh    ::

    * Orbital Energies and Occupations

         #    Occupation            Energy/Eh            Energy/eV
      -------------------------------------------------------------
         1        2.0000           -0.6855141             -18.6538
       ...           ...                  ...                  ...
       144        2.0000           -0.4061895             -11.0530
       145        2.0000           -0.4058505             -11.0438
       146        2.0000           -0.4045467             -11.0083
       147        2.0000           -0.4042008             -10.9989
       148        2.0000           -0.4038519             -10.9894
       149        2.0000           -0.3783865             -10.2964
       150        2.0000           -0.3780642             -10.2876
       151        2.0000           -0.3777108             -10.2780
       152        2.0000           -0.3734881             -10.1631
       153        2.0000           -0.3731218             -10.1532
       154        2.0000           -0.3638393              -9.9006
       155        2.0000           -0.3634830              -9.8909
       156        2.0000           -0.3630628              -9.8794 (HOMO)
       157                         -0.2894583              -7.8766 (LUMO)
       158                         -0.2893818              -7.8745
       159                         -0.2520049              -6.8574
       160                         -0.2444961              -6.6531
       161                         -0.2441346              -6.6432
       162                         -0.2430731              -6.6144
       163                         -0.2341805              -6.3724
       164                         -0.2337643              -6.3611
       165                         -0.2333678              -6.3503
       166                         -0.2215009              -6.0273
       167                         -0.2211793              -6.0186
       ...                                ...                  ...
       306                          0.7471423              20.3308
      -------------------------------------------------------------
                  HL-Gap            0.0736046 Eh            2.0029 eV

     #   Z          covCN         q      C6AA      α(0)
     1   6 C        3.757    -0.108    22.615     6.780
     2   6 C        2.965     0.010    27.784     8.646
     3   6 C        2.930    -0.035    28.875     8.813
     4   6 C        2.982    -0.004    28.123     8.699
     5   6 C        2.983     0.202    23.708     7.987
     6   7 N        1.844    -0.296    28.512     7.913
     7   6 C        2.983     0.202    23.705     7.986
     8   6 C        2.983    -0.004    28.126     8.699
     9   6 C        2.923    -0.028    28.712     8.787
    10   6 C        2.921    -0.041    29.020     8.834
    11   6 C        2.918     0.059    26.666     8.468
    12   7 N        2.804    -0.043    22.063     6.976
    13   6 C        3.079     0.048    26.844     8.494
    14   6 C        2.909    -0.051    29.256     8.869
    15   6 C        2.924    -0.034    28.842     8.807
    16   6 C        2.920    -0.041    29.024     8.835
    17   6 C        2.913    -0.033    28.816     8.802
    18   6 C        3.069    -0.018    28.379     8.735
    19   6 C        3.068    -0.018    28.382     8.736
    20   6 C        2.912    -0.033    28.820     8.803
    21   6 C        2.920    -0.041    29.022     8.834
    22   6 C        2.924    -0.033    28.825     8.805
    23   6 C        2.909    -0.051    29.268     8.871
    24   6 C        3.080     0.046    26.881     8.500
    25   6 C        2.965     0.010    27.782     8.646
    26   6 C        3.757    -0.108    22.618     6.781
    27   6 C        2.930    -0.035    28.874     8.812
    28   7 N        1.845    -0.295    28.504     7.912
    29   6 C        2.983     0.202    23.706     7.987
    30   6 C        2.983    -0.004    28.125     8.699
    31   6 C        2.923    -0.028    28.711     8.787
    32   6 C        2.921    -0.041    29.019     8.834
    33   6 C        2.918     0.059    26.667     8.468
    34   7 N        2.804    -0.043    22.064     6.976
    35   6 C        3.080     0.046    26.882     8.500
    36   6 C        2.909    -0.051    29.268     8.871
    37   6 C        2.924    -0.033    28.824     8.804
    38   6 C        2.920    -0.041    29.021     8.834
    39   6 C        2.912    -0.033    28.820     8.803
    40   6 C        3.068    -0.018    28.382     8.736
    41   6 C        3.069    -0.018    28.379     8.735
    42   6 C        2.913    -0.033    28.816     8.802
    43   6 C        2.920    -0.041    29.024     8.835
    44   6 C        2.924    -0.034    28.843     8.807
    45   6 C        2.909    -0.051    29.257     8.869
    46   6 C        3.079     0.048    26.845     8.494
    47   6 C        2.965     0.010    27.786     8.646
    48   6 C        3.757    -0.108    22.615     6.780
    49   6 C        2.930    -0.035    28.876     8.813
    50   7 N        1.844    -0.296    28.519     7.914
    51   6 C        2.923    -0.029    28.715     8.788
    52   6 C        2.921    -0.041    29.021     8.834
    53   6 C        2.918     0.059    26.668     8.468
    54   7 N        2.804    -0.043    22.066     6.977
    55   6 C        3.079     0.048    26.845     8.494
    56   6 C        2.909    -0.051    29.257     8.869
    57   6 C        2.924    -0.034    28.842     8.807
    58   6 C        2.920    -0.041    29.024     8.835
    59   6 C        2.913    -0.033    28.816     8.802
    60   6 C        3.069    -0.018    28.379     8.735
    61   6 C        3.068    -0.018    28.382     8.736
    62   6 C        2.912    -0.033    28.820     8.803
    63   6 C        2.920    -0.041    29.021     8.834
    64   6 C        2.924    -0.033    28.825     8.805
    65   6 C        2.909    -0.051    29.269     8.871
    66   6 C        3.080     0.046    26.882     8.500
    67   1 H        0.925     0.048     2.343     2.394
    68   1 H        0.925     0.056     2.244     2.342
    69   1 H        0.925     0.048     2.348     2.396
    70   1 H        0.926     0.060     2.199     2.319
    71   1 H        0.926     0.059     2.205     2.322
    72   1 H        0.926     0.046     2.373     2.409
    73   1 H        0.926     0.025     2.665     2.553
    74   1 H        0.926     0.028     2.614     2.528
    75   1 H        0.926     0.028     2.620     2.531
    76   1 H        0.926     0.031     2.577     2.510
    77   1 H        0.926     0.031     2.578     2.511
    78   1 H        0.926     0.028     2.618     2.530
    79   1 H        0.926     0.029     2.601     2.522
    80   1 H        0.926     0.026     2.649     2.545
    81   1 H        0.925     0.048     2.341     2.393
    82   1 H        0.925     0.048     2.343     2.394
    83   1 H        0.925     0.056     2.243     2.342
    84   1 H        0.926     0.060     2.194     2.317
    85   1 H        0.926     0.060     2.203     2.321
    86   1 H        0.926     0.046     2.372     2.408
    87   1 H        0.926     0.026     2.649     2.545
    88   1 H        0.926     0.029     2.601     2.522
    89   1 H        0.926     0.028     2.617     2.530
    90   1 H        0.926     0.031     2.577     2.510
    91   1 H        0.926     0.031     2.576     2.510
    92   1 H        0.926     0.028     2.620     2.531
    93   1 H        0.926     0.028     2.614     2.528
    94   1 H        0.926     0.024     2.666     2.553
    95   1 H        0.925     0.048     2.349     2.397
    96   1 H        0.925     0.056     2.244     2.343
    97   1 H        0.925     0.048     2.343     2.394
    98   1 H        0.926     0.060     2.200     2.319
    99   1 H        0.926     0.059     2.208     2.324
   100   1 H        0.926     0.046     2.376     2.410
   101   1 H        0.926     0.024     2.666     2.553
   102   1 H        0.926     0.028     2.614     2.528
   103   1 H        0.926     0.028     2.620     2.531
   104   1 H        0.926     0.031     2.576     2.510
   105   1 H        0.926     0.031     2.577     2.510
   106   1 H        0.926     0.028     2.617     2.530
   107   1 H        0.926     0.029     2.602     2.523
   108   1 H        0.926     0.025     2.651     2.546

molecular dipole:
                 x           y           z       tot (Debye)
 q only:       -0.322      -0.289      -0.083
   full:       -0.290      -0.260      -0.054       1.000

 projected vibrational frequencies (cm⁻¹)
eigval :       -0.00    -0.00    -0.00    -0.00     0.00     0.00
eigval :        4.24     6.34     6.37     9.01    13.89    14.16
eigval :       22.13    22.51    35.59    45.51    46.85    48.40
eigval :       50.72    52.13    54.97    85.71    86.49    94.20
eigval :       95.43    96.92    97.09   108.59   109.09   109.53
eigval :      127.56   141.59   142.43   143.55   144.47   149.30
eigval :      154.69   154.87   157.78   190.81   193.19   202.61
eigval :      213.52   217.32   222.41   223.33   229.81   234.86
eigval :      271.66   271.82   272.09   278.26   299.04   305.91
eigval :      308.41   329.57   335.50   352.99   360.92   389.41
eigval :      393.46   397.72   399.47   401.96   415.61   417.19
eigval :      419.51   420.33   422.43   424.39   428.84   432.07
eigval :      436.02   442.19   458.23   477.43   485.71   490.89
eigval :      496.79   517.42   518.09   518.54   520.00   521.45
eigval :      522.18   526.24   542.18   542.19   542.23   550.73
eigval :      556.32   562.11   569.90   581.49   584.06   584.70
eigval :      597.79   599.15   603.61   621.85   625.63   643.41
eigval :      659.82   660.16   673.55   673.56   673.57   690.75
eigval :      703.17   703.22   706.72   710.00   710.04   711.02
eigval :      711.06   715.53   756.40   756.44   756.52   767.87
eigval :      768.99   770.16   770.60   770.97   781.58   781.74
eigval :      781.76   783.12   838.98   839.77   840.83   865.30
eigval :      870.68   870.70   870.80   876.01   876.07   876.34
eigval :      885.11   888.42   890.33   898.53   898.83   899.30
eigval :      902.11   902.14   902.17   903.98   904.00   904.03
eigval :      917.82   918.91   920.19   920.68   921.13   923.46
eigval :      923.54   923.57   923.86   924.28   925.26   927.97
eigval :      971.65   975.53  1011.58  1012.00  1012.01  1013.35
eigval :     1017.97  1020.92  1032.73  1032.88  1033.04  1049.86
eigval :     1068.03  1068.06  1068.06  1071.23  1071.25  1071.31
eigval :     1092.99  1093.15  1093.30  1102.64  1129.97  1131.34
eigval :     1140.30  1150.30  1150.45  1150.48  1156.00  1159.91
eigval :     1174.27  1174.75  1175.16  1181.60  1181.60  1181.62
eigval :     1184.40  1185.15  1186.50  1208.11  1214.83  1225.59
eigval :     1225.90  1236.12  1236.67  1236.98  1237.20  1237.60
eigval :     1240.23  1245.95  1254.20  1259.92  1298.75  1299.23
eigval :     1299.43  1306.53  1306.64  1306.83  1324.79  1326.62
eigval :     1328.32  1344.28  1349.88  1352.75  1358.97  1359.66
eigval :     1361.16  1363.24  1363.29  1363.33  1376.02  1380.02
eigval :     1388.72  1408.49  1408.57  1409.22  1419.20  1421.63
eigval :     1428.03  1428.65  1428.69  1429.05  1431.43  1433.73
eigval :     1436.23  1473.23  1473.66  1474.04  1477.56  1477.78
eigval :     1478.05  1481.21  1482.10  1482.28  1488.39  1488.51
eigval :     1488.60  1490.98  1492.12  1495.44  1511.07  1513.11
eigval :     1562.93  1565.33  1568.21  1574.41  1574.46  1574.69
eigval :     1589.51  1589.75  1590.02  1592.13  1592.37  1593.42
eigval :     1599.61  1599.64  1599.69  1615.91  1615.93  1616.14
eigval :     3004.96  3005.02  3005.11  3028.37  3028.45  3028.57
eigval :     3045.65  3045.98  3046.31  3074.34  3074.38  3074.47
eigval :     3075.80  3075.82  3075.87  3079.64  3079.67  3079.69
eigval :     3080.74  3080.77  3080.81  3085.45  3085.64  3085.87
eigval :     3086.47  3086.50  3086.58  3088.41  3088.42  3088.46
eigval :     3094.59  3094.62  3094.67  3096.31  3096.40  3096.48
eigval :     3101.44  3102.28  3103.57  3114.16  3114.90  3116.17

   temp. (K)  partition function   enthalpy   heat capacity  entropy
                                   cal/mol     cal/K/mol   cal/K/mol   J/K/mol
 298.15  VIB  0.197E+28            32050.885    197.488    204.435
         ROT  0.388E+09              888.752      2.981     42.284
         INT  0.765E+36            32939.637    200.469    246.719
         TR   0.239E+29             1481.254      4.968     46.066
         TOT                       34420.8912   205.4367   292.7846  1225.0109

       T/K    H(0)-H(T)+PV         H(T)/Eh          T*S/Eh         G(T)/Eh
   ------------------------------------------------------------------------
    298.15    0.548532E-01    0.888910E+00    0.139111E+00    0.749799E+00
   ------------------------------------------------------------------------

         :::::::::::::::::::::::::::::::::::::::::::::::::::::
         ::                  THERMODYNAMIC                  ::
         :::::::::::::::::::::::::::::::::::::::::::::::::::::
         :: total free energy        -166.848230946884 Eh   ::
         ::.................................................::
         :: total energy             -167.598029457570 Eh   ::
         :: zero point energy           0.834056752558 Eh   ::
         :: G(RRHO) w/o ZPVE           -0.084258241873 Eh   ::
         :: G(RRHO) contrib.            0.749798510685 Eh   ::
         :::::::::::::::::::::::::::::::::::::::::::::::::::::

           -------------------------------------------------
          | TOTAL ENERGY             -167.598029457570 Eh   |
          | TOTAL ENTHALPY           -166.709119523359 Eh   |
          | TOTAL FREE ENERGY        -166.848230946884 Eh   |
          | GRADIENT NORM               0.000076187518 Eh/α |
          | HOMO-LUMO GAP               2.002882929714 eV   |
           -------------------------------------------------

 * finished run on 2025/08/25 at 17:25:26.715
