   * xtb version 6.7.1 (edcfbbe) compiled by 'albert@albert-system' on 2024-07-22

   ID    Z sym.   atoms
    1    6 C      1-5, 7-13, 15-18, 20-32, 34-46, 48-60, 62, 63
    2    7 N      6, 14, 19, 33, 47, 61
    3    1 H      64-99

          program call               : xtb data2507/gas/TCzTrz/TCzTrz_gas_S0_crest.xyz --gfn 2 --ohess vtight --parallel 40 --molden --ceasefiles --namespace data2507/gas/TCzTrz/TCzTrz_gas_S0_finalOpt
          :  Hamiltonian                  GFN2-xTB          :
 * total energy  :  -158.0961704 Eh     change       -0.2743946E-08 Eh
 * total energy  :  -158.0961711 Eh     change       -0.7217566E-06 Eh
 * total energy  :  -158.0961722 Eh     change       -0.1043069E-05 Eh
 * total energy  :  -158.0961732 Eh     change       -0.1075051E-05 Eh
 * total energy  :  -158.0961737 Eh     change       -0.5031672E-06 Eh
 * total energy  :  -158.0961740 Eh     change       -0.3075314E-06 Eh
 * total energy  :  -158.0961743 Eh     change       -0.2614340E-06 Eh
 * total energy  :  -158.0961745 Eh     change       -0.1671820E-06 Eh
 * total energy  :  -158.0961745 Eh     change       -0.1877009E-07 Eh
   *** GEOMETRY OPTIMIZATION CONVERGED AFTER 9 ITERATIONS ***

 final structure:
================
99
 xtb: 6.7.1 (edcfbbe)
C            7.20005120999612       -4.81354449711751        0.03739222073847
C            5.81547377008509       -4.80794215573351       -0.03267761113949
C            5.12712056139491       -3.61063356870058       -0.03970504074076
C            5.82435700045790       -2.40522309229623        0.02256175151174
C            5.09776311298570       -1.13653250217684        0.01305400782084
N            5.80114732898079       -0.00817781925547       -0.00308947692992
C            5.09896501031618        1.12097208281423       -0.01967205717018
C            5.82665805114312        2.38905459320721       -0.02679357175546
C            7.21871633437825        2.39891187901988       -0.08987089086662
C            7.90158404269476        3.59948542346390       -0.09320427751198
C            7.20440426574605        4.79635766083853       -0.03290790434865
C            5.81951409696496        4.79180008838700        0.03025857242153
C            5.13017772244315        3.59501519196145        0.03300485743873
N            3.76868429580627        1.16751436500060       -0.02835595954936
C            3.14872666989127       -0.00685735285451       -0.00385758305669
C            1.68633887869710       -0.00521536160737       -0.00314564115560
C            0.99221538617824        1.16464572074766       -0.28931125147860
C           -0.39412497127303        1.17695414956408       -0.29326578225341
N           -1.07295580068393        2.36650349269170       -0.58451455193448
C           -2.14307023349117        2.50664738421720       -1.44909166904180
C           -2.60192766466376        1.63679277130776       -2.42589311313999
C           -3.70630173692945        2.01979183454445       -3.16203289545644
C           -4.32250087829547        3.25130163653758       -2.95683850198363
C           -3.82877475986362        4.14782388539585       -2.02985765667790
C           -2.72489087821801        3.78080868347248       -1.27296857719200
C           -1.94986600584134        4.44766746130378       -0.26357119290839
C           -2.03405131285475        5.69796997607642        0.33331802339490
C           -1.11455102578460        6.02938022667159        1.30876335388793
C           -0.12721443260777        5.12797846088349        1.69808883568022
C           -0.02532017107085        3.87597470439419        1.12099585657815
C           -0.93633701662569        3.54553064388249        0.12907875581486
C           -1.10985300031865        0.00034240764005       -0.00016615784428
N           -2.50693287199542        0.00301850816854        0.00111317129732
C           -3.31527210311481        0.83694248110151        0.75260238119767
C           -2.96338210209869        1.78384725306412        1.70171104386086
C           -3.98019911361414        2.48636392840801        2.31899043008857
C           -5.31712735705765        2.23439913855240        2.02500138312445
C           -5.67306736216795        1.25250618875613        1.12158408067732
C           -4.66813300594821        0.54123780383335        0.48172644194710
C           -4.67043915998587       -0.53284602295793       -0.47192532045044
C           -5.67825341951830       -1.24336609908102       -1.10807497597554
C           -5.32637719881325       -2.22542807961145       -2.01292259367525
C           -3.99078837958990       -2.47797379031768       -2.31237997590878
C           -2.97119765018997       -1.77625871899353       -1.69878809388846
C           -3.31888543763079       -0.82973797313232       -0.74776263680157
C           -0.39806252743389       -1.17916586000830        0.29145933962861
N           -1.08163866381366       -2.36565794131605        0.58449975803837
C           -0.95471614449780       -3.54458513323862       -0.13111939190269
C           -0.04744818205072       -3.88024069712897       -1.12470429223297
C           -0.15964688754632       -5.13037150860520       -1.70394594159746
C           -1.15336817050190       -6.02490879565568       -1.31501875539101
C           -2.06892070119969       -5.68834316361110       -0.33764355952443
C           -1.97439865539213       -4.43982475801713        0.26141471808997
C           -2.74312331733169       -3.76892966006484        1.27292519464353
C           -3.84924754101119       -4.12871482455983        2.03006105088397
C           -4.33526057090281       -3.22997317681547        2.95890972249861
C           -3.70930377783655       -2.00361857247347        3.16573410967633
C           -2.60279031878658       -1.62779929392835        2.42915902488957
C           -2.15158731401067       -2.49948677898828        1.45039304372739
C            0.98835485445725       -1.17247688197851        0.28439240411723
N            3.76731371940143       -1.18184794203851        0.02080576845197
C            7.21610846957886       -2.41610243764434        0.09196525029835
C            7.89796925386661       -3.61722660131375        0.09978581311023
H            7.73598862267921       -5.75144395786101        0.04350818226249
H            5.27380424127663       -5.74117102324087       -0.08175219135941
H            4.05008767880850       -3.58761793763287       -0.09555804074905
H            7.74372477982531        1.45787871305859       -0.13712937379602
H            8.98055981146755        3.60606817580847       -0.14282020121615
H            7.74122873700484        5.73376309571073       -0.03502344848230
H            5.27822781360023        5.72533994445595        0.07748142649944
H            4.05284869200345        3.57313452562718        0.08349233666034
H            1.54303050422964        2.05673202734148       -0.54036611218881
H           -2.11167124029997        0.69470360759128       -2.61677237702162
H           -4.09465031147010        1.34951347720525       -3.91428867992299
H           -5.18750664194018        3.51297799330600       -3.54773117243907
H           -4.28646561732744        5.11614047254268       -1.89532954659130
H           -2.80689933512063        6.39195662344974        0.03969483245531
H           -1.16120955238942        6.99807295201416        1.78372311833077
H            0.57304860500675        5.41097473259648        2.47025089947901
H            0.73511031691751        3.17944854396365        1.44208907254544
H           -1.93269518033593        1.96864752138462        1.96441804535120
H           -3.72871466609964        3.24244932595410        3.04784695140336
H           -6.08398707547013        2.80643071156621        2.52569799267916
H           -6.71048610179492        1.03658791932482        0.91614020854735
H           -6.71475572640014       -1.02659951608831       -0.89894434516090
H           -6.09555506499411       -2.79677766017833       -2.51082342063187
H           -3.74244387879465       -3.23396237254898       -3.04240820504699
H           -1.94159351897846       -1.96146142294130       -1.96546950360703
H            0.71784793822229       -3.18893033200606       -1.44550337465018
H            0.53750382620030       -5.41738088185471       -2.47743855346093
H           -1.20811695457463       -6.99230854860007       -1.79175251658251
H           -2.84669370294597       -6.37691681440034       -0.04426768062102
H           -4.31449914854823       -5.09320772973735        1.89403247142278
H           -5.20190731601878       -3.48572490800126        3.54999137376474
H           -4.09196371195618       -1.33176300664125        3.91949461078851
H           -2.10519095153429       -0.68972105784699        2.62093180646411
H            1.53619697863000       -2.06673591785082        0.53428355808548
H            7.74153861863025       -1.47539359085429        0.14104354756977
H            8.97667537658991       -3.62469402870220        0.15488942176800

          :  Hamiltonian                  GFN2-xTB          :
         :: gradient norm              0.000123141508 Eh/a0 ::
         :: HOMO-LUMO gap              1.960290782252 eV    ::
         :: SCC energy              -161.032906421009 Eh    ::
         :: -> dispersion             -0.165902194250 Eh    ::
         :: repulsion energy           2.936731936731 Eh    ::

    * Orbital Energies and Occupations

         #    Occupation            Energy/Eh            Energy/eV
      -------------------------------------------------------------
         1        2.0000           -0.6904693             -18.7886
       ...           ...                  ...                  ...
       135        2.0000           -0.4100681             -11.1585
       136        2.0000           -0.4090986             -11.1321
       137        2.0000           -0.4047154             -11.0129
       138        2.0000           -0.4035199             -10.9803
       139        2.0000           -0.4030621             -10.9679
       140        2.0000           -0.3809218             -10.3654
       141        2.0000           -0.3783004             -10.2941
       142        2.0000           -0.3754388             -10.2162
       143        2.0000           -0.3753113             -10.2127
       144        2.0000           -0.3742539             -10.1840
       145        2.0000           -0.3666885              -9.9781
       146        2.0000           -0.3654336              -9.9440
       147        2.0000           -0.3641646              -9.9094 (HOMO)
       148                         -0.2921252              -7.9491 (LUMO)
       149                         -0.2891029              -7.8669
       150                         -0.2528050              -6.8792
       151                         -0.2509706              -6.8293
       152                         -0.2441245              -6.6430
       153                         -0.2430327              -6.6133
       154                         -0.2412578              -6.5650
       155                         -0.2305277              -6.2730
       156                         -0.2305236              -6.2729
       157                         -0.2259096              -6.1473
       158                         -0.2214067              -6.0248
       ...                                ...                  ...
       288                          0.7492216              20.3874
      -------------------------------------------------------------
                  HL-Gap            0.0720394 Eh            1.9603 eV

     #   Z          covCN         q      C6AA      α(0)
     1   6 C        2.920    -0.023    28.573     8.766
     2   6 C        2.918    -0.027    28.676     8.781
     3   6 C        2.924    -0.023    28.580     8.767
     4   6 C        2.984    -0.000    28.026     8.684
     5   6 C        2.983     0.203    23.697     7.985
     6   7 N        1.844    -0.292    28.426     7.902
     7   6 C        2.983     0.203    23.697     7.985
     8   6 C        2.984    -0.000    28.026     8.684
     9   6 C        2.924    -0.023    28.581     8.767
    10   6 C        2.918    -0.027    28.678     8.782
    11   6 C        2.920    -0.023    28.573     8.766
    12   6 C        2.918    -0.027    28.676     8.781
    13   6 C        2.924    -0.023    28.580     8.767
    14   7 N        1.845    -0.295    28.501     7.912
    15   6 C        2.988     0.203    23.690     7.984
    16   6 C        2.982    -0.003    28.086     8.693
    17   6 C        2.926    -0.045    29.128     8.851
    18   6 C        2.911     0.055    26.767     8.484
    19   7 N        2.802    -0.045    22.101     6.982
    20   6 C        3.075     0.048    26.834     8.493
    21   6 C        2.910    -0.048    29.190     8.859
    22   6 C        2.925    -0.032    28.793     8.800
    23   6 C        2.921    -0.039    28.973     8.827
    24   6 C        2.913    -0.032    28.804     8.801
    25   6 C        3.067    -0.016    28.337     8.729
    26   6 C        3.068    -0.014    28.301     8.723
    27   6 C        2.913    -0.032    28.791     8.799
    28   6 C        2.920    -0.040    28.995     8.830
    29   6 C        2.924    -0.033    28.819     8.804
    30   6 C        2.910    -0.051    29.262     8.870
    31   6 C        3.075     0.049    26.818     8.491
    32   6 C        2.913     0.042    27.068     8.531
    33   7 N        2.802    -0.039    21.999     6.966
    34   6 C        3.075     0.050    26.790     8.486
    35   6 C        2.910    -0.047    29.170     8.856
    36   6 C        2.925    -0.032    28.796     8.800
    37   6 C        2.921    -0.039    28.969     8.826
    38   6 C        2.913    -0.031    28.783     8.798
    39   6 C        3.069    -0.015    28.310     8.724
    40   6 C        3.069    -0.015    28.310     8.724
    41   6 C        2.913    -0.031    28.783     8.798
    42   6 C        2.921    -0.039    28.969     8.826
    43   6 C        2.925    -0.032    28.795     8.800
    44   6 C        2.911    -0.047    29.170     8.856
    45   6 C        3.075     0.050    26.790     8.486
    46   6 C        2.911     0.055    26.767     8.484
    47   7 N        2.801    -0.045    22.104     6.983
    48   6 C        3.075     0.049    26.817     8.491
    49   6 C        2.910    -0.051    29.262     8.870
    50   6 C        2.924    -0.033    28.819     8.804
    51   6 C        2.920    -0.040    28.995     8.830
    52   6 C        2.913    -0.032    28.790     8.799
    53   6 C        3.068    -0.014    28.301     8.723
    54   6 C        3.067    -0.016    28.337     8.729
    55   6 C        2.913    -0.032    28.803     8.801
    56   6 C        2.921    -0.039    28.973     8.827
    57   6 C        2.925    -0.032    28.793     8.800
    58   6 C        2.910    -0.048    29.189     8.859
    59   6 C        3.075     0.048    26.834     8.493
    60   6 C        2.926    -0.045    29.128     8.851
    61   7 N        1.845    -0.295    28.500     7.912
    62   6 C        2.924    -0.023    28.581     8.767
    63   6 C        2.918    -0.027    28.678     8.782
    64   1 H        0.926     0.038     2.480     2.462
    65   1 H        0.926     0.038     2.473     2.459
    66   1 H        0.926     0.055     2.253     2.347
    67   1 H        0.926     0.055     2.253     2.347
    68   1 H        0.926     0.038     2.480     2.462
    69   1 H        0.926     0.038     2.480     2.462
    70   1 H        0.926     0.038     2.473     2.459
    71   1 H        0.926     0.055     2.254     2.348
    72   1 H        0.926     0.071     2.072     2.251
    73   1 H        0.926     0.025     2.666     2.553
    74   1 H        0.926     0.030     2.588     2.516
    75   1 H        0.926     0.030     2.589     2.516
    76   1 H        0.926     0.032     2.553     2.498
    77   1 H        0.926     0.032     2.557     2.501
    78   1 H        0.926     0.029     2.600     2.522
    79   1 H        0.926     0.030     2.585     2.514
    80   1 H        0.926     0.028     2.608     2.526
    81   1 H        0.926     0.023     2.693     2.566
    82   1 H        0.926     0.030     2.581     2.512
    83   1 H        0.926     0.030     2.582     2.513
    84   1 H        0.926     0.033     2.544     2.494
    85   1 H        0.926     0.033     2.545     2.494
    86   1 H        0.926     0.030     2.581     2.513
    87   1 H        0.926     0.030     2.581     2.512
    88   1 H        0.926     0.023     2.694     2.566
    89   1 H        0.926     0.028     2.609     2.526
    90   1 H        0.926     0.030     2.585     2.514
    91   1 H        0.926     0.029     2.600     2.522
    92   1 H        0.926     0.032     2.557     2.501
    93   1 H        0.926     0.032     2.553     2.498
    94   1 H        0.926     0.030     2.589     2.516
    95   1 H        0.926     0.030     2.588     2.516
    96   1 H        0.926     0.024     2.666     2.554
    97   1 H        0.926     0.071     2.072     2.251
    98   1 H        0.926     0.055     2.253     2.347
    99   1 H        0.926     0.038     2.480     2.462

molecular dipole:
                 x           y           z       tot (Debye)
 q only:        0.691      -0.001       0.001
   full:        0.833      -0.001       0.001       2.116

 projected vibrational frequencies (cm⁻¹)
eigval :       -0.00    -0.00    -0.00    -0.00     0.00     0.00
eigval :        7.52    12.79    15.72    19.41    21.76    21.89
eigval :       24.10    28.08    28.62    40.26    47.63    52.68
eigval :       55.77    60.66    69.44    91.71    92.23   104.54
eigval :      105.38   106.83   121.28   122.06   126.06   143.60
eigval :      151.08   152.80   169.75   179.61   182.16   185.61
eigval :      188.62   204.65   222.16   230.87   240.23   247.15
eigval :      261.37   268.46   274.82   275.33   279.41   298.05
eigval :      332.61   353.84   361.00   364.45   365.18   375.89
eigval :      386.15   400.07   400.78   404.11   407.33   415.72
eigval :      422.65   425.72   427.30   437.15   437.53   440.90
eigval :      443.85   481.14   496.38   509.15   510.07   518.83
eigval :      519.39   520.71   537.54   542.00   542.23   543.54
eigval :      545.10   546.16   556.50   576.63   587.25   587.33
eigval :      588.06   589.58   593.32   612.56   622.67   622.82
eigval :      626.98   636.95   647.61   648.67   653.91   671.37
eigval :      674.24   674.62   675.10   684.99   686.81   699.79
eigval :      705.92   708.40   708.46   730.19   750.95   754.13
eigval :      756.34   757.28   769.70   771.16   771.39   773.41
eigval :      775.92   782.55   782.57   783.66   796.12   847.38
eigval :      859.04   864.33   871.20   876.21   877.05   877.14
eigval :      877.94   878.35   879.98   881.74   891.28   896.12
eigval :      898.95   899.40   904.55   904.57   905.67   905.76
eigval :      906.95   907.69   910.76   912.02   923.82   924.15
eigval :      924.60   924.65   925.57   925.89   929.16   930.29
eigval :      931.25   934.26   934.41   958.15   990.47   998.39
eigval :     1011.36  1013.41  1014.56  1043.67  1050.28  1070.46
eigval :     1070.58  1072.55  1073.09  1074.52  1075.00  1075.79
eigval :     1076.42  1088.52  1103.13  1108.59  1112.40  1121.68
eigval :     1147.55  1149.84  1152.47  1153.33  1154.21  1166.28
eigval :     1174.20  1177.92  1179.27  1180.10  1180.93  1181.18
eigval :     1181.19  1181.89  1183.38  1186.40  1190.83  1203.79
eigval :     1209.00  1210.43  1232.15  1235.54  1235.98  1238.46
eigval :     1241.84  1254.14  1268.52  1269.98  1292.27  1297.02
eigval :     1300.23  1300.32  1301.77  1302.07  1309.52  1326.13
eigval :     1326.22  1329.56  1336.22  1357.88  1359.50  1360.55
eigval :     1361.78  1362.93  1363.92  1365.21  1373.00  1373.08
eigval :     1403.69  1416.34  1423.73  1428.51  1428.97  1430.22
eigval :     1432.11  1433.93  1436.95  1444.51  1467.95  1471.89
eigval :     1474.80  1476.67  1476.93  1478.74  1488.36  1488.50
eigval :     1489.32  1512.37  1517.67  1544.17  1564.90  1576.92
eigval :     1577.58  1579.31  1583.61  1585.63  1591.34  1591.79
eigval :     1593.78  1594.82  1595.56  1600.54  1600.80  1601.82
eigval :     1615.50  1615.63  1618.02  3075.46  3075.53  3075.59
eigval :     3075.62  3078.21  3078.61  3079.32  3079.33  3081.07
eigval :     3081.13  3081.79  3081.92  3083.17  3083.91  3085.27
eigval :     3085.39  3088.49  3088.54  3090.32  3090.63  3090.98
eigval :     3091.99  3093.17  3093.27  3096.27  3096.35  3097.09
eigval :     3098.77  3099.69  3099.88  3106.68  3106.88  3107.31
eigval :     3109.08  3116.73  3117.23

   temp. (K)  partition function   enthalpy   heat capacity  entropy
                                   cal/mol     cal/K/mol   cal/K/mol   J/K/mol
 298.15  VIB  0.121E+24            28633.942    179.983    178.535
         ROT  0.669E+08              888.752      2.981     38.790
         INT  0.808E+31            29522.694    182.964    217.325
         TR   0.221E+29             1481.254      4.968     45.914
         TOT                       31003.9481   187.9317   263.2388  1101.3913

       T/K    H(0)-H(T)+PV         H(T)/Eh          T*S/Eh         G(T)/Eh
   ------------------------------------------------------------------------
    298.15    0.494079E-01    0.801937E+00    0.125073E+00    0.676864E+00
   ------------------------------------------------------------------------

         :::::::::::::::::::::::::::::::::::::::::::::::::::::
         ::                  THERMODYNAMIC                  ::
         :::::::::::::::::::::::::::::::::::::::::::::::::::::
         :: total free energy        -157.419310500883 Eh   ::
         ::.................................................::
         :: total energy             -158.096174484276 Eh   ::
         :: zero point energy           0.752529312310 Eh   ::
         :: G(RRHO) w/o ZPVE           -0.075665328917 Eh   ::
         :: G(RRHO) contrib.            0.676863983393 Eh   ::
         :::::::::::::::::::::::::::::::::::::::::::::::::::::

           -------------------------------------------------
          | TOTAL ENERGY             -158.096174484276 Eh   |
          | TOTAL ENTHALPY           -157.294237235794 Eh   |
          | TOTAL FREE ENERGY        -157.419310500883 Eh   |
          | GRADIENT NORM               0.000123130458 Eh/α |
          | HOMO-LUMO GAP               1.960291241325 eV   |
           -------------------------------------------------

 * finished run on 2025/07/16 at 16:42:43.011
