   * xtb version 6.7.1 (edcfbbe) compiled by 'albert@albert-system' on 2024-07-22

   ID    Z sym.   atoms
    1    6 C      1-5, 7-13, 15-18, 20-32, 34-46, 48-60, 62, 63
    2    7 N      6, 14, 19, 33, 47, 61
    3    1 H      64-99

          program call               : xtb data2507/gas/TCzTrz/TCzTrz_gas_T1_crest.xyz --gfn 2 --spinpol --tblite --uhf 2 --ohess vtight --parallel 40 --molden --ceasefiles --namespace data2507/gas/TCzTrz/TCzTrz_gas_T1_finalOpt
 * total energy  :  -158.0227961 Eh     change       -0.1223046E-07 Eh
 * total energy  :  -158.0228496 Eh     change       -0.5348586E-04 Eh
 * total energy  :  -158.0228723 Eh     change       -0.2264752E-04 Eh
 * total energy  :  -158.0228741 Eh     change       -0.1829324E-05 Eh
 * total energy  :  -158.0228750 Eh     change       -0.9457276E-06 Eh
 * total energy  :  -158.0228748 Eh     change        0.2457383E-06 Eh
 * total energy  :  -158.0228756 Eh     change       -0.7776561E-06 Eh
 * total energy  :  -158.0228755 Eh     change        0.2207670E-07 Eh
 * total energy  :  -158.0228760 Eh     change       -0.5059233E-06 Eh
 * total energy  :  -158.0228769 Eh     change       -0.8270445E-06 Eh
 * total energy  :  -158.0228800 Eh     change       -0.4466171E-06 Eh
 * total energy  :  -158.0228805 Eh     change       -0.4220102E-06 Eh
 * total energy  :  -158.0228807 Eh     change       -0.2332735E-06 Eh
 * total energy  :  -158.0228809 Eh     change       -0.2099732E-06 Eh
 * total energy  :  -158.0228810 Eh     change       -0.1155376E-06 Eh
 * total energy  :  -158.0228813 Eh     change       -0.2379365E-06 Eh
 * total energy  :  -158.0228812 Eh     change        0.3757103E-07 Eh
 * total energy  :  -158.0228812 Eh     change       -0.2971800E-07 Eh
 * total energy  :  -158.0228813 Eh     change       -0.9618790E-07 Eh
   *** GEOMETRY OPTIMIZATION CONVERGED AFTER 24 ITERATIONS ***

 final structure:
================
99
 xtb: 6.7.1 (edcfbbe)
C            7.24342414234163       -4.79244138926851        0.57361488108543
C            5.85630608453517       -4.80087936182173        0.55376439658017
C            5.15710170948749       -3.61904192493649        0.41840711902016
C            5.84292868989127       -2.40935495206219        0.30053439467063
C            5.10966508066485       -1.15918308331393        0.15377925603134
N            5.81428186902056       -0.01768923093965        0.00881506567221
C            5.11686181820575        1.12799489977129       -0.13687546501455
C            5.85795982094977        2.37333971418292       -0.28601976942849
C            7.25281985779010        2.36261950601040       -0.30630081385581
C            7.95281903670772        3.54442713407201       -0.44603426194569
C            7.27323668967173        4.74683802094185       -0.56606723094004
C            5.88620919721019        4.76400433895076       -0.54587967616581
C            5.17966883140119        3.58694078644559       -0.40701174395507
N            3.81236844138515        1.15519020506737       -0.14883018269937
C            3.13292192390155       -0.00930486798694        0.00879762661709
C            1.71594397900319       -0.00479725404328        0.00787020415127
C            0.99793247652466        1.18760171285625       -0.21709820442764
C           -0.37817263719879        1.19407574233980       -0.22395611509762
N           -1.07261690911231        2.39632670036178       -0.44706891347564
C           -2.12070580038651        2.57591206814253       -1.32538664968985
C           -2.54197098363423        1.76311882141491       -2.36781222438432
C           -3.63965365434243        2.17174847232717       -3.10003259144088
C           -4.28693416046493        3.37350610963505       -2.82539509465269
C           -3.83276865419172        4.21620439722733       -1.82807478049908
C           -2.73647922213119        3.82315057928153       -1.07515339402698
C           -1.99767191488730        4.43212957899329       -0.00299072074556
C           -2.11797593430975        5.63367772726313        0.67926243020114
C           -1.22384904248397        5.90999256945571        1.69652352028726
C           -0.22611797614410        5.00148646306234        2.04176901501606
C           -0.08812870690857        3.79644252427791        1.37949990756886
C           -0.97477178760618        3.52061428254674        0.34766491757108
C           -1.10486695186993        0.00416187939630        0.00158774926932
N           -2.50741102153972        0.00659507361538       -0.00517107749262
C           -3.31813160318451        0.77202062443169        0.80588942094038
C           -2.97066515902178        1.65035793925868        1.82272768350754
C           -3.99005593184726        2.30337469053232        2.48707178728290
C           -5.32607758035224        2.07215755192640        2.17005187946482
C           -5.67880342615840        1.16047607318635        1.19284424696943
C           -4.67200283765065        0.49898434275427        0.50617175437738
C           -4.66665221777155       -0.49718842310395       -0.52861656935820
C           -5.66592502030225       -1.16447105220054       -1.22072899033681
C           -5.30268314025906       -2.07358114037359       -2.19652040588319
C           -3.96377009344839       -2.29610588686332       -2.50736926364042
C           -2.95179543503721       -1.63734906578329       -1.83733501149352
C           -3.30984607471488       -0.76264196547389       -0.82107825196612
C           -0.38639144831330       -1.18991651642808        0.23252737759440
N           -1.09041422938156       -2.38673484175545        0.45544707565995
C           -1.00113546082897       -3.51251058072680       -0.33817537913434
C           -0.11175563647128       -3.79924332256285       -1.36466564971584
C           -0.26046025433441       -5.00253993439460       -2.02772748790924
C           -1.27113756042790       -5.89889453385693       -1.68831951576186
C           -2.16746382297726       -5.61194128569318       -0.67599752111526
C           -2.03655923336478       -4.41193083369458        0.00702217379463
C           -2.77423262499624       -3.79411573282929        1.07489342477218
C           -3.87937831380497       -4.17383430654022        1.82174233791810
C           -4.32909502228445       -3.32544556531873        2.81624631413826
C           -3.66908462190714       -2.13145380561372        3.09436034472519
C           -2.56262021625100       -1.73609204476473        2.36806177176688
C           -2.14542536605832       -2.55409522859952        1.32812440373316
C            0.98968005966214       -1.19242400862343        0.23159156740567
N            3.80501636802953       -1.17795044475065        0.16606461965568
C            7.23785062711091       -2.40741525111847        0.32061466925987
C            7.93047868672622       -3.59395161672471        0.45691031900428
H            7.78777139550824       -5.71930494154194        0.67974134067710
H            5.32176280442215       -5.73530604875785        0.64430775505408
H            4.07818017694688       -3.60978611802503        0.40043860002785
H            7.76772557564538        1.41890919703899       -0.21221529099678
H            9.03293134399743        3.53179815808804       -0.46189590491487
H            7.82333291370407        5.66996196531697       -0.67509704884132
H            5.35748628643398        5.70149461105081       -0.63888704518900
H            4.10071847998873        3.58448809245932       -0.38876592318612
H            1.54612927050654        2.09424333821192       -0.41598820914410
H           -2.02547006945963        0.84694298441330       -2.60804417227535
H           -3.99857858016532        1.54637185985404       -3.90369467050926
H           -5.14566509274589        3.65669240391054       -3.41541727556813
H           -4.31724631844150        5.16184029805701       -1.63775755652484
H           -2.89723689317599        6.33415925974041        0.42004521437156
H           -1.29912060330320        6.84130688119882        2.23781308563113
H            0.45338545945902        5.24258271039432        2.84578216907193
H            0.68067051918233        3.09219813894928        1.66029215661316
H           -1.94023028685633        1.81637025090870        2.09802457713501
H           -3.74299880363150        3.00379755858478        3.27088693461135
H           -6.09556545294502        2.60432576777143        2.70909529828451
H           -6.71571385381907        0.96283733858584        0.96727760796937
H           -6.70517313817201       -0.97326582003651       -1.00044954052396
H           -6.06616622478215       -2.61028066615200       -2.73958843253780
H           -3.70845843036000       -2.99417707674665       -3.29062790038130
H           -1.91889055453226       -1.79611450605785       -2.10772306152207
H            0.66714256484210       -3.10437924434731       -1.64094773637980
H            0.42069445489372       -5.25190105060110       -2.82781161232977
H           -1.35469556999607       -6.82912140240710       -2.23025937695539
H           -2.95657483633087       -6.30294886452379       -0.42121115509276
H           -4.37401484801466       -5.11367764826423        1.62892327186531
H           -5.19449456414486       -3.59814704827797        3.40143703117497
H           -4.02505856048124       -1.50161669494251        3.89583846422039
H           -2.03648492225724       -0.82600292443778        2.61064220749530
H            1.53130686401673       -2.10231168260738        0.43362499078178
H            7.75862613740648       -1.46669849832961        0.22888634502545
H            9.01065468050182       -3.58813414633697        0.47241044360609

 projected vibrational frequencies (cm⁻¹)
eigval :        0.00     0.00     0.00     0.00     0.00     0.00
eigval :        9.62    12.65    14.47    19.08    20.91    21.29
eigval :       26.93    27.16    29.64    38.90    46.98    49.72
eigval :       53.68    59.88    68.73    94.23   100.92   103.59
eigval :      104.87   107.94   117.51   120.79   122.30   141.09
eigval :      148.08   151.32   169.04   177.40   178.34   180.21
eigval :      199.98   214.03   217.68   229.53   231.41   247.82
eigval :      252.47   265.30   272.15   273.25   278.03   292.79
eigval :      315.20   354.66   356.13   366.21   366.99   370.23
eigval :      371.46   388.75   398.16   399.24   405.02   409.68
eigval :      411.10   419.86   423.48   425.51   435.65   436.26
eigval :      436.55   457.15   487.44   498.47   500.67   516.62
eigval :      517.50   518.03   535.77   539.20   539.66   541.12
eigval :      541.74   545.99   546.60   553.18   559.86   567.01
eigval :      586.55   587.16   588.29   588.33   589.40   603.56
eigval :      607.83   621.86   629.33   639.67   643.98   655.53
eigval :      663.02   669.97   672.03   674.11   675.44   679.65
eigval :      682.89   703.25   707.28   708.06   710.31   749.37
eigval :      755.03   756.37   762.35   763.99   767.73   769.29
eigval :      770.03   771.64   780.13   780.29   781.49   800.15
eigval :      824.62   832.06   838.05   860.95   870.42   872.39
eigval :      873.75   874.76   875.64   876.50   877.79   877.81
eigval :      893.70   894.99   897.84   901.00   902.45   903.53
eigval :      903.75   904.28   904.65   905.44   906.15   920.92
eigval :      922.18   922.47   922.79   922.97   924.21   924.41
eigval :      926.48   927.46   930.07   930.22   939.30   976.44
eigval :      984.13   987.85  1010.16  1011.91  1012.78  1040.16
eigval :     1062.23  1067.98  1068.40  1070.14  1071.38  1071.40
eigval :     1073.52  1073.95  1076.02  1095.12  1109.40  1110.05
eigval :     1119.81  1135.57  1143.93  1146.80  1146.94  1149.83
eigval :     1156.58  1172.57  1176.55  1177.18  1179.61  1179.67
eigval :     1179.68  1180.16  1180.55  1181.71  1182.32  1183.58
eigval :     1190.24  1199.22  1228.48  1232.45  1233.22  1236.24
eigval :     1237.61  1238.36  1258.39  1267.82  1273.63  1282.35
eigval :     1289.38  1292.36  1293.63  1295.59  1296.46  1297.81
eigval :     1306.12  1328.05  1330.65  1331.57  1338.20  1348.61
eigval :     1351.01  1352.06  1354.87  1360.98  1362.46  1364.28
eigval :     1399.07  1401.07  1416.28  1418.67  1419.93  1421.42
eigval :     1422.89  1430.91  1433.03  1434.89  1440.97  1450.74
eigval :     1464.56  1465.59  1467.44  1468.63  1477.87  1478.78
eigval :     1486.42  1486.46  1487.46  1497.64  1537.27  1569.08
eigval :     1569.98  1570.55  1574.28  1574.96  1583.65  1585.04
eigval :     1586.92  1587.15  1587.71  1588.70  1588.79  1594.07
eigval :     1603.08  1605.38  1610.69  3074.13  3074.25  3078.72
eigval :     3078.74  3078.88  3079.06  3079.43  3079.82  3080.77
eigval :     3080.89  3083.58  3083.78  3084.55  3085.29  3087.07
eigval :     3087.09  3089.28  3089.59  3090.79  3090.97  3091.57
eigval :     3092.87  3095.04  3095.12  3097.17  3097.53  3097.96
eigval :     3098.55  3098.82  3099.74  3100.31  3101.01  3101.10
eigval :     3101.26  3112.71  3113.83

   temp. (K)  partition function   enthalpy   heat capacity  entropy
                                   cal/mol     cal/K/mol   cal/K/mol   J/K/mol
 298.15  VIB  0.164E+24            29012.158    182.499    180.357
         ROT  0.672E+08              888.752      2.981     38.799
         INT  0.110E+32            29900.910    185.479    219.156
         TR   0.221E+29             1481.254      4.968     45.914
         TOT                       31382.1643   190.4476   265.0697  1109.0516

       T/K    H(0)-H(T)+PV         H(T)/Eh          T*S/Eh         G(T)/Eh
   ------------------------------------------------------------------------
    298.15    0.500107E-01    0.797219E+00    0.125943E+00    0.671276E+00
   ------------------------------------------------------------------------

         :::::::::::::::::::::::::::::::::::::::::::::::::::::
         ::                  THERMODYNAMIC                  ::
         :::::::::::::::::::::::::::::::::::::::::::::::::::::
         :: total free energy        -157.351605446791 Eh   ::
         ::.................................................::
         :: total energy             -158.022881388005 Eh   ::
         :: zero point energy           0.747208447469 Eh   ::
         :: G(RRHO) w/o ZPVE           -0.075932506255 Eh   ::
         :: G(RRHO) contrib.            0.671275941214 Eh   ::
         :::::::::::::::::::::::::::::::::::::::::::::::::::::

           -------------------------------------------------
          | TOTAL ENERGY             -158.022881388005 Eh   |
          | TOTAL ENTHALPY           -157.225662278438 Eh   |
          | TOTAL FREE ENERGY        -157.351605446791 Eh   |
          | GRADIENT NORM               0.000132654041 Eh/α |
           -------------------------------------------------

 * finished run on 2025/07/16 at 16:53:35.754
