   * xtb version 6.7.1 (edcfbbe) compiled by 'albert@albert-system' on 2024-07-22

   ID    Z sym.   atoms
    1    6 C      1-5, 7-13, 15-18, 20-32, 34-46, 48-60, 62, 63
    2    7 N      6, 14, 19, 33, 47, 61
    3    1 H      64-99

          program call               : xtb data2507/gas/TCzTrz/TCzTrz.xyz --gfn 2 --ohess vtight --parallel 40 --molden --ceasefiles --namespace data2507/gas/TCzTrz/TCzTrz_gas_S0_preOpt
          :  Hamiltonian                  GFN2-xTB          :
 * total energy  :  -158.0626533 Eh     change       -0.3202132E-08 Eh
 * total energy  :  -158.0824558 Eh     change       -0.1980258E-01 Eh
 * total energy  :  -158.0884586 Eh     change       -0.6002746E-02 Eh
 * total energy  :  -158.0907190 Eh     change       -0.2260415E-02 Eh
 * total energy  :  -158.0921020 Eh     change       -0.1383043E-02 Eh
 * total energy  :  -158.0925937 Eh     change       -0.4916931E-03 Eh
 * total energy  :  -158.0928350 Eh     change       -0.2412411E-03 Eh
 * total energy  :  -158.0930501 Eh     change       -0.2151312E-03 Eh
 * total energy  :  -158.0932608 Eh     change       -0.2106618E-03 Eh
 * total energy  :  -158.0934865 Eh     change       -0.2257411E-03 Eh
 * total energy  :  -158.0961718 Eh     change       -0.2483592E-06 Eh
 * total energy  :  -158.0961720 Eh     change       -0.2343712E-06 Eh
 * total energy  :  -158.0961724 Eh     change       -0.3686726E-06 Eh
 * total energy  :  -158.0961731 Eh     change       -0.6451251E-06 Eh
 * total energy  :  -158.0961737 Eh     change       -0.6835826E-06 Eh
 * total energy  :  -158.0961741 Eh     change       -0.3259974E-06 Eh
 * total energy  :  -158.0961742 Eh     change       -0.1759459E-06 Eh
 * total energy  :  -158.0961744 Eh     change       -0.1162789E-06 Eh
 * total energy  :  -158.0961744 Eh     change       -0.6439086E-07 Eh
   *** GEOMETRY OPTIMIZATION CONVERGED AFTER 58 ITERATIONS ***

 final structure:
================
99
 xtb: 6.7.1 (edcfbbe)
C            7.24968491229735       -4.80050755418992       -0.00642267610413
C            5.86476397298889       -4.79606295388644       -0.06911285103422
C            5.17492552103557       -3.59958345579472       -0.06323781541292
C            5.87095026838796       -2.39380402059890        0.00490788768840
C            5.14288599868258       -1.12590871289724        0.00893885014449
N            5.84501755395487        0.00336065094671        0.00531244321633
C            5.14159437947607        1.13182125291905        0.00050752064492
C            5.86818510385936        2.40055737396370        0.00567804385467
C            7.26039117989826        2.41189696466645       -0.05392653280644
C            7.94236035600697        3.61296401595258       -0.04759805940878
C            7.24410599738285        4.80886035604559        0.01907374263202
C            5.85908236519016        4.80281936088967        0.07931297487950
C            5.17064397850595        3.60553959544968        0.07240856924989
N            3.81122554124013        1.17706691063919       -0.00764890003478
C            3.19253459276347        0.00183339448021        0.00309900102926
C            1.73014655305561        0.00099532310942        0.00181994818400
C            1.03358888060230        1.17501546869848       -0.26064065261118
C           -0.35277886158510        1.18396578360745       -0.26670777168129
N           -1.03444747715271        2.37786452120996       -0.53270095357008
C           -2.10464537559263        2.53354492085441       -1.39458817721363
C           -2.55899453845537        1.68479102118405       -2.39186323634913
C           -3.66493366481652        2.07977050975202       -3.11925113375348
C           -4.28705556569075        3.30318887732494       -2.88539997249596
C           -3.79781153384225        4.18002257744117       -1.93747513844241
C           -2.69244427378201        3.80049304001357       -1.18894873855854
C           -1.92112369861526        4.44694300260781       -0.16357985193159
C           -2.01177032353637        5.68228504785848        0.46276824855076
C           -1.09458232624745        5.99483835793786        1.44657088175207
C           -0.10308193561209        5.08925386436186        1.81502505585769
C            0.00516657051995        3.85175920893542        1.20852466318924
C           -0.90369531084613        3.54047387250005        0.20848631511017
C           -1.06608468336616       -0.00062649053692       -0.00080532102035
N           -2.46315499611556       -0.00141260659274       -0.00213649349105
C           -3.27445586990927        0.81422020115909        0.76601834890122
C           -2.92594647592667        1.73921126232202        1.73770899581275
C           -3.94507200007627        2.42604133914777        2.36866177499301
C           -5.28095554549158        2.17939818073392        2.06558523364442
C           -5.63354569817954        1.21840042581070        1.13867542856376
C           -4.62624621826502        0.52335446874831        0.48485697252704
C           -4.62474415370703       -0.52848292984893       -0.49328550521931
C           -5.63004656408458       -1.22461298309506       -1.14902049916902
C           -5.27465523208580       -2.18526104318710       -2.07522223822465
C           -3.93792981370369       -2.43049990590410       -2.37571512395816
C           -2.92074745248003       -1.74257144101372       -1.74282534690840
C           -3.27210575659898       -0.81791484875805       -0.77184271559325
C           -0.35191247349703       -1.18439185561036        0.26645608956917
N           -1.03268572505786       -2.37909554582803        0.53111429767197
C           -0.89906322034172       -3.54155226175846       -0.20980964051214
C            0.01220243778874       -3.85178404324495       -1.20798609044638
C           -0.09333772797994       -5.08942212514564       -1.81467283012482
C           -1.08451723528296       -5.99617100639489       -1.44822857779070
C           -2.00409944239232       -5.68466950099158       -0.46632923372002
C           -1.91619310008008       -4.44920843145300        0.16017379194179
C           -2.69037716121844       -3.80365515497340        1.18394827251132
C           -3.79686808390127       -4.18445678551354        1.93016390642241
C           -4.28909156154216       -3.30819218757799        2.87707179738448
C           -3.66884052926710       -2.08407854480734        3.11224715447573
C           -2.56183729669490       -1.68782978795278        2.38717183576538
C           -2.10446460085848       -2.53603351018804        1.39081100379772
C            1.03445656394691       -1.17382472259266        0.26299901413573
N            3.81255810000445       -1.17268841657556        0.01488134159298
C            7.26306099099985       -2.40353870942022        0.06697570007080
C            7.94643283601672       -3.60381307165019        0.06167454605157
H            7.78682936071201       -5.73772354010387       -0.01070831886478
H            5.32388863654052       -5.72950850573359       -0.12260382335734
H            4.09758901609600       -3.57770201503062       -0.11321285778778
H            7.78618902745348        1.47159347606856       -0.10652207876506
H            9.02143736945176        3.62067376482100       -0.09478271442385
H            7.78015455063290        5.74669962487106        0.02415764218693
H            5.31703087323579        5.73564510601136        0.13169712861876
H            4.09324683831270        3.58241613297019        0.12047712397519
H            1.58264135052774        2.07361812091180       -0.49146651118154
H           -2.06424060401301        0.74973354493557       -2.60452200389257
H           -4.05000930618318        1.42551734834901       -3.88713462906224
H           -5.15318328820103        3.57447743244262       -3.47028524050373
H           -4.26002913634458        5.14277480618814       -1.78038074520517
H           -2.78780586405129        6.37928007011338        0.18511562988052
H           -1.14628425400525        6.95169128384698        1.94445313608918
H            0.59537412205019        5.35722284790213        2.59414720293309
H            0.76876124270036        3.15152795184854        1.51363116066385
H           -1.89606704444177        1.91897368760641        2.00703648625521
H           -3.69619008713095        3.16518835134019        3.11556081173709
H           -6.04976471684237        2.73846198801257        2.57779753159068
H           -6.67022529586623        1.00603510225830        0.92593370008495
H           -6.66735771530634       -1.01334552589340       -0.93827265180670
H           -6.04188464293827       -2.74515790288992       -2.58889157027887
H           -3.68682818407646       -3.16941348610467       -3.12210207932351
H           -1.89016148729892       -1.92126436908600       -2.01015587606544
H            0.77558763071941       -3.15065991578794       -1.51155894941337
H            0.60703482935532       -5.35658349475628       -2.59235044581693
H           -1.13405865385747       -6.95310168974915       -1.94618074158752
H           -2.77988193237752       -6.38257122849442       -0.19025254787612
H           -4.25766180516443       -5.14773102294576        1.77209047323508
H           -5.15613763110214       -3.58046848251161        3.46013423395884
H           -4.05625479791259       -1.43027850005676        3.87933980104727
H           -2.06858339144264       -0.75222191207904        2.60088867036579
H            1.58412094825635       -2.07178581575850        0.49486265525518
H            7.78767391616750       -1.46263400624234        0.12064254995195
H            9.02543297557227       -3.61027877055689        0.11076827314917

          :  Hamiltonian                  GFN2-xTB          :
         :: gradient norm              0.000029140709 Eh/a0 ::
         :: HOMO-LUMO gap              1.959003850757 eV    ::
         :: SCC energy              -161.032902771229 Eh    ::
         :: -> dispersion             -0.165908599650 Eh    ::
         :: repulsion energy           2.936728340527 Eh    ::

    * Orbital Energies and Occupations

         #    Occupation            Energy/Eh            Energy/eV
      -------------------------------------------------------------
         1        2.0000           -0.6904668             -18.7886
       ...           ...                  ...                  ...
       135        2.0000           -0.4100596             -11.1583
       136        2.0000           -0.4090922             -11.1320
       137        2.0000           -0.4047145             -11.0128
       138        2.0000           -0.4035183             -10.9803
       139        2.0000           -0.4030657             -10.9680
       140        2.0000           -0.3809288             -10.3656
       141        2.0000           -0.3782995             -10.2941
       142        2.0000           -0.3754189             -10.2157
       143        2.0000           -0.3753098             -10.2127
       144        2.0000           -0.3742459             -10.1837
       145        2.0000           -0.3666860              -9.9780
       146        2.0000           -0.3654382              -9.9441
       147        2.0000           -0.3641660              -9.9095 (HOMO)
       148                         -0.2921740              -7.9505 (LUMO)
       149                         -0.2890984              -7.8668
       150                         -0.2528048              -6.8792
       151                         -0.2509615              -6.8290
       152                         -0.2441269              -6.6430
       153                         -0.2430404              -6.6135
       154                         -0.2412546              -6.5649
       155                         -0.2305213              -6.2728
       156                         -0.2305196              -6.2728
       157                         -0.2259135              -6.1474
       158                         -0.2214056              -6.0248
       ...                                ...                  ...
       288                          0.7492235              20.3874
      -------------------------------------------------------------
                  HL-Gap            0.0719920 Eh            1.9590 eV

     #   Z          covCN         q      C6AA      α(0)
     1   6 C        2.920    -0.023    28.573     8.766
     2   6 C        2.918    -0.027    28.676     8.781
     3   6 C        2.924    -0.023    28.580     8.767
     4   6 C        2.984    -0.000    28.026     8.684
     5   6 C        2.983     0.203    23.697     7.985
     6   7 N        1.844    -0.292    28.427     7.902
     7   6 C        2.983     0.203    23.697     7.985
     8   6 C        2.984    -0.000    28.026     8.684
     9   6 C        2.924    -0.023    28.582     8.767
    10   6 C        2.918    -0.027    28.678     8.782
    11   6 C        2.920    -0.023    28.573     8.766
    12   6 C        2.918    -0.027    28.676     8.781
    13   6 C        2.924    -0.023    28.580     8.767
    14   7 N        1.845    -0.295    28.501     7.912
    15   6 C        2.988     0.203    23.691     7.984
    16   6 C        2.982    -0.003    28.087     8.693
    17   6 C        2.926    -0.045    29.128     8.851
    18   6 C        2.911     0.055    26.767     8.484
    19   7 N        2.802    -0.045    22.103     6.983
    20   6 C        3.075     0.048    26.834     8.493
    21   6 C        2.910    -0.048    29.189     8.859
    22   6 C        2.925    -0.032    28.793     8.800
    23   6 C        2.921    -0.039    28.973     8.827
    24   6 C        2.913    -0.032    28.804     8.801
    25   6 C        3.067    -0.016    28.337     8.729
    26   6 C        3.068    -0.014    28.301     8.723
    27   6 C        2.913    -0.032    28.791     8.799
    28   6 C        2.920    -0.040    28.995     8.830
    29   6 C        2.924    -0.033    28.818     8.804
    30   6 C        2.910    -0.051    29.262     8.870
    31   6 C        3.075     0.049    26.818     8.491
    32   6 C        2.913     0.042    27.068     8.531
    33   7 N        2.802    -0.039    21.999     6.966
    34   6 C        3.075     0.050    26.790     8.486
    35   6 C        2.910    -0.047    29.170     8.856
    36   6 C        2.925    -0.032    28.795     8.800
    37   6 C        2.921    -0.039    28.969     8.826
    38   6 C        2.913    -0.031    28.783     8.798
    39   6 C        3.069    -0.015    28.310     8.724
    40   6 C        3.069    -0.015    28.310     8.724
    41   6 C        2.913    -0.031    28.783     8.798
    42   6 C        2.921    -0.039    28.969     8.826
    43   6 C        2.925    -0.032    28.795     8.800
    44   6 C        2.910    -0.047    29.170     8.856
    45   6 C        3.075     0.050    26.790     8.486
    46   6 C        2.911     0.055    26.767     8.484
    47   7 N        2.802    -0.045    22.103     6.983
    48   6 C        3.075     0.049    26.818     8.491
    49   6 C        2.910    -0.051    29.262     8.870
    50   6 C        2.924    -0.033    28.818     8.804
    51   6 C        2.920    -0.040    28.995     8.830
    52   6 C        2.913    -0.032    28.791     8.799
    53   6 C        3.068    -0.014    28.301     8.723
    54   6 C        3.067    -0.016    28.337     8.729
    55   6 C        2.913    -0.032    28.804     8.801
    56   6 C        2.921    -0.039    28.973     8.827
    57   6 C        2.925    -0.032    28.793     8.800
    58   6 C        2.910    -0.048    29.189     8.859
    59   6 C        3.075     0.048    26.834     8.493
    60   6 C        2.926    -0.045    29.128     8.851
    61   7 N        1.845    -0.295    28.501     7.912
    62   6 C        2.924    -0.023    28.582     8.767
    63   6 C        2.918    -0.027    28.678     8.782
    64   1 H        0.926     0.038     2.480     2.462
    65   1 H        0.926     0.038     2.473     2.459
    66   1 H        0.926     0.055     2.254     2.348
    67   1 H        0.926     0.055     2.253     2.347
    68   1 H        0.926     0.038     2.480     2.462
    69   1 H        0.926     0.038     2.480     2.462
    70   1 H        0.926     0.038     2.473     2.459
    71   1 H        0.926     0.055     2.254     2.348
    72   1 H        0.926     0.071     2.071     2.250
    73   1 H        0.926     0.024     2.666     2.553
    74   1 H        0.926     0.030     2.588     2.516
    75   1 H        0.926     0.030     2.589     2.516
    76   1 H        0.926     0.032     2.553     2.498
    77   1 H        0.926     0.032     2.557     2.501
    78   1 H        0.926     0.029     2.600     2.522
    79   1 H        0.926     0.030     2.585     2.514
    80   1 H        0.926     0.028     2.609     2.526
    81   1 H        0.926     0.023     2.693     2.566
    82   1 H        0.926     0.030     2.581     2.512
    83   1 H        0.926     0.030     2.581     2.513
    84   1 H        0.926     0.033     2.544     2.494
    85   1 H        0.926     0.033     2.544     2.494
    86   1 H        0.926     0.030     2.581     2.513
    87   1 H        0.926     0.030     2.581     2.512
    88   1 H        0.926     0.023     2.694     2.566
    89   1 H        0.926     0.028     2.609     2.526
    90   1 H        0.926     0.030     2.585     2.514
    91   1 H        0.926     0.029     2.600     2.522
    92   1 H        0.926     0.032     2.557     2.501
    93   1 H        0.926     0.032     2.553     2.498
    94   1 H        0.926     0.030     2.589     2.516
    95   1 H        0.926     0.030     2.588     2.516
    96   1 H        0.926     0.024     2.666     2.553
    97   1 H        0.926     0.071     2.071     2.250
    98   1 H        0.926     0.055     2.253     2.347
    99   1 H        0.926     0.038     2.480     2.462

molecular dipole:
                 x           y           z       tot (Debye)
 q only:        0.690       0.000       0.001
   full:        0.832       0.000       0.001       2.114

 projected vibrational frequencies (cm⁻¹)
eigval :       -0.00    -0.00    -0.00     0.00     0.00     0.00
eigval :        7.40    12.78    15.73    19.46    21.74    21.87
eigval :       23.70    28.08    28.43    40.25    47.63    52.57
eigval :       55.83    60.69    69.40    91.78    92.13   104.41
eigval :      105.37   106.80   121.14   122.05   125.86   143.62
eigval :      151.08   152.79   169.81   179.58   182.06   185.78
eigval :      188.44   204.70   222.20   230.89   240.03   247.15
eigval :      261.39   268.46   274.82   275.33   279.40   297.99
eigval :      332.61   353.89   361.00   364.41   365.15   375.98
eigval :      386.44   400.07   400.79   403.79   407.32   415.48
eigval :      422.64   425.73   427.33   437.23   437.53   440.84
eigval :      443.86   481.20   496.38   509.15   510.16   518.83
eigval :      519.40   520.71   537.59   542.00   542.23   543.54
eigval :      545.00   546.16   556.62   576.45   587.26   587.33
eigval :      588.06   589.58   593.27   612.56   622.67   622.81
eigval :      626.95   636.92   647.60   648.67   653.87   671.37
eigval :      674.24   674.57   675.11   684.96   686.81   699.69
eigval :      705.92   708.40   708.46   730.19   750.95   754.09
eigval :      756.34   757.27   769.70   771.16   771.39   773.40
eigval :      775.91   782.56   782.58   783.65   796.09   847.40
eigval :      859.02   864.30   871.17   876.12   877.06   877.14
eigval :      877.90   878.36   879.97   881.74   891.27   896.12
eigval :      898.96   899.39   904.55   904.58   905.67   905.76
eigval :      906.94   907.66   910.71   911.99   923.81   924.14
eigval :      924.62   924.67   925.56   925.87   929.17   930.25
eigval :      931.22   934.25   934.40   958.16   990.47   998.38
eigval :     1011.36  1013.41  1014.55  1043.67  1050.27  1070.47
eigval :     1070.58  1072.55  1073.09  1074.52  1074.99  1075.78
eigval :     1076.41  1088.48  1103.12  1108.56  1112.40  1121.63
eigval :     1147.51  1149.79  1152.48  1153.29  1154.21  1166.21
eigval :     1174.20  1177.85  1179.28  1180.10  1180.93  1181.17
eigval :     1181.18  1181.89  1183.30  1186.38  1190.83  1203.82
eigval :     1209.03  1210.42  1232.14  1235.54  1235.97  1238.47
eigval :     1241.83  1254.14  1268.50  1269.96  1292.26  1296.99
eigval :     1300.23  1300.32  1301.76  1302.06  1309.54  1326.12
eigval :     1326.21  1329.58  1336.19  1357.88  1359.51  1360.55
eigval :     1361.78  1362.92  1363.92  1365.21  1373.00  1373.05
eigval :     1403.64  1416.35  1423.72  1428.50  1428.97  1430.24
eigval :     1432.10  1433.92  1436.86  1444.47  1467.95  1471.89
eigval :     1474.79  1476.67  1476.93  1478.73  1488.35  1488.49
eigval :     1489.32  1512.40  1517.60  1544.19  1564.88  1576.93
eigval :     1577.58  1579.31  1583.62  1585.64  1591.35  1591.79
eigval :     1593.78  1594.82  1595.56  1600.54  1600.80  1601.82
eigval :     1615.50  1615.63  1618.02  3075.47  3075.53  3075.64
eigval :     3075.66  3078.21  3078.61  3079.32  3079.33  3081.11
eigval :     3081.17  3081.79  3081.92  3083.15  3083.89  3085.28
eigval :     3085.39  3088.53  3088.58  3090.30  3090.64  3090.99
eigval :     3091.97  3093.23  3093.23  3096.30  3096.37  3097.09
eigval :     3098.77  3099.72  3099.87  3106.80  3106.99  3107.38
eigval :     3109.17  3116.95  3117.42

   temp. (K)  partition function   enthalpy   heat capacity  entropy
                                   cal/mol     cal/K/mol   cal/K/mol   J/K/mol
 298.15  VIB  0.126E+24            28636.051    179.978    178.576
         ROT  0.669E+08              888.752      2.981     38.790
         INT  0.844E+31            29524.803    182.959    217.366
         TR   0.221E+29             1481.254      4.968     45.914
         TOT                       31006.0568   187.9272   263.2800  1101.5634

       T/K    H(0)-H(T)+PV         H(T)/Eh          T*S/Eh         G(T)/Eh
   ------------------------------------------------------------------------
    298.15    0.494113E-01    0.801936E+00    0.125093E+00    0.676843E+00
   ------------------------------------------------------------------------

         :::::::::::::::::::::::::::::::::::::::::::::::::::::
         ::                  THERMODYNAMIC                  ::
         :::::::::::::::::::::::::::::::::::::::::::::::::::::
         :: total free energy        -157.419331643052 Eh   ::
         ::.................................................::
         :: total energy             -158.096174430702 Eh   ::
         :: zero point energy           0.752524299491 Eh   ::
         :: G(RRHO) w/o ZPVE           -0.075681511841 Eh   ::
         :: G(RRHO) contrib.            0.676842787650 Eh   ::
         :::::::::::::::::::::::::::::::::::::::::::::::::::::

           -------------------------------------------------
          | TOTAL ENERGY             -158.096174430702 Eh   |
          | TOTAL ENTHALPY           -157.294238834464 Eh   |
          | TOTAL FREE ENERGY        -157.419331643052 Eh   |
          | GRADIENT NORM               0.000029155351 Eh/α |
          | HOMO-LUMO GAP               1.959002556409 eV   |
           -------------------------------------------------

 * finished run on 2025/07/16 at 16:36:14.897
