   * xtb version 6.7.1 (edcfbbe) compiled by 'albert@albert-system' on 2024-07-22

   ID    Z sym.   atoms
    1    6 C      1-5, 7-13, 15-18, 20-32, 34-46, 48-60, 62, 63
    2    7 N      6, 14, 19, 33, 47, 61
    3    1 H      64-99

          program call               : xtb data2507/gas/TCzTrz/TCzTrz_gas_S0_finalOpt.xtbopt.xyz --gfn 2 --spinpol --tblite --uhf 2 --ohess vtight --parallel 40 --molden --ceasefiles --namespace data2507/gas/TCzTrz/TCzTrz_gas_T1_preOpt
 * total energy  :  -158.0173178 Eh     change        0.2352863E-08 Eh
 * total energy  :  -158.0204411 Eh     change       -0.3123264E-02 Eh
 * total energy  :  -158.0221217 Eh     change       -0.1680594E-02 Eh
 * total energy  :  -158.0223136 Eh     change       -0.1919850E-03 Eh
 * total energy  :  -158.0223747 Eh     change       -0.6104383E-04 Eh
 * total energy  :  -158.0224343 Eh     change       -0.5964832E-04 Eh
 * total energy  :  -158.0224482 Eh     change       -0.1384667E-04 Eh
 * total energy  :  -158.0224635 Eh     change       -0.1533512E-04 Eh
 * total energy  :  -158.0224794 Eh     change       -0.1585923E-04 Eh
 * total energy  :  -158.0224981 Eh     change       -0.1867420E-04 Eh
 * total energy  :  -158.0228063 Eh     change       -0.8339679E-06 Eh
 * total energy  :  -158.0228070 Eh     change       -0.7546128E-06 Eh
 * total energy  :  -158.0228078 Eh     change       -0.7365176E-06 Eh
 * total energy  :  -158.0228084 Eh     change       -0.6514645E-06 Eh
 * total energy  :  -158.0228092 Eh     change       -0.7446751E-06 Eh
 * total energy  :  -158.0228099 Eh     change       -0.7417630E-06 Eh
 * total energy  :  -158.0228106 Eh     change       -0.6541748E-06 Eh
 * total energy  :  -158.0228112 Eh     change       -0.6258496E-06 Eh
 * total energy  :  -158.0228112 Eh     change       -0.1607648E-07 Eh
   *** GEOMETRY OPTIMIZATION CONVERGED AFTER 68 ITERATIONS ***

 final structure:
================
99
 xtb: 6.7.1 (edcfbbe)
C            7.24628465093864       -4.79871181291789        0.40746934353183
C            5.85900922129689       -4.80645066775350        0.40418667470715
C            5.15873288514821       -3.62093597990466        0.31435274061747
C            5.84362612775302       -2.40813203531808        0.22631368446061
C            5.10903200025785       -1.15479405179870        0.11967498208909
N            5.81169035825454       -0.00937454004905       -0.00215086211978
C            5.11267665153297        1.13823885347040       -0.12346035944374
C            5.85133983687042        2.38917871013668       -0.23074279030774
C            7.24638960096809        2.38327838150363       -0.23608537171179
C            7.94392100463279        3.57127883220541       -0.32706078061327
C            7.26169408538441        4.77511447391823       -0.41309355611349
C            5.87445890380178        4.78741778827537       -0.40869400657784
C            5.17036466337936        3.60420606517061       -0.31826844109769
N            3.80810352743821        1.16268664402433       -0.14335658870754
C            3.13103550792079       -0.00501228215698       -0.00107828285314
C            1.71383109544816       -0.00271548103417       -0.00045306447880
C            0.99378253537482        1.18002712704954       -0.26557882944259
C           -0.38235722085056        1.18294606341797       -0.27398801899388
N           -1.07979241378482        2.37169694355501       -0.55250569234781
C           -2.12463133884893        2.50669706287210       -1.44275162118404
C           -2.54047736983463        1.64351511337111       -2.44609812416501
C           -3.63490198709854        2.01488839498207       -3.20265710907893
C           -4.28431096253407        3.22800120584864       -2.99006366440221
C           -3.83551865624816        4.11875830137759       -2.03287534802059
C           -2.74246570786548        3.76401669956773       -1.25652541887687
C           -2.00812033678049        4.42583046856932       -0.21297747718353
C           -2.13175675220328        5.65955356511402        0.40851580967337
C           -1.24095777947031        5.98701157066758        1.41343197851536
C           -0.24318701451056        5.09800382436763        1.80615783154316
C           -0.10195907301304        3.86176385120748        1.20495324447908
C           -0.98540107184936        3.53396051145280        0.18561822048173
C           -1.10675842937717        0.00188599160885        0.00077352387974
N           -2.50915835276177        0.00417490597666        0.00139605208825
C           -3.31415482664020        0.80891210595483        0.77965946673133
C           -2.95971575636520        1.72994063145281        1.75548989803008
C           -3.97410893067252        2.41694318302588        2.39268529181948
C           -5.31207121866162        2.17825251552405        2.08980656272866
C           -5.67183230482944        1.22511677451887        1.15564128157078
C           -4.67007653459730        0.52870238971916        0.49666124359112
C           -4.67220635508266       -0.51330136927997       -0.49198907995124
C           -5.67679834496148       -1.20643745160094       -1.15010623565292
C           -5.32095808320022       -2.16072443308827       -2.08459777435014
C           -3.98404431797387       -2.40376873030157       -2.38864513512800
C           -2.96686427635428       -1.72009243409449       -1.75231690802805
C           -3.31745075327196       -0.79792873566557       -0.77616573362514
C           -0.38597453132889       -1.18152376208430        0.27490568486047
N           -1.08703118430348       -2.36801368430809        0.55402401961710
C           -0.99706246110932       -3.53056803803048       -0.18421350824589
C           -0.11560596660892       -3.86118938788678       -1.20434897983518
C           -0.26136262533256       -5.09695403601107       -1.80544995524842
C           -1.26164169519404       -5.98275140828473       -1.41183753290648
C           -2.15046344009882       -5.65244817410097       -0.40611464376137
C           -2.02229469875490       -4.41912981889176        0.21529146540074
C           -2.75356945928608       -3.75496627459235        1.25949036307574
C           -3.84709439715277       -4.10618237808159        2.03679958244236
C           -4.29217178198701       -3.21399370362235        2.99437433625666
C           -3.63866244229057       -2.00298023396321        3.20640622652929
C           -2.54370382001058       -1.63513744771252        2.44889722831934
C           -2.13152217155848       -2.49965249239624        1.44519338572936
C            0.99015260341357       -1.18310615542450        0.26530580199523
N            3.80441166462191       -1.17482016453323        0.14059816848193
C            7.23870475693997       -2.40682994680231        0.23053900966729
C            7.93239479119839       -3.59711874395764        0.32091787941165
H            7.79149076888923       -5.72855001667506        0.47682023922431
H            5.32520065309054       -5.74329352485360        0.47106671615328
H            4.07966632037963       -3.61110492503924        0.30839772968068
H            7.76336825777301        1.43848606931840       -0.16771596320363
H            9.02418403434601        3.56248943767009       -0.33040571800226
H            7.80989821935763        5.70315196643885       -0.48290762843032
H            5.34367747737516        5.72600374971916       -0.47520602050837
H            4.09127941707969        3.59790801515319       -0.31146665002476
H            1.54025719423268        2.07935782775672       -0.49941077351237
H           -2.02196690375824        0.71737694320938       -2.63917058367862
H           -3.98937715267219        1.35080302446346       -3.97669630400359
H           -5.14027377250360        3.48133466238913       -3.59742851981909
H           -4.32147751774933        5.07216638128140       -1.89139461283744
H           -2.91090331826390        6.34542271853334        0.11249978991338
H           -1.31882929774957        6.94394737660166        1.90760586160708
H            0.43375161018496        5.37962821383035        2.59908592781488
H            0.66689474933373        3.17331297864600        1.52240545817565
H           -1.92775989424604        1.90290316522874        2.02062365809347
H           -3.72149129889807        3.15051779119759        3.14371439972267
H           -6.07751336466087        2.73785032256819        2.60635942871468
H           -6.71030676477898        1.02236538364485        0.94211997433282
H           -6.71442077547702       -1.00031153830498       -0.93567497720530
H           -6.08866768653594       -2.71782859832138       -2.60048047224989
H           -3.73446990969012       -3.13816464048086       -3.13988865319586
H           -1.93570899473777       -1.89641433918319       -2.01834851559266
H            0.65516864712816       -3.17521001831156       -1.52249224727164
H            0.41393411104132       -5.38073320009178       -2.59900915923610
H           -1.34303319422697       -6.93942503949373       -1.90595006283923
H           -2.93153757801713       -6.33581219806234       -0.10938817625355
H           -4.33623276787601       -5.05802606054739        1.89574827266227
H           -5.14840885801392       -3.46456953740577        3.60249506987427
H           -3.99032490759079       -1.33775630169007        3.98075019227225
H           -2.02205361866505       -0.71066850004408        2.64150826887067
H            1.53388067345611       -2.08422723978680        0.49864998854327
H            7.75873485895260       -1.46373892669644        0.16179815972245
H            9.01268419281930       -3.59188322615760        0.32342544459657

 projected vibrational frequencies (cm⁻¹)
eigval :       -0.00    -0.00    -0.00    -0.00     0.00     0.00
eigval :        9.60    11.93    14.09    18.71    20.51    21.33
eigval :       26.53    27.11    29.71    39.14    46.68    49.85
eigval :       53.54    59.78    69.12    93.74   101.40   103.46
eigval :      104.94   107.55   118.42   121.30   122.56   140.66
eigval :      148.12   151.28   168.73   177.05   179.12   179.46
eigval :      199.73   213.85   217.50   229.27   231.94   247.65
eigval :      252.94   265.22   271.94   273.06   277.90   293.24
eigval :      314.53   354.62   355.32   366.08   366.92   369.15
eigval :      371.97   388.33   398.23   399.63   405.04   409.55
eigval :      410.90   419.12   423.59   425.46   435.69   436.22
eigval :      436.43   457.61   486.89   498.64   500.57   516.57
eigval :      517.46   518.01   536.09   539.16   539.47   540.99
eigval :      541.57   546.12   546.25   552.65   559.97   567.36
eigval :      586.63   587.09   588.25   588.34   589.45   603.46
eigval :      607.70   621.61   629.41   639.65   644.06   655.49
eigval :      662.91   669.93   671.97   674.07   675.38   679.62
eigval :      682.72   703.18   707.33   708.00   710.44   749.47
eigval :      754.91   756.45   762.13   763.77   767.77   769.18
eigval :      769.89   771.49   779.94   780.19   781.38   800.03
eigval :      821.50   831.65   837.92   860.79   870.21   872.23
eigval :      873.66   874.67   875.44   876.39   877.67   877.83
eigval :      893.72   895.04   897.78   900.79   902.24   903.34
eigval :      903.67   904.18   904.57   905.39   906.05   920.95
eigval :      922.02   922.22   922.68   922.83   924.04   924.30
eigval :      926.27   927.27   929.79   929.93   940.09   976.06
eigval :      984.39   987.04  1010.06  1011.87  1012.81  1040.39
eigval :     1062.48  1067.81  1068.28  1069.98  1071.17  1071.19
eigval :     1073.57  1073.66  1076.03  1095.94  1109.27  1109.94
eigval :     1119.76  1135.00  1143.87  1146.67  1146.76  1149.71
eigval :     1156.56  1172.60  1176.70  1176.90  1179.33  1179.35
eigval :     1179.44  1179.85  1180.28  1181.92  1181.98  1183.18
eigval :     1189.95  1199.00  1228.57  1232.27  1233.26  1236.09
eigval :     1237.70  1238.95  1258.42  1267.68  1273.74  1282.43
eigval :     1289.50  1292.46  1293.56  1295.68  1296.59  1297.68
eigval :     1306.16  1328.11  1330.66  1331.61  1338.68  1349.25
eigval :     1351.13  1352.18  1354.90  1360.92  1362.36  1364.13
eigval :     1399.26  1401.31  1415.92  1418.64  1419.90  1421.49
eigval :     1422.85  1430.87  1433.10  1434.95  1440.60  1450.73
eigval :     1464.43  1465.60  1467.50  1468.68  1477.75  1478.42
eigval :     1486.41  1486.52  1487.69  1496.63  1537.35  1569.14
eigval :     1569.95  1570.61  1574.17  1574.89  1582.99  1584.86
eigval :     1586.92  1587.03  1587.70  1588.72  1588.78  1593.99
eigval :     1602.57  1606.11  1610.38  3074.15  3074.28  3078.67
eigval :     3078.71  3078.90  3079.08  3079.45  3079.64  3080.74
eigval :     3080.76  3083.51  3083.70  3084.59  3085.35  3087.09
eigval :     3087.12  3089.39  3089.73  3090.77  3090.91  3091.64
eigval :     3092.99  3095.16  3095.22  3097.35  3097.61  3098.01
eigval :     3098.47  3098.77  3099.77  3100.25  3100.94  3101.09
eigval :     3101.40  3112.48  3113.61

   temp. (K)  partition function   enthalpy   heat capacity  entropy
                                   cal/mol     cal/K/mol   cal/K/mol   J/K/mol
 298.15  VIB  0.187E+24            29019.209    182.517    180.495
         ROT  0.672E+08              888.752      2.981     38.799
         INT  0.126E+32            29907.962    185.498    219.294
         TR   0.221E+29             1481.254      4.968     45.914
         TOT                       31389.2157   190.4661   265.2082  1109.6311

       T/K    H(0)-H(T)+PV         H(T)/Eh          T*S/Eh         G(T)/Eh
   ------------------------------------------------------------------------
    298.15    0.500219E-01    0.797184E+00    0.126009E+00    0.671175E+00
   ------------------------------------------------------------------------

         :::::::::::::::::::::::::::::::::::::::::::::::::::::
         ::                  THERMODYNAMIC                  ::
         :::::::::::::::::::::::::::::::::::::::::::::::::::::
         :: total free energy        -157.351636049236 Eh   ::
         ::.................................................::
         :: total energy             -158.022811221203 Eh   ::
         :: zero point energy           0.747162249953 Eh   ::
         :: G(RRHO) w/o ZPVE           -0.075987077986 Eh   ::
         :: G(RRHO) contrib.            0.671175171967 Eh   ::
         :::::::::::::::::::::::::::::::::::::::::::::::::::::

           -------------------------------------------------
          | TOTAL ENERGY             -158.022811221203 Eh   |
          | TOTAL ENTHALPY           -157.225627072031 Eh   |
          | TOTAL FREE ENERGY        -157.351636049236 Eh   |
          | GRADIENT NORM               0.000081968828 Eh/α |
           -------------------------------------------------

 * finished run on 2025/07/16 at 16:43:12.914
