   * xtb version 6.7.1 (edcfbbe) compiled by 'albert@albert-system' on 2024-07-22

   ID    Z sym.   atoms
    1    6 C      1-26, 28-37
    2    7 N      27
    3    1 H      38-62

          program call               : xtb data2507/gas/DMF-AnCN/DMF-AnCN_gas_S0_finalOpt.xtbopt.xyz --gfn 2 --spinpol --tblite --uhf 2 --ohess vtight --parallel 40 --molden --ceasefiles --namespace data2507/gas/DMF-AnCN/DMF-AnCN_gas_T1_preOpt
 * total energy  :   -92.6752542 Eh     change        0.6101590E-07 Eh
 * total energy  :   -92.6814262 Eh     change       -0.6172031E-02 Eh
 * total energy  :   -92.6828876 Eh     change       -0.1461325E-02 Eh
 * total energy  :   -92.6830342 Eh     change       -0.1466262E-03 Eh
 * total energy  :   -92.6832054 Eh     change       -0.1711784E-03 Eh
 * total energy  :   -92.6833111 Eh     change       -0.1057151E-03 Eh
 * total energy  :   -92.6834341 Eh     change       -0.1229970E-03 Eh
 * total energy  :   -92.6835802 Eh     change       -0.1461252E-03 Eh
 * total energy  :   -92.6837036 Eh     change       -0.1234093E-03 Eh
 * total energy  :   -92.6838044 Eh     change       -0.1008163E-03 Eh
 * total energy  :   -92.6847436 Eh     change       -0.6131233E-06 Eh
 * total energy  :   -92.6847443 Eh     change       -0.7472662E-06 Eh
 * total energy  :   -92.6847451 Eh     change       -0.7898321E-06 Eh
 * total energy  :   -92.6847459 Eh     change       -0.7494310E-06 Eh
 * total energy  :   -92.6847465 Eh     change       -0.6658384E-06 Eh
 * total energy  :   -92.6847471 Eh     change       -0.5873928E-06 Eh
 * total energy  :   -92.6847477 Eh     change       -0.6036293E-06 Eh
 * total energy  :   -92.6847484 Eh     change       -0.6612501E-06 Eh
 * total energy  :   -92.6847484 Eh     change       -0.2771726E-07 Eh
   *** GEOMETRY OPTIMIZATION CONVERGED AFTER 68 ITERATIONS ***

 final structure:
================
62
 xtb: 6.7.1 (edcfbbe)
C           -4.55718642414973       -2.46984463382374       -1.04922461256798
C           -4.65672622518295       -0.94815784091516       -1.19291780753238
C           -4.57308228492267       -0.54206946891475       -2.66759663291779
C           -5.91935988411481       -0.41644881424485       -0.55230491170763
C           -7.23134020038129       -0.69800096941435       -0.86408406303263
C           -8.24035102045660       -0.08353703412406       -0.13353262395676
C           -7.93813324380039        0.79883382904579        0.89263608855301
C           -6.62243556039545        1.08801957180671        1.21352205378829
C           -5.61272414316734        0.47624642889975        0.48699858509111
C           -4.17034331419663        0.57841785278646        0.59477730880375
C           -3.36639621541087        1.31846417881438        1.44991690280229
C           -1.99458221780120        1.22564897422898        1.32457769295588
C           -1.40187315679298        0.38979800119369        0.36888808461285
C            0.04857058285069        0.28676993695019        0.26933614373417
C            0.67691236644622       -0.99637242609279        0.34915116815527
C           -0.05433366825402       -2.15827619108049        0.60917551384668
C            0.54684632037720       -3.41433058554496        0.59740328363149
C            1.89179794784771       -3.52817093324362        0.32026161282873
C            2.65652120076732       -2.38064785842393        0.12468219576254
C            2.09001818597640       -1.10551723744047        0.19202010374214
C            2.88583106787466        0.07964693717779        0.08033660149291
C            4.33522031010687       -0.02734644243654       -0.01087810284395
C            5.03602010723675        0.56668775000505       -1.06994922031807
C            6.40448147515831        0.45904971451471       -1.16467223770804
C            7.12084784646101       -0.23675901369901       -0.18542698942877
C            8.52341286075051       -0.34330133843946       -0.27393329613597
N            9.66578742325506       -0.43066462137100       -0.34626608085536
C            6.43612680666313       -0.82690906568845        0.88193300042869
C            5.06591413099973       -0.72865596865011        0.95871161154168
C            2.26193891860742        1.36817004470751        0.05896604925171
C            3.00962571713428        2.54785974136889        0.03440646834646
C            2.39838018519898        3.79474752897864       -0.07389128582168
C            1.02626258329076        3.87796996540451       -0.16872108294180
C            0.25455305093398        2.72181874107880       -0.08413719649580
C            0.83958161359240        1.46533739510450        0.09108495518899
C           -2.22527156628767       -0.35735074764240       -0.48756067119643
C           -3.58936769855739       -0.25398792939724       -0.37677490528983
H           -4.62207003361401       -2.75372850705055       -0.00070930371695
H           -3.61015843737848       -2.82572136130662       -1.44877578466283
H           -5.36690053367645       -2.95412052944743       -1.58985809334373
H           -4.64268377490466        0.53947088676546       -2.76424096647006
H           -3.62883213808810       -0.86938129431311       -3.09661910871252
H           -5.38680099002089       -0.99370018223040       -3.23010106893247
H           -7.47939697618114       -1.38345196708221       -1.66154337822993
H           -9.27333962905783       -0.29542821697770       -0.36776966112185
H           -8.73941808450735        1.26491867006386        1.44743395676462
H           -6.38887719089601        1.77485224560226        2.01348979178463
H           -3.80315122219695        1.95313869230300        2.20667300504919
H           -1.35537837628478        1.77510398263770        2.00076336428753
H           -1.10793445160429       -2.08410047465092        0.83034736908887
H           -0.05045093824817       -4.29258812450851        0.79179974718202
H            2.36314710217233       -4.49797428167780        0.26758361093321
H            3.70905382836969       -2.48610906004798       -0.08921562408658
H            4.48331133494681        1.08497668168488       -1.84002790623435
H            6.93383726885224        0.90487378865307       -1.99424434279501
H            6.99197086658372       -1.35450688647795        1.64338851283287
H            4.54183992746524       -1.16659098294042        1.79577606038716
H            4.08531764476608        2.49938211286086        0.10667082323099
H            3.00696092779541        4.68612037504216       -0.09680034881119
H            0.54101503616442        4.83442218972738       -0.29303593448546
H           -0.81895139214022        2.80088991798643       -0.16041942435150
H           -1.77181845282359       -0.97848580787630       -1.24673328938113

 projected vibrational frequencies (cm⁻¹)
eigval :       -0.00    -0.00    -0.00    -0.00     0.00     0.00
eigval :       10.84    21.23    25.33    38.86    45.07    61.76
eigval :       76.06    78.28   106.52   113.20   125.90   128.22
eigval :      131.20   143.65   144.56   166.06   182.03   198.64
eigval :      216.41   219.04   229.24   247.05   261.44   263.84
eigval :      280.28   311.16   322.37   334.66   339.26   365.28
eigval :      367.87   387.71   395.30   400.65   418.17   428.29
eigval :      443.41   459.19   465.48   471.44   509.79   517.11
eigval :      532.57   536.21   541.44   550.44   557.29   570.55
eigval :      572.63   584.50   595.92   599.05   622.30   637.84
eigval :      642.06   673.89   687.68   690.32   696.24   715.81
eigval :      723.59   726.00   749.28   762.05   762.80   777.76
eigval :      781.69   815.73   819.79   831.49   847.84   852.47
eigval :      869.27   878.17   887.62   892.46   894.32   903.32
eigval :      907.16   909.78   910.57   922.96   924.82   925.89
eigval :      927.12   934.58   945.05   949.36   966.41   975.11
eigval :      992.62  1012.75  1014.85  1069.83  1077.99  1102.26
eigval :     1105.42  1111.55  1115.33  1125.22  1134.89  1151.41
eigval :     1158.26  1175.11  1179.43  1181.12  1182.35  1182.99
eigval :     1186.19  1190.30  1225.61  1228.54  1233.50  1239.55
eigval :     1249.08  1255.09  1261.81  1268.42  1272.09  1284.40
eigval :     1298.83  1303.40  1310.26  1324.31  1336.77  1356.68
eigval :     1363.51  1370.52  1378.63  1395.47  1402.09  1408.75
eigval :     1410.47  1424.92  1425.96  1431.93  1448.92  1464.24
eigval :     1470.03  1477.46  1486.66  1488.41  1489.91  1496.99
eigval :     1501.15  1516.56  1521.27  1530.95  1554.50  1556.60
eigval :     1568.81  1582.77  1591.17  1605.42  2356.63  3027.78
eigval :     3029.96  3032.38  3032.86  3038.34  3039.81  3071.41
eigval :     3074.19  3074.94  3075.76  3078.23  3079.02  3079.41
eigval :     3079.90  3083.31  3086.83  3087.31  3087.66  3090.14
eigval :     3090.46  3091.67  3096.17  3096.68  3099.79  3100.46

   temp. (K)  partition function   enthalpy   heat capacity  entropy
                                   cal/mol     cal/K/mol   cal/K/mol   J/K/mol
 298.15  VIB  0.261E+13            17286.615    112.017    105.545
         ROT  0.364E+08              888.752      2.981     37.579
         INT  0.951E+20            18175.368    114.998    143.124
         TR   0.991E+28             1481.254      4.968     44.321
         TOT                       19656.6214   119.9662   187.4445   784.2677

       T/K    H(0)-H(T)+PV         H(T)/Eh          T*S/Eh         G(T)/Eh
   ------------------------------------------------------------------------
    298.15    0.313248E-01    0.511737E+00    0.890609E-01    0.422676E+00
   ------------------------------------------------------------------------

         :::::::::::::::::::::::::::::::::::::::::::::::::::::
         ::                  THERMODYNAMIC                  ::
         :::::::::::::::::::::::::::::::::::::::::::::::::::::
         :: total free energy         -92.262072741843 Eh   ::
         ::.................................................::
         :: total energy              -92.684748424428 Eh   ::
         :: zero point energy           0.480411788352 Eh   ::
         :: G(RRHO) w/o ZPVE           -0.057736105767 Eh   ::
         :: G(RRHO) contrib.            0.422675682585 Eh   ::
         :::::::::::::::::::::::::::::::::::::::::::::::::::::

           -------------------------------------------------
          | TOTAL ENERGY              -92.684748424428 Eh   |
          | TOTAL ENTHALPY            -92.173011815896 Eh   |
          | TOTAL FREE ENERGY         -92.262072741843 Eh   |
          | GRADIENT NORM               0.000091022710 Eh/α |
           -------------------------------------------------

 * finished run on 2025/09/12 at 05:24:09.713
