   * xtb version 6.7.1 (edcfbbe) compiled by 'albert@albert-system' on 2024-07-22

   ID    Z sym.   atoms
    1    6 C      1-26, 28-37
    2    7 N      27
    3    1 H      38-62

          program call               : xtb data2507/gas/DMF-AnCN/DMF-AnCN_gas_S0_crest.xyz --gfn 2 --ohess vtight --parallel 40 --molden --ceasefiles --namespace data2507/gas/DMF-AnCN/DMF-AnCN_gas_S0_finalOpt
          :  Hamiltonian                  GFN2-xTB          :
 * total energy  :   -92.7466950 Eh     change       -0.1274984E-08 Eh
 * total energy  :   -92.7466961 Eh     change       -0.1122506E-05 Eh
 * total energy  :   -92.7466948 Eh     change        0.1275569E-05 Eh
 * total energy  :   -92.7466994 Eh     change       -0.4627407E-05 Eh
 * total energy  :   -92.7467003 Eh     change       -0.8815082E-06 Eh
 * total energy  :   -92.7467015 Eh     change       -0.1200550E-05 Eh
 * total energy  :   -92.7467025 Eh     change       -0.9662711E-06 Eh
 * total energy  :   -92.7467032 Eh     change       -0.7117999E-06 Eh
 * total energy  :   -92.7467039 Eh     change       -0.6602464E-06 Eh
 * total energy  :   -92.7467046 Eh     change       -0.7230054E-06 Eh
 * total energy  :   -92.7467069 Eh     change       -0.4200205E-06 Eh
 * total energy  :   -92.7467074 Eh     change       -0.5382311E-06 Eh
 * total energy  :   -92.7467079 Eh     change       -0.5082355E-06 Eh
 * total energy  :   -92.7467084 Eh     change       -0.4259507E-06 Eh
 * total energy  :   -92.7467086 Eh     change       -0.2516172E-06 Eh
 * total energy  :   -92.7467088 Eh     change       -0.1640575E-06 Eh
 * total energy  :   -92.7467089 Eh     change       -0.1239725E-06 Eh
 * total energy  :   -92.7467089 Eh     change        0.1741896E-08 Eh
 * total energy  :   -92.7467090 Eh     change       -0.4979265E-07 Eh
   *** GEOMETRY OPTIMIZATION CONVERGED AFTER 23 ITERATIONS ***

 final structure:
================
62
 xtb: 6.7.1 (edcfbbe)
C           -4.56525722941485       -2.27716718289716       -1.43799044841182
C           -4.65670812282688       -0.75208357145843       -1.32579785499761
C           -4.56830214995669       -0.10607475218791       -2.71166700860068
C           -5.91815136264714       -0.33152297376569       -0.60508581807072
C           -7.23118036397052       -0.54248780531628       -0.96606107522543
C           -8.23840986971629       -0.06003295194099       -0.14072438943377
C           -7.93374179262436        0.62202219531153        1.02695003642630
C           -6.61649314636469        0.83803023929874        1.39779016183361
C           -5.60977370667923        0.35821025200741        0.57660931314058
C           -4.16347551464078        0.43129216250179        0.70268568287103
C           -3.36213668171177        0.99802345900419        1.68007175213192
C           -1.98725271861696        0.91894521308911        1.54253385819918
C           -1.40834462909410        0.28002324299635        0.44820445865905
C            0.06166976081718        0.20058131064922        0.32666467353721
C            0.70390377921603       -1.04117389208101        0.44054661416681
C           -0.01942104103512       -2.23455220310736        0.70273903280013
C            0.60972526830405       -3.43827496011993        0.78469362897781
C            2.00449839786437       -3.52441757883057        0.60453490160119
C            2.73801251422016       -2.40117559429696        0.37677273746334
C            2.12517193765067       -1.12203565845709        0.30915400382353
C            2.87177138665771        0.04637755102300        0.09968155986521
C            4.34194978480918       -0.03335362959593       -0.01596553175660
C            4.96987744846452        0.23384047175241       -1.23140938784589
C            6.34285118364638        0.16095248233145       -1.34549710673114
C            7.11304866657594       -0.17938213225272       -0.23231229585098
C            8.51982292220865       -0.25250819543449       -0.34201447472238
N            9.66153866824066       -0.31158915907788       -0.43113799230223
C            6.49305978860732       -0.44709505040306        0.98921755114858
C            5.11893700922128       -0.37529867854496        1.08959411892233
C            2.23250667606655        1.29049574538695       -0.00056952148065
C            2.96134995013522        2.49615861519809       -0.17802103480784
C            2.32647477655992        3.69351564346643       -0.29995772057967
C            0.91971575246688        3.76010331290152       -0.25699560406429
C            0.18541010321392        2.63134782005699       -0.06173741797928
C            0.80823142718707        1.36536293443582        0.09685842626613
C           -2.22029805939525       -0.29097551196019       -0.53308022211175
C           -3.58779258844759       -0.21186572821578       -0.40294264446335
H           -4.63415548029952       -2.73140695343074       -0.45154487802626
H           -3.61893760956332       -2.56683829550915       -1.88928747593557
H           -5.37625178609039       -2.65995831744201       -2.05304391718571
H           -4.63321802433592        0.97672384815247       -2.62647163451594
H           -3.62451210348643       -0.36134765627466       -3.18807631051234
H           -5.38259331295526       -0.45385145951811       -3.34298274338131
H           -7.48080483516079       -1.07269150318727       -1.87381569438825
H           -9.27205689923393       -0.21804042291436       -0.41202340140335
H           -8.73343187831672        0.98876023727805        1.65400980102234
H           -6.38121521011320        1.36952550789878        2.30802981426308
H           -3.79799044072718        1.49246708193079        2.53542265943137
H           -1.34332112477284        1.34911377576116        2.29651167774457
H           -1.08835908701737       -2.16891116351588        0.84020501891145
H            0.04539498116712       -4.33716927504208        0.98482488756814
H            2.48635643642863       -4.48985180063563        0.65314102936632
H            3.80700952207060       -2.47144961409817        0.23942883903059
H            4.36867603242695        0.49400641010622       -2.09048468915110
H            6.82848925666091        0.36497163867435       -2.28856386293887
H            7.09478366505206       -0.70822854799767        1.84744551322656
H            4.63404565146341       -0.57813291736675        2.03344537030311
H            4.03986884821323        2.44963896576913       -0.21185317577614
H            2.89595348211101        4.60132236488280       -0.43476358421974
H            0.43116280211678        4.71587780553874       -0.37634654734054
H           -0.89255146552519        2.68220907130821       -0.02676476183773
H           -1.76365200440318       -0.77970240983757       -1.38214368675235

          :  Hamiltonian                  GFN2-xTB          :
         :: gradient norm              0.000072680822 Eh/a0 ::
         :: HOMO-LUMO gap              2.066476227825 eV    ::
         :: SCC energy               -94.559149926536 Eh    ::
         :: -> dispersion             -0.085685747215 Eh    ::
         :: repulsion energy           1.812440974226 Eh    ::

    * Orbital Energies and Occupations

         #    Occupation            Energy/Eh            Energy/eV
      -------------------------------------------------------------
         1        2.0000           -0.6695129             -18.2184
       ...           ...                  ...                  ...
        75        2.0000           -0.4246162             -11.5544
        76        2.0000           -0.4198469             -11.4246
        77        2.0000           -0.4191201             -11.4048
        78        2.0000           -0.4165646             -11.3353
        79        2.0000           -0.4151444             -11.2967
        80        2.0000           -0.4120920             -11.2136
        81        2.0000           -0.4102475             -11.1634
        82        2.0000           -0.4082417             -11.1088
        83        2.0000           -0.4048995             -11.0179
        84        2.0000           -0.4037846             -10.9875
        85        2.0000           -0.3986814             -10.8487
        86        2.0000           -0.3797859             -10.3345
        87        2.0000           -0.3636083              -9.8943 (HOMO)
        88                         -0.2876667              -7.8278 (LUMO)
        89                         -0.2696971              -7.3388
        90                         -0.2518236              -6.8525
        91                         -0.2432763              -6.6199
        92                         -0.2365642              -6.4372
        93                         -0.2266081              -6.1663
        94                         -0.2246138              -6.1121
        95                         -0.2204543              -5.9989
        96                         -0.2044007              -5.5620
        97                         -0.1949449              -5.3047
        98                         -0.1846743              -5.0252
       ...                                ...                  ...
       173                          1.1726779              31.9102
      -------------------------------------------------------------
                  HL-Gap            0.0759416 Eh            2.0665 eV

     #   Z          covCN         q      C6AA      α(0)
     1   6 C        3.758    -0.097    22.409     6.749
     2   6 C        3.936     0.019    20.194     6.386
     3   6 C        3.758    -0.098    22.418     6.750
     4   6 C        3.056    -0.002    28.018     8.681
     5   6 C        2.915    -0.034    28.836     8.806
     6   6 C        2.922    -0.033    28.817     8.803
     7   6 C        2.921    -0.033    28.821     8.804
     8   6 C        2.914    -0.034    28.850     8.808
     9   6 C        3.037    -0.000    28.004     8.680
    10   6 C        3.037    -0.002    28.042     8.686
    11   6 C        2.913    -0.035    28.877     8.812
    12   6 C        2.925    -0.036    28.907     8.817
    13   6 C        2.979     0.010    27.778     8.645
    14   6 C        2.978    -0.003    28.094     8.694
    15   6 C        2.984     0.006    27.870     8.660
    16   6 C        2.917    -0.034    28.838     8.806
    17   6 C        2.914    -0.030    28.750     8.793
    18   6 C        2.914    -0.029    28.726     8.789
    19   6 C        2.917    -0.035    28.882     8.813
    20   6 C        2.983     0.007    27.864     8.659
    21   6 C        2.977    -0.010    28.267     8.721
    22   6 C        2.977     0.025    27.437     8.592
    23   6 C        2.923    -0.029    28.727     8.789
    24   6 C        2.925    -0.021    28.532     8.760
    25   6 C        2.974     0.016    27.643     8.624
    26   6 C        1.912     0.111    28.356     8.600
    27   7 N        0.911    -0.237    26.192     7.402
    28   6 C        2.925    -0.021    28.530     8.759
    29   6 C        2.923    -0.029    28.726     8.789
    30   6 C        2.983     0.007    27.862     8.658
    31   6 C        2.917    -0.035    28.883     8.813
    32   6 C        2.914    -0.029    28.722     8.788
    33   6 C        2.914    -0.030    28.744     8.792
    34   6 C        2.918    -0.033    28.834     8.805
    35   6 C        2.984     0.007    27.868     8.659
    36   6 C        2.919    -0.037    28.922     8.819
    37   6 C        3.054    -0.002    28.024     8.682
    38   1 H        0.925     0.035     2.515     2.480
    39   1 H        0.925     0.040     2.447     2.446
    40   1 H        0.925     0.041     2.440     2.443
    41   1 H        0.925     0.036     2.508     2.476
    42   1 H        0.925     0.040     2.447     2.446
    43   1 H        0.925     0.041     2.439     2.442
    44   1 H        0.926     0.027     2.629     2.535
    45   1 H        0.926     0.029     2.602     2.523
    46   1 H        0.926     0.029     2.604     2.524
    47   1 H        0.926     0.029     2.595     2.519
    48   1 H        0.926     0.031     2.572     2.508
    49   1 H        0.926     0.029     2.599     2.521
    50   1 H        0.926     0.035     2.521     2.483
    51   1 H        0.926     0.030     2.585     2.514
    52   1 H        0.926     0.030     2.585     2.514
    53   1 H        0.926     0.028     2.612     2.528
    54   1 H        0.926     0.039     2.462     2.454
    55   1 H        0.926     0.041     2.433     2.439
    56   1 H        0.926     0.041     2.432     2.439
    57   1 H        0.926     0.039     2.460     2.452
    58   1 H        0.926     0.028     2.611     2.527
    59   1 H        0.926     0.030     2.582     2.513
    60   1 H        0.926     0.030     2.580     2.512
    61   1 H        0.926     0.035     2.522     2.484
    62   1 H        0.926     0.028     2.620     2.531

molecular dipole:
                 x           y           z       tot (Debye)
 q only:       -1.646      -0.060      -0.136
   full:       -2.072      -0.031      -0.087       5.271

 projected vibrational frequencies (cm⁻¹)
eigval :       -0.00     0.00     0.00     0.00     0.00     0.00
eigval :       13.97    17.98    21.25    38.97    39.72    52.86
eigval :       72.62    74.79   103.12   108.31   120.03   120.95
eigval :      133.02   135.93   145.38   162.40   184.61   197.75
eigval :      212.85   214.91   217.26   244.93   258.39   263.74
eigval :      271.91   310.88   320.07   336.29   341.48   363.52
eigval :      385.39   395.98   397.34   423.80   431.50   447.42
eigval :      452.36   458.75   461.57   466.60   511.34   518.34
eigval :      534.15   536.07   543.80   554.15   562.88   571.87
eigval :      583.73   587.56   601.14   610.81   637.07   642.15
eigval :      649.07   687.59   693.19   694.35   698.44   722.78
eigval :      726.43   741.53   765.80   774.86   776.10   779.38
eigval :      786.25   815.41   823.90   830.97   870.70   874.38
eigval :      876.66   879.61   890.60   899.04   910.55   915.40
eigval :      916.97   920.14   921.63   925.38   927.88   928.23
eigval :      928.84   930.96   932.83   948.55   966.65   974.46
eigval :      996.32  1013.20  1020.93  1071.48  1078.67  1082.49
eigval :     1083.23  1112.51  1132.15  1135.10  1140.13  1153.69
eigval :     1160.22  1175.35  1181.74  1183.34  1184.62  1186.71
eigval :     1199.92  1207.79  1226.50  1229.84  1232.69  1243.17
eigval :     1256.79  1260.47  1263.14  1267.43  1272.53  1288.93
eigval :     1308.61  1321.41  1330.10  1349.97  1360.56  1375.48
eigval :     1384.96  1393.27  1395.99  1411.65  1417.34  1425.53
eigval :     1429.27  1435.72  1446.87  1456.20  1470.60  1482.91
eigval :     1487.40  1489.61  1492.88  1497.83  1502.43  1526.92
eigval :     1528.77  1541.47  1548.08  1576.67  1588.76  1594.60
eigval :     1601.92  1608.35  1609.39  1622.55  2374.11  3027.83
eigval :     3029.80  3032.32  3032.92  3037.92  3039.56  3070.48
eigval :     3073.05  3074.12  3075.00  3075.21  3075.51  3080.74
eigval :     3081.01  3081.54  3082.49  3082.67  3087.17  3090.25
eigval :     3090.67  3091.07  3092.73  3093.14  3095.52  3096.41

   temp. (K)  partition function   enthalpy   heat capacity  entropy
                                   cal/mol     cal/K/mol   cal/K/mol   J/K/mol
 298.15  VIB  0.445E+13            17254.242    110.792    105.796
         ROT  0.362E+08              888.752      2.981     37.567
         INT  0.161E+21            18142.994    113.773    143.363
         TR   0.991E+28             1481.254      4.968     44.321
         TOT                       19624.2480   118.7409   187.6834   785.2675

       T/K    H(0)-H(T)+PV         H(T)/Eh          T*S/Eh         G(T)/Eh
   ------------------------------------------------------------------------
    298.15    0.312732E-01    0.514107E+00    0.891745E-01    0.424933E+00
   ------------------------------------------------------------------------

         :::::::::::::::::::::::::::::::::::::::::::::::::::::
         ::                  THERMODYNAMIC                  ::
         :::::::::::::::::::::::::::::::::::::::::::::::::::::
         :: total free energy         -92.321776343811 Eh   ::
         ::.................................................::
         :: total energy              -92.746708952306 Eh   ::
         :: zero point energy           0.482833835593 Eh   ::
         :: G(RRHO) w/o ZPVE           -0.057901227098 Eh   ::
         :: G(RRHO) contrib.            0.424932608495 Eh   ::
         :::::::::::::::::::::::::::::::::::::::::::::::::::::

           -------------------------------------------------
          | TOTAL ENERGY              -92.746708952306 Eh   |
          | TOTAL ENTHALPY            -92.232601886892 Eh   |
          | TOTAL FREE ENERGY         -92.321776343811 Eh   |
          | GRADIENT NORM               0.000072599650 Eh/α |
          | HOMO-LUMO GAP               2.066476234881 eV   |
           -------------------------------------------------

 * finished run on 2025/09/12 at 05:24:03.651
