   * xtb version 6.7.1 (edcfbbe) compiled by 'albert@albert-system' on 2024-07-22

   ID    Z sym.   atoms
    1    6 C      1-26, 28-37
    2    7 N      27
    3    1 H      38-62

          program call               : xtb data2507/gas/DMF-AnCN/DMF-AnCN.xyz --gfn 2 --ohess vtight --parallel 40 --molden --ceasefiles --namespace data2507/gas/DMF-AnCN/DMF-AnCN_gas_S0_preOpt
          :  Hamiltonian                  GFN2-xTB          :
 * total energy  :   -92.7313358 Eh     change       -0.1214161E-08 Eh
 * total energy  :   -92.7431577 Eh     change       -0.1182183E-01 Eh
 * total energy  :   -92.7457144 Eh     change       -0.2556680E-02 Eh
 * total energy  :   -92.7459554 Eh     change       -0.2410351E-03 Eh
 * total energy  :   -92.7460419 Eh     change       -0.8650667E-04 Eh
 * total energy  :   -92.7460516 Eh     change       -0.9648582E-05 Eh
 * total energy  :   -92.7460169 Eh     change        0.3463362E-04 Eh
 * total energy  :   -92.7460529 Eh     change       -0.3596948E-04 Eh
 * total energy  :   -92.7460575 Eh     change       -0.4635037E-05 Eh
 * total energy  :   -92.7460592 Eh     change       -0.1695434E-05 Eh
 * total energy  :   -92.7460600 Eh     change       -0.7594032E-06 Eh
 * total energy  :   -92.7460612 Eh     change       -0.1234199E-05 Eh
 * total energy  :   -92.7460617 Eh     change       -0.5188199E-06 Eh
 * total energy  :   -92.7460619 Eh     change       -0.1892461E-06 Eh
 * total energy  :   -92.7460619 Eh     change        0.3717955E-07 Eh
 * total energy  :   -92.7460620 Eh     change       -0.8619972E-07 Eh
   *** GEOMETRY OPTIMIZATION CONVERGED AFTER 16 ITERATIONS ***

 final structure:
================
62
 xtb: 6.7.1 (edcfbbe)
C           -4.14693511270508       -1.26006706481989       -2.15142879627194
C           -4.20905507210952       -0.00089289159797       -1.28145008097636
C           -4.14686612498675        1.25707149617274       -2.15317361178093
C           -5.44358219357061       -0.00024939932909       -0.40766239744653
C           -6.76915200852338       -0.00048708230355       -0.78419353786982
C           -7.74574789431829        0.00022018817405        0.20306791870464
C           -7.39853919931482        0.00115012037367        1.54501389792896
C           -6.06834354367787        0.00140046734682        1.93237025513779
C           -5.09221079958057        0.00069713615177        0.95005044496880
C           -3.64166505399162        0.00074388799158        1.05005262589762
C           -2.80626946788597        0.00152877000360        2.15466491372729
C           -1.43659210916517        0.00137948231805        1.95326195451837
C           -0.90045395142860        0.00044180527062        0.66892903715751
C            0.56861004799704        0.00030791615694        0.47999164052489
C            1.25813051636498       -1.21511422109690        0.39195225715589
C            0.58347914255967       -2.46152724514191        0.47235107293285
C            1.26461237099811       -3.63620395655008        0.38618072389737
C            2.66415633978132       -3.63726707334969        0.21498190244944
C            3.34842875507969       -2.46404919176361        0.13295243101282
C            2.67661517470245       -1.21611166031775        0.21675288075583
C            3.36502910131807        0.00006452018589        0.13318034058045
C            4.83516154171526       -0.00005582161178       -0.04380959821994
C            5.38968032233791       -0.00092778461458       -1.32121960904824
C            6.75914265678862       -0.00103800562834       -1.49197611802005
C            7.59542514583021       -0.00027058790244       -0.37469984374894
C            8.99870384929144       -0.00030292820373       -0.54301096145360
N           10.13713304911224       -0.00053519519229       -0.67975653471883
C            7.04691728752287        0.00060289548541        0.90859328566096
C            5.67590468788601        0.00071480045590        1.06634192139380
C            2.67672560520879        1.21635936841097        0.21594272247558
C            3.34864391968207        2.46417811487660        0.13121589383058
C            2.66447602426651        3.63751343069389        0.21243153852037
C            1.26493315230898        3.63669286795376        0.38364009209606
C            0.58369756631226        2.46213713253328        0.47064732210488
C            1.25824292106687        1.21560875357478        0.39115359207426
C           -1.74411267915674       -0.00035763626051       -0.44124580771205
C           -3.10678771024962       -0.00019088092181       -0.24648412452279
H           -4.19473855117105       -2.15047959794960       -1.52782910436670
H           -3.21917464941968       -1.28221464032163       -2.71859807912024
H           -4.98182266351845       -1.27935356227376       -2.84796975403159
H           -4.19460424136216        2.14835057405252       -1.53080781638953
H           -3.21911167961419        1.27837430173377       -2.72038490965940
H           -4.98176198902418        1.27544602151554       -2.84972932797973
H           -7.05180122936342       -0.00121670416054       -1.82706190222637
H           -8.78878950997835        0.00003889377714       -0.07813825521938
H           -8.17487997392252        0.00168933315605        2.29636015158640
H           -5.79996868723773        0.00213129781930        2.97849108885587
H           -3.21152653287400        0.00225426230014        3.15555989536267
H           -0.76474714097046        0.00199654259414        2.79977030299522
H           -0.48867119990804       -2.45583722229201        0.60403662864794
H            0.73980769222827       -4.57813005307737        0.44837341596722
H            3.18767800084306       -4.57975238196172        0.14950617020281
H            4.42095784329420       -2.46484619211734        0.00145481539466
H            4.73606256806605       -0.00149028800016       -2.18125060169765
H            7.19080465097032       -0.00170122369933       -2.48215803843868
H            7.70034801318107        0.00119815052900        1.76870426288702
H            5.24400329772463        0.00142782486883        2.05644308098739
H            4.42116998838377        2.46478807081853       -0.00030390282464
H            3.18808261160004        4.57990575907113        0.14630093092102
H            0.74021267476338        4.57870830603953        0.44518091767354
H           -0.48845607996741        2.45663426786612        0.60231444092900
H           -1.31660747019022       -0.00108726781269       -1.43387505417428

          :  Hamiltonian                  GFN2-xTB          :
         :: gradient norm              0.000031320200 Eh/a0 ::
         :: HOMO-LUMO gap              2.193055331052 eV    ::
         :: SCC energy               -94.560095591135 Eh    ::
         :: -> dispersion             -0.085345712243 Eh    ::
         :: repulsion energy           1.814033622317 Eh    ::

    * Orbital Energies and Occupations

         #    Occupation            Energy/Eh            Energy/eV
      -------------------------------------------------------------
         1        2.0000           -0.6701819             -18.2366
       ...           ...                  ...                  ...
        75        2.0000           -0.4242565             -11.5446
        76        2.0000           -0.4202644             -11.4360
        77        2.0000           -0.4193535             -11.4112
        78        2.0000           -0.4161651             -11.3244
        79        2.0000           -0.4147105             -11.2848
        80        2.0000           -0.4117283             -11.2037
        81        2.0000           -0.4102632             -11.1638
        82        2.0000           -0.4081141             -11.1053
        83        2.0000           -0.4052721             -11.0280
        84        2.0000           -0.4043370             -11.0026
        85        2.0000           -0.3985068             -10.8439
        86        2.0000           -0.3780214             -10.2865
        87        2.0000           -0.3653021              -9.9404 (HOMO)
        88                         -0.2847088              -7.7473 (LUMO)
        89                         -0.2721834              -7.4065
        90                         -0.2517470              -6.8504
        91                         -0.2440732              -6.6416
        92                         -0.2365624              -6.4372
        93                         -0.2262879              -6.1576
        94                         -0.2247688              -6.1163
        95                         -0.2201255              -5.9899
        96                         -0.2049707              -5.5775
        97                         -0.1903486              -5.1797
        98                         -0.1830447              -4.9809
       ...                                ...                  ...
       173                          1.1720857              31.8941
      -------------------------------------------------------------
                  HL-Gap            0.0805933 Eh            2.1931 eV

     #   Z          covCN         q      C6AA      α(0)
     1   6 C        3.758    -0.098    22.413     6.750
     2   6 C        3.936     0.019    20.193     6.386
     3   6 C        3.758    -0.098    22.413     6.750
     4   6 C        3.056    -0.002    28.021     8.681
     5   6 C        2.915    -0.034    28.837     8.806
     6   6 C        2.922    -0.033    28.820     8.804
     7   6 C        2.921    -0.033    28.822     8.804
     8   6 C        2.914    -0.034    28.852     8.808
     9   6 C        3.037    -0.000    28.004     8.680
    10   6 C        3.037    -0.003    28.055     8.688
    11   6 C        2.913    -0.035    28.870     8.811
    12   6 C        2.925    -0.037    28.914     8.818
    13   6 C        2.980     0.011    27.765     8.643
    14   6 C        2.979    -0.003    28.096     8.695
    15   6 C        2.985     0.006    27.869     8.660
    16   6 C        2.917    -0.033    28.811     8.802
    17   6 C        2.914    -0.029    28.736     8.790
    18   6 C        2.914    -0.029    28.716     8.787
    19   6 C        2.917    -0.035    28.859     8.809
    20   6 C        2.984     0.006    27.869     8.660
    21   6 C        2.978    -0.010    28.262     8.720
    22   6 C        2.977     0.026    27.413     8.588
    23   6 C        2.923    -0.029    28.724     8.789
    24   6 C        2.925    -0.021    28.520     8.758
    25   6 C        2.974     0.016    27.638     8.624
    26   6 C        1.912     0.111    28.353     8.599
    27   7 N        0.911    -0.236    26.175     7.399
    28   6 C        2.925    -0.020    28.518     8.758
    29   6 C        2.923    -0.029    28.722     8.789
    30   6 C        2.984     0.006    27.869     8.660
    31   6 C        2.917    -0.035    28.859     8.809
    32   6 C        2.914    -0.029    28.716     8.787
    33   6 C        2.914    -0.029    28.736     8.790
    34   6 C        2.917    -0.033    28.811     8.802
    35   6 C        2.985     0.006    27.869     8.660
    36   6 C        2.919    -0.037    28.928     8.820
    37   6 C        3.054    -0.002    28.017     8.681
    38   1 H        0.925     0.035     2.511     2.478
    39   1 H        0.925     0.040     2.447     2.446
    40   1 H        0.925     0.041     2.440     2.443
    41   1 H        0.925     0.035     2.511     2.478
    42   1 H        0.925     0.040     2.447     2.446
    43   1 H        0.925     0.041     2.440     2.443
    44   1 H        0.926     0.027     2.631     2.536
    45   1 H        0.926     0.029     2.604     2.524
    46   1 H        0.926     0.029     2.606     2.525
    47   1 H        0.926     0.029     2.597     2.520
    48   1 H        0.926     0.031     2.571     2.507
    49   1 H        0.926     0.028     2.619     2.531
    50   1 H        0.926     0.033     2.540     2.492
    51   1 H        0.926     0.031     2.577     2.510
    52   1 H        0.926     0.031     2.579     2.511
    53   1 H        0.926     0.027     2.633     2.538
    54   1 H        0.926     0.038     2.473     2.459
    55   1 H        0.926     0.042     2.427     2.436
    56   1 H        0.926     0.042     2.425     2.435
    57   1 H        0.926     0.039     2.468     2.457
    58   1 H        0.926     0.027     2.633     2.538
    59   1 H        0.926     0.031     2.579     2.511
    60   1 H        0.926     0.031     2.577     2.510
    61   1 H        0.926     0.033     2.540     2.492
    62   1 H        0.926     0.026     2.641     2.541

molecular dipole:
                 x           y           z       tot (Debye)
 q only:       -1.584      -0.000      -0.113
   full:       -2.006       0.000      -0.045       5.100

 projected vibrational frequencies (cm⁻¹)
eigval :       -0.00    -0.00     0.00     0.00     0.00     0.00
eigval :      -27.29   -14.35    14.35    19.31    36.19    54.89
eigval :       69.49    70.16   100.10   104.00   111.22   114.39
eigval :      132.77   134.86   145.13   159.68   181.70   196.76
eigval :      209.50   209.57   215.89   243.39   254.10   262.26
eigval :      263.63   310.44   316.97   336.11   338.83   358.86
eigval :      384.79   394.81   395.26   427.13   436.68   443.53
eigval :      447.79   457.76   460.78   465.47   510.91   518.06
eigval :      533.76   534.19   543.48   553.79   562.85   571.72
eigval :      582.71   586.70   601.17   612.25   638.44   640.37
eigval :      649.64   687.57   691.78   694.27   698.65   722.53
eigval :      726.80   741.42   765.93   773.59   775.12   779.40
eigval :      786.39   811.97   824.09   827.23   869.71   873.57
eigval :      875.28   879.59   884.74   898.65   910.44   913.21
eigval :      915.37   917.59   917.94   925.53   926.35   927.90
eigval :      927.96   928.25   933.27   948.45   966.53   974.12
eigval :      996.51  1013.11  1021.20  1071.38  1077.90  1078.67
eigval :     1078.95  1112.05  1130.95  1135.24  1139.95  1153.39
eigval :     1159.36  1175.36  1179.78  1182.70  1183.43  1185.48
eigval :     1198.76  1206.51  1226.31  1226.38  1232.34  1242.26
eigval :     1256.04  1260.26  1263.54  1265.96  1272.48  1288.48
eigval :     1305.95  1321.28  1331.90  1350.14  1360.55  1376.19
eigval :     1386.03  1392.15  1395.91  1411.39  1419.14  1425.40
eigval :     1430.28  1436.65  1449.10  1457.14  1470.91  1485.51
eigval :     1487.29  1489.51  1496.13  1497.75  1502.37  1527.07
eigval :     1534.85  1544.66  1548.94  1578.05  1591.03  1594.95
eigval :     1603.24  1608.47  1609.83  1623.33  2375.18  3028.17
eigval :     3029.93  3032.47  3033.02  3037.95  3039.42  3070.31
eigval :     3073.59  3073.65  3073.79  3074.34  3075.32  3078.00
eigval :     3078.21  3081.91  3082.38  3083.25  3086.49  3086.88
eigval :     3087.47  3090.89  3093.23  3093.31  3093.60  3094.27

   temp. (K)  partition function   enthalpy   heat capacity  entropy
                                   cal/mol     cal/K/mol   cal/K/mol   J/K/mol
 298.15  VIB  0.152E+13            16812.270    109.567    102.734
         ROT  0.362E+08              888.752      2.981     37.566
         INT  0.548E+20            17701.022    112.548    140.300
         TR   0.991E+28             1481.254      4.968     44.321
         TOT                       19182.2761   117.5161   184.6206   772.4524

       T/K    H(0)-H(T)+PV         H(T)/Eh          T*S/Eh         G(T)/Eh
   ------------------------------------------------------------------------
    298.15    0.305689E-01    0.512991E+00    0.877192E-01    0.425272E+00
   ------------------------------------------------------------------------

         :::::::::::::::::::::::::::::::::::::::::::::::::::::
         ::                  THERMODYNAMIC                  ::
         :::::::::::::::::::::::::::::::::::::::::::::::::::::
         :: total free energy         -92.320789951140 Eh   ::
         ::.................................................::
         :: total energy              -92.746061968798 Eh   ::
         :: zero point energy           0.482422300639 Eh   ::
         :: G(RRHO) w/o ZPVE           -0.057150282981 Eh   ::
         :: G(RRHO) contrib.            0.425272017658 Eh   ::
         :::::::::::::::::::::::::::::::::::::::::::::::::::::

           -------------------------------------------------
          | TOTAL ENERGY              -92.746061968798 Eh   |
          | TOTAL ENTHALPY            -92.233070765471 Eh   |
          | TOTAL FREE ENERGY         -92.320789951140 Eh   |
          | GRADIENT NORM               0.000031321104 Eh/α |
          | HOMO-LUMO GAP               2.193055528905 eV   |
           -------------------------------------------------

 * finished run on 2025/09/12 at 05:21:28.067
