   * xtb version 6.7.1 (edcfbbe) compiled by 'albert@albert-system' on 2024-07-22

   ID    Z sym.   atoms
    1    6 C      1-26, 28-37
    2    7 N      27
    3    1 H      38-62

          program call               : xtb data2507/gas/DMF-AnCN/DMF-AnCN_gas_T1_crest.xyz --gfn 2 --spinpol --tblite --uhf 2 --ohess vtight --parallel 40 --molden --ceasefiles --namespace data2507/gas/DMF-AnCN/DMF-AnCN_gas_T1_finalOpt
 * total energy  :   -92.6846412 Eh     change        0.9989066E-08 Eh
 * total energy  :   -92.6846842 Eh     change       -0.4307066E-04 Eh
 * total energy  :   -92.6846972 Eh     change       -0.1291034E-04 Eh
 * total energy  :   -92.6846865 Eh     change        0.1062041E-04 Eh
 * total energy  :   -92.6847028 Eh     change       -0.1629884E-04 Eh
 * total energy  :   -92.6847093 Eh     change       -0.6484396E-05 Eh
 * total energy  :   -92.6847134 Eh     change       -0.4030222E-05 Eh
 * total energy  :   -92.6847221 Eh     change       -0.8753292E-05 Eh
 * total energy  :   -92.6847301 Eh     change       -0.7950522E-05 Eh
 * total energy  :   -92.6847342 Eh     change       -0.4125924E-05 Eh
 * total energy  :   -92.6847405 Eh     change       -0.1231789E-05 Eh
 * total energy  :   -92.6847414 Eh     change       -0.9013387E-06 Eh
 * total energy  :   -92.6847422 Eh     change       -0.7971964E-06 Eh
 * total energy  :   -92.6847430 Eh     change       -0.7502260E-06 Eh
 * total energy  :   -92.6847438 Eh     change       -0.8309818E-06 Eh
 * total energy  :   -92.6847444 Eh     change       -0.6652880E-06 Eh
 * total energy  :   -92.6847450 Eh     change       -0.5553379E-06 Eh
 * total energy  :   -92.6847455 Eh     change       -0.4650292E-06 Eh
 * total energy  :   -92.6847455 Eh     change       -0.2122228E-07 Eh
   *** GEOMETRY OPTIMIZATION CONVERGED AFTER 22 ITERATIONS ***

 final structure:
================
62
 xtb: 6.7.1 (edcfbbe)
C           -4.56184647231466       -2.57494050747835       -0.74539819365534
C           -4.65853012522631       -1.07903417815761       -1.06205568112308
C           -4.57389889801995       -0.84435439815357       -2.57304613272440
C           -5.92024067186830       -0.47800767785688       -0.48395580208547
C           -7.23273600590468       -0.78438902237384       -0.76888116523977
C           -8.24067185327794       -0.09288151201071       -0.10908260846851
C           -7.93685800819299        0.88942108665054        0.82139739158913
C           -6.62065401099917        1.20341414775378        1.11563660174711
C           -5.61196001407449        0.51497768813502        0.45957573477152
C           -4.16963231714780        0.62218724426093        0.55962747924674
C           -3.36397062397971        1.43831050108388        1.34097155827355
C           -1.99254087446137        1.32978207054624        1.22706803081589
C           -1.40033552814967        0.40797077564300        0.35270764270780
C            0.04884329676219        0.29530700931706        0.26115407764232
C            0.67547433165820       -0.98043012400154        0.43115817903465
C           -0.05532168877855       -2.11903315229167        0.78036464797666
C            0.54203149681225       -3.37506162986920        0.84741887535938
C            1.88311114989279       -3.51271205844719        0.56177062684853
C            2.64914871960389       -2.38360120775146        0.28337489645398
C            2.08717795397060       -1.10461414115598        0.27246628701214
C            2.88625604493816        0.06820902246745        0.08261388430659
C            4.33474204631986       -0.04828617646237       -0.00655070384017
C            5.03367118336433        0.48281013501656       -1.09993853261464
C            6.40142789008667        0.36613006859859       -1.19298491694884
C            7.11943047367886       -0.27539349454479       -0.17843840107850
C            8.52132015216954       -0.39067576975007       -0.26546372665796
N            9.66325854198146       -0.48518778175020       -0.33645891637160
C            6.43677935312522       -0.80225132582376        0.92287046373306
C            5.06718395537639       -0.69563494726786        0.99875284441788
C            2.26558439322854        1.35432291920845       -0.01973094620603
C            3.01660344392218        2.52837259461174       -0.11555582214580
C            2.40948091355398        3.76657058257276       -0.30964751696703
C            1.03840717704084        3.84527915116956       -0.42341899621452
C            0.26327122391644        2.69903201748932       -0.26736004508525
C            0.84336161278642        1.45657999017052        0.00025499233315
C           -2.22625555817019       -0.41602452515057       -0.42845092204466
C           -3.58994140969934       -0.30275315714897       -0.32531565290950
H           -4.62719458510036       -2.73681053482001        0.32875283665475
H           -3.61538567186861       -2.97580277270058       -1.10135798998353
H           -5.37256961785741       -3.11635935155408       -1.22707854943178
H           -4.64011516652773        0.21918219674027       -2.79289061130875
H           -3.63090878732799       -1.22178631355415       -2.96177183617184
H           -5.38906826824011       -1.35494181604203       -3.08032261170086
H           -7.48207010412600       -1.54734817847204       -1.49210211582487
H           -9.27406092017270       -0.32271948906308       -0.32381262300526
H           -8.73733691860047        1.41472364820502        1.32178425223739
H           -6.38582670118162        1.96825229565796        1.84097521027357
H           -3.79947801815425        2.14295549399513        2.03384499960573
H           -1.35291867998380        1.93644004172309        1.85197198740568
H           -1.10562944617752       -2.02628129881532        1.00994395515879
H           -0.05541030214170       -4.23580936256392        1.10833527235059
H            2.35041689227560       -4.48587441046341        0.56728434494119
H            3.69907751324607       -2.50663349323657        0.06609117165592
H            4.47971592684841        0.95826170180454       -1.89630475834942
H            6.92904946585220        0.76300427660057       -2.04812166889574
H            6.99386973582659       -1.28764414412945        1.71102325841088
H            4.54512461266287       -1.08345529256408        1.86140418495330
H            4.09159043540217        2.48219909952000       -0.03200586598018
H            3.02014721679017        4.65361333742251       -0.38493046567483
H            0.55653931175075        4.79190004251268       -0.61690247683766
H           -0.80911608999570        2.77490800163085       -0.36031750375849
H           -1.77481379872201       -1.10526651108160       -1.12763318541240

 projected vibrational frequencies (cm⁻¹)
eigval :       -0.00    -0.00    -0.00    -0.00     0.00     0.00
eigval :       10.88    21.39    26.06    38.96    45.26    62.47
eigval :       76.54    78.90   106.98   113.92   126.53   128.62
eigval :      131.45   143.89   146.44   166.87   181.17   198.60
eigval :      216.49   219.80   230.08   247.70   261.79   264.05
eigval :      281.31   311.19   323.51   334.49   339.29   365.52
eigval :      368.17   387.71   395.99   400.16   419.11   429.26
eigval :      443.83   458.90   465.74   471.99   510.00   517.25
eigval :      532.76   536.53   541.41   550.43   557.51   570.59
eigval :      572.92   584.71   596.09   599.06   622.45   637.83
eigval :      641.86   674.25   687.64   690.21   696.25   716.02
eigval :      723.56   726.12   749.82   762.43   762.96   777.74
eigval :      781.73   816.03   819.80   832.00   848.73   853.94
eigval :      869.62   878.36   888.03   892.95   894.42   904.19
eigval :      907.26   910.18   912.09   922.94   925.86   926.66
eigval :      927.87   935.01   945.15   949.50   966.14   975.07
eigval :      992.00  1012.34  1014.29  1069.97  1078.05  1102.25
eigval :     1105.41  1111.41  1115.71  1125.39  1135.19  1151.54
eigval :     1158.63  1175.01  1179.71  1181.51  1182.74  1183.39
eigval :     1186.84  1191.97  1225.55  1228.87  1233.81  1239.88
eigval :     1249.34  1255.29  1262.27  1268.74  1271.92  1285.18
eigval :     1299.05  1303.34  1310.44  1324.45  1336.54  1356.41
eigval :     1363.01  1370.31  1379.28  1394.95  1402.47  1408.24
eigval :     1409.06  1424.70  1425.82  1432.27  1448.54  1464.66
eigval :     1470.00  1477.48  1485.87  1487.78  1490.43  1496.10
eigval :     1500.46  1516.19  1521.79  1530.92  1553.94  1555.72
eigval :     1568.69  1582.17  1590.64  1605.26  2356.30  3027.62
eigval :     3029.82  3032.28  3033.03  3038.10  3039.67  3071.72
eigval :     3074.71  3075.64  3076.39  3078.52  3079.25  3079.77
eigval :     3080.12  3083.91  3087.32  3087.37  3087.83  3090.58
eigval :     3090.74  3091.86  3096.18  3096.73  3100.19  3100.70

   temp. (K)  partition function   enthalpy   heat capacity  entropy
                                   cal/mol     cal/K/mol   cal/K/mol   J/K/mol
 298.15  VIB  0.235E+13            17268.696    112.007    105.366
         ROT  0.364E+08              888.752      2.981     37.579
         INT  0.856E+20            18157.448    114.988    142.946
         TR   0.991E+28             1481.254      4.968     44.321
         TOT                       19638.7023   119.9557   187.2665   783.5230

       T/K    H(0)-H(T)+PV         H(T)/Eh          T*S/Eh         G(T)/Eh
   ------------------------------------------------------------------------
    298.15    0.312963E-01    0.511786E+00    0.889764E-01    0.422809E+00
   ------------------------------------------------------------------------

         :::::::::::::::::::::::::::::::::::::::::::::::::::::
         ::                  THERMODYNAMIC                  ::
         :::::::::::::::::::::::::::::::::::::::::::::::::::::
         :: total free energy         -92.261936248376 Eh   ::
         ::.................................................::
         :: total energy              -92.684745491154 Eh   ::
         :: zero point energy           0.480489335673 Eh   ::
         :: G(RRHO) w/o ZPVE           -0.057680092894 Eh   ::
         :: G(RRHO) contrib.            0.422809242779 Eh   ::
         :::::::::::::::::::::::::::::::::::::::::::::::::::::

           -------------------------------------------------
          | TOTAL ENERGY              -92.684745491154 Eh   |
          | TOTAL ENTHALPY            -92.172959891196 Eh   |
          | TOTAL FREE ENERGY         -92.261936248376 Eh   |
          | GRADIENT NORM               0.000069635285 Eh/α |
           -------------------------------------------------

 * finished run on 2025/09/12 at 05:26:37.236
