   * xtb version 6.7.1 (edcfbbe) compiled by 'albert@albert-system' on 2024-07-22

   ID    Z sym.   atoms
    1    6 C      1-5, 7-9, 11-13, 15, 16, 20-31
    2    7 N      6, 10, 14
    3    8 O      17, 19
    4   16 S      18
    5    1 H      32-54

          program call               : xtb data2507/gas/DMDHNP-DPS/DMDHNP-DPS_gas_S0_finalOpt.xtbopt.xyz --gfn 2 --spinpol --tblite --uhf 2 --ohess vtight --parallel 40 --molden --ceasefiles --namespace data2507/gas/DMDHNP-DPS/DMDHNP-DPS_gas_T1_preOpt
 * total energy  :   -85.0465083 Eh     change        0.1061471E-07 Eh
 * total energy  :   -85.0572963 Eh     change       -0.1078799E-01 Eh
 * total energy  :   -85.0621271 Eh     change       -0.4830792E-02 Eh
 * total energy  :   -85.0668163 Eh     change       -0.4689187E-02 Eh
 * total energy  :   -85.0680052 Eh     change       -0.1188943E-02 Eh
 * total energy  :   -85.0759900 Eh     change       -0.7984797E-02 Eh
 * total energy  :   -85.0824607 Eh     change       -0.6470675E-02 Eh
 * total energy  :   -85.0917769 Eh     change       -0.9316249E-02 Eh
 * total energy  :   -85.0945270 Eh     change       -0.2750065E-02 Eh
 * total energy  :   -85.0978104 Eh     change       -0.3283416E-02 Eh
 * total energy  :   -85.0993166 Eh     change       -0.5518790E-05 Eh
 * total energy  :   -85.0993200 Eh     change       -0.3403871E-05 Eh
 * total energy  :   -85.0993208 Eh     change       -0.8067036E-06 Eh
 * total energy  :   -85.0993214 Eh     change       -0.6482552E-06 Eh
 * total energy  :   -85.0993218 Eh     change       -0.3133553E-06 Eh
 * total energy  :   -85.0993220 Eh     change       -0.2744580E-06 Eh
 * total energy  :   -85.0993222 Eh     change       -0.1743151E-06 Eh
 * total energy  :   -85.0993223 Eh     change       -0.1269636E-06 Eh
 * total energy  :   -85.0993224 Eh     change       -0.7922993E-07 Eh
   *** GEOMETRY OPTIMIZATION CONVERGED AFTER 26 ITERATIONS ***

 final structure:
================
54
 xtb: 6.7.1 (edcfbbe)
C           -0.45693988424697        2.62449240970878        1.09650127037038
C            0.43551139788348        0.12357981893530       -0.01179291783788
C           -2.36212766455385        2.94889866699022       -0.81438994227981
C            1.35063878911236       -0.23886763784457       -1.12114136884598
C            2.51871317912419        1.26812597429903        0.26193464375194
N            3.94455119917135        0.86884431884348        0.28348681292693
C            4.08649904590269       -1.07153349265356       -0.71319597627888
C            2.99941893826242       -2.02864353541230       -1.01548888118667
C            1.70259866479814       -1.61598010684052       -1.09503289979301
N            0.63792227558572       -2.49904070531322       -0.95394646588673
C           -0.63073284575674       -2.09366313409857       -0.60315504283078
C           -1.69924720703332       -2.85409034373855       -0.87646931232549
C           -3.41079402547787       -2.12513219286532        0.84351855141295
N           -3.51782715059248       -0.84417760017470        1.52030727863336
C           -2.46240445332204        0.13662730112365        1.14737810488264
C           -0.75563723532785       -0.79268296231019        0.13619315350473
O           -1.89699108293414        4.27211157953283       -0.79570300046511
S           -0.81569474502665        1.70074100260042       -0.52480650223158
O            0.20492070433233        3.79364331043646        0.86211877387481
C            1.49826383279916        0.40770138071266        0.98497598379321
C            1.98268082148455       -0.56318108847113        1.89476470996655
C            3.27448532215949       -0.97136141460657        1.83577181639024
C            4.19377784936762       -0.50066303135519        0.78223621337446
C            3.85227552108186        0.38675930656272       -1.11917270869347
C            2.38990332115988        0.82819278808853       -1.21302185978129
C           -1.91217911633017        0.19538621901621       -0.28285201803379
C           -1.34762804507311       -0.81715961985117        1.56652143460886
C           -2.45162402362092       -1.81220600427885        1.91534326131324
C           -3.11815967249230       -2.42498994914876       -0.61714741659031
C           -3.40730976346388       -1.26877769802306       -1.53902863570236
C           -2.83140378873325       -0.08295961090372       -1.40175190584490
H            0.19886209599063        1.95423851742959        1.66170561404400
H           -0.41435796866722        4.41506650219571        0.43716938342797
H           -1.42095219525656        2.76787131438614        1.58923588819837
H           -1.40460799629024        4.43524964559573       -1.60828104242482
H           -2.80488621082496        2.70317932905224       -1.77871213084519
H           -3.10033926596996        2.84114974199989       -0.02332843310669
H            2.42081058952066        2.32966394892222        0.50045732784283
H            5.05271270254874       -1.46224326586164       -1.03679778724677
H            3.22192239980490       -3.08261899586303       -0.93070572173825
H            0.76666423292163       -3.46018282536722       -1.22745193236850
H           -1.56139346262962       -3.78861234305571       -1.40018469301247
H           -4.22626819002057       -2.73954796137153        1.22175610322124
H           -2.68149798507126        1.07404053950719        1.65084787761350
H            1.31394784646875       -1.04403346663690        2.59609457607399
H            3.64588954121087       -1.71521262842365        2.52401330476412
H            5.23175555208721       -0.56772646536540        1.12314041836249
H            4.54472094084359        0.82103453921924       -1.83912307631952
H            2.17058102312536        1.58775072296698       -1.96221004668902
H           -0.67795757462079       -0.58731142452784        2.38594798216092
H           -2.47636036968483       -2.32803752222240        2.86434867135663
H           -3.77474204594118       -3.25389590889848       -0.89316192994753
H           -4.06274516157498       -1.45877900401133       -2.37555666843632
H           -3.00741306657756        0.69769313259479       -2.12304028403964

 projected vibrational frequencies (cm⁻¹)
eigval :       -0.00    -0.00     0.00     0.00     0.00     0.00
eigval :       54.56    62.86    75.69    83.41    96.21   119.98
eigval :      134.47   158.10   171.96   189.47   196.72   218.74
eigval :      233.58   239.98   251.08   267.26   281.74   289.47
eigval :      294.23   320.45   325.97   351.64   364.76   382.69
eigval :      386.91   403.93   413.97   421.40   444.34   465.83
eigval :      480.68   487.79   495.13   517.91   520.78   548.99
eigval :      556.31   579.83   587.58   601.69   607.13   624.26
eigval :      633.82   654.21   684.14   684.74   693.69   717.66
eigval :      731.62   737.40   742.63   748.86   756.78   774.64
eigval :      779.16   793.83   803.82   816.64   828.93   836.02
eigval :      853.11   861.87   882.40   887.59   901.08   910.17
eigval :      911.20   918.88   953.28   957.29   965.28   981.64
eigval :      990.70   997.12  1019.62  1026.80  1046.84  1052.85
eigval :     1054.56  1061.08  1068.93  1074.28  1093.19  1094.67
eigval :     1096.96  1104.68  1111.35  1120.29  1136.31  1138.11
eigval :     1142.51  1149.80  1152.85  1161.47  1166.21  1174.83
eigval :     1178.59  1184.28  1188.22  1191.19  1196.87  1203.21
eigval :     1210.57  1217.31  1224.88  1229.06  1231.72  1242.51
eigval :     1247.38  1258.67  1261.76  1274.64  1278.99  1283.01
eigval :     1291.38  1301.57  1304.60  1319.72  1320.92  1322.21
eigval :     1339.31  1343.65  1347.12  1376.21  1386.24  1392.32
eigval :     1408.49  1446.38  1450.81  1514.71  1531.73  1680.25
eigval :     1694.52  2887.01  2919.46  2936.60  2940.57  2954.78
eigval :     2961.26  2965.93  2972.55  2975.68  2993.28  3005.17
eigval :     3010.95  3040.04  3050.84  3059.68  3063.51  3070.86
eigval :     3076.75  3077.66  3104.83  3335.97  3449.89  3542.43

   temp. (K)  partition function   enthalpy   heat capacity  entropy
                                   cal/mol     cal/K/mol   cal/K/mol   J/K/mol
 298.15  VIB  0.111E+08            13011.039     95.760     74.801
         ROT  0.125E+08              888.752      2.981     35.462
         INT  0.139E+15            13899.792     98.741    110.263
         TR   0.861E+28             1481.254      4.968     44.043
         TOT                       15381.0456   103.7088   154.3060   645.6162

       T/K    H(0)-H(T)+PV         H(T)/Eh          T*S/Eh         G(T)/Eh
   ------------------------------------------------------------------------
    298.15    0.245113E-01    0.444192E+00    0.733158E-01    0.370876E+00
   ------------------------------------------------------------------------

         :::::::::::::::::::::::::::::::::::::::::::::::::::::
         ::                  THERMODYNAMIC                  ::
         :::::::::::::::::::::::::::::::::::::::::::::::::::::
         :: total free energy         -84.728446043961 Eh   ::
         ::.................................................::
         :: total energy              -85.099322429469 Eh   ::
         :: zero point energy           0.419680879676 Eh   ::
         :: G(RRHO) w/o ZPVE           -0.048804494168 Eh   ::
         :: G(RRHO) contrib.            0.370876385508 Eh   ::
         :::::::::::::::::::::::::::::::::::::::::::::::::::::

           -------------------------------------------------
          | TOTAL ENERGY              -85.099322429469 Eh   |
          | TOTAL ENTHALPY            -84.655130293356 Eh   |
          | TOTAL FREE ENERGY         -84.728446043961 Eh   |
          | GRADIENT NORM               0.000059899040 Eh/α |
           -------------------------------------------------

 * finished run on 2025/07/16 at 13:58:00.674
