   * xtb version 6.7.1 (edcfbbe) compiled by 'albert@albert-system' on 2024-07-22

   ID    Z sym.   atoms
    1    6 C      1-5, 7-9, 11-13, 15, 16, 20-31
    2    7 N      6, 10, 14
    3    8 O      17, 19
    4   16 S      18
    5    1 H      32-54

          program call               : xtb data2507/gas/DMDHNP-DPS/DMDHNP-DPS_gas_S0_crest.xyz --gfn 2 --ohess vtight --parallel 40 --molden --ceasefiles --namespace data2507/gas/DMDHNP-DPS/DMDHNP-DPS_gas_S0_finalOpt
          :  Hamiltonian                  GFN2-xTB          :
 * total energy  :   -85.1490844 Eh     change       -0.8935217E-09 Eh
 * total energy  :   -85.1490846 Eh     change       -0.2156091E-06 Eh
 * total energy  :   -85.1490853 Eh     change       -0.6388212E-06 Eh
 * total energy  :   -85.1490856 Eh     change       -0.2705349E-06 Eh
 * total energy  :   -85.1490858 Eh     change       -0.2865973E-06 Eh
 * total energy  :   -85.1490858 Eh     change       -0.2573813E-08 Eh
 * total energy  :   -85.1490860 Eh     change       -0.1871275E-06 Eh
 * total energy  :   -85.1490861 Eh     change       -0.8413593E-07 Eh
   *** GEOMETRY OPTIMIZATION CONVERGED AFTER 8 ITERATIONS ***

 final structure:
================
54
 xtb: 6.7.1 (edcfbbe)
C           -0.47824162916371        2.66015054817932        1.07652731164160
C            0.31793713938361        0.22521344011167        0.01379969135757
C           -2.40905658121394        2.95784193110501       -0.79595941142317
C            1.51128463686258       -0.25789134821329       -0.71472407257131
C            2.58658771690327        1.30770297167267        0.28067854088908
N            3.99732329146617        0.86809504765436        0.28169051999012
C            4.12461302894312       -1.07597023973881       -0.71203310457026
C            3.03759142449727       -2.07222313516520       -0.96877311097056
C            1.75747021175284       -1.67557380055607       -0.94413050299767
N            0.63441625542876       -2.47322076699363       -0.96227828433280
C           -0.63593611356535       -2.06007497127745       -0.59775147051548
C           -1.69440446142835       -2.83048339769617       -0.88234083949431
C           -3.43791380080370       -2.13029373242644        0.82580568982777
N           -3.56929839430577       -0.85193289508927        1.50556904368417
C           -2.52225484591042        0.14368743033329        1.14485093624117
C           -0.80627510162029       -0.76500351666781        0.14195133278252
O           -1.91205568802742        4.27866391466035       -0.81926913806558
S           -0.86866706403001        1.71572979262642       -0.52725064491516
O            0.20692173086704        3.81682961004641        0.83195234279790
C            1.61111322219149        0.21723128026904        0.76666589440291
C            2.06470487371073       -0.67067935433124        1.83378903387179
C            3.34465651468922       -1.03697516894429        1.80999334601067
C            4.25747823428022       -0.52036437959289        0.75640270250521
C            3.88098129561650        0.39108675608971       -1.11964754105916
C            2.42607753585561        0.84699556216901       -1.18267235291400
C           -1.97149047620517        0.20568445347080       -0.28505151940374
C           -1.40138719707029       -0.80198673621903        1.57068582801163
C           -2.49741800562014       -1.80731598879140        1.91096266969611
C           -3.12289362949573       -2.42679838624104       -0.63211415060377
C           -3.43630899865978       -1.27600201672836       -1.55339152445308
C           -2.88693071944991       -0.07970427068425       -1.40381411774349
H            0.15006202169900        2.00191109356973        1.67226419471095
H           -0.40238407623438        4.42916522501334        0.37962371297478
H           -1.44247334289506        2.83229165370778        1.56105215806536
H           -1.41437638920621        4.39388136042799       -1.63641762213710
H           -2.89290527644150        2.71691963560209       -1.74296325797162
H           -3.13629907026415        2.89566588889995        0.01084981360492
H            2.46015220773565        2.32583616966990        0.64343160914257
H            5.07893267683277       -1.45998902124966       -1.07523828360349
H            3.31644131422815       -3.10499710892174       -1.10993293867365
H            0.73425554418459       -3.43377170168879       -1.25381820413323
H           -1.54178850759931       -3.76217360574472       -1.40810435535432
H           -4.25191534475992       -2.75419225050988        1.19142079642057
H           -2.75120675237348        1.07984288076847        1.64616072913564
H            1.38599919634500       -1.01442577336535        2.60035120290575
H            3.77119689455158       -1.66968998767485        2.57373615089145
H            5.29434293223395       -0.57070278300565        1.10220378117609
H            4.56929724803926        0.82432296526648       -1.84355391174196
H            2.10075464283671        1.47059006108655       -2.00986313758817
H           -0.73064239414559       -0.57074354524234        2.39098804975763
H           -2.52532709956939       -2.32534699381961        2.85878477811671
H           -3.75915794209646       -3.27048850549928       -0.91128163953358
H           -4.08950769820530       -1.47609553333324       -2.38914093188289
H           -3.08225013097431        0.70849269291139       -2.11156947445909

          :  Hamiltonian                  GFN2-xTB          :
         :: gradient norm              0.000058261317 Eh/a0 ::
         :: HOMO-LUMO gap              2.673354663878 eV    ::
         :: SCC energy               -86.241184168008 Eh    ::
         :: -> dispersion             -0.082920915955 Eh    ::
         :: repulsion energy           1.092098044483 Eh    ::

    * Orbital Energies and Occupations

         #    Occupation            Energy/Eh            Energy/eV
      -------------------------------------------------------------
         1        2.0000           -0.7425027             -20.2045
       ...           ...                  ...                  ...
        66        2.0000           -0.4297386             -11.6938
        67        2.0000           -0.4244619             -11.5502
        68        2.0000           -0.4239993             -11.5376
        69        2.0000           -0.4138228             -11.2607
        70        2.0000           -0.4028661             -10.9625
        71        2.0000           -0.4003158             -10.8931
        72        2.0000           -0.3988455             -10.8531
        73        2.0000           -0.3906296             -10.6296
        74        2.0000           -0.3717123             -10.1148
        75        2.0000           -0.3693225             -10.0498
        76        2.0000           -0.3492459              -9.5035
        77        2.0000           -0.3427749              -9.3274
        78        2.0000           -0.3296023              -8.9689 (HOMO)
        79                         -0.2313583              -6.2956 (LUMO)
        80                         -0.2232589              -6.0752
        81                         -0.2211266              -6.0172
        82                         -0.2052735              -5.5858
        83                         -0.1829745              -4.9790
        84                         -0.1682539              -4.5784
        85                         -0.1327267              -3.6117
        86                         -0.1239961              -3.3741
        87                         -0.0915082              -2.4901
        88                         -0.0478557              -1.3022
        89                         -0.0444007              -1.2082
       ...                                ...                  ...
       152                          0.6553950              17.8342
      -------------------------------------------------------------
                  HL-Gap            0.0982440 Eh            2.6734 eV

     #   Z          covCN         q      C6AA      α(0)
     1   6 C        3.659     0.106    19.100     6.271
     2   6 C        3.927    -0.069    21.761     6.630
     3   6 C        3.626     0.017    20.715     6.558
     4   6 C        4.158     0.006    20.384     6.412
     5   6 C        4.266     0.049    19.672     6.299
     6   7 N        2.928    -0.226    25.931     7.563
     7   6 C        3.940    -0.019    20.845     6.488
     8   6 C        2.908    -0.096    30.408     9.042
     9   6 C        2.889     0.058    26.693     8.470
    10   7 N        2.702    -0.149    24.214     7.308
    11   6 C        2.881     0.057    26.718     8.474
    12   6 C        2.914    -0.092    30.304     9.027
    13   6 C        3.798     0.049    19.749     6.328
    14   7 N        2.819    -0.245    26.371     7.627
    15   6 C        4.262     0.055    19.564     6.282
    16   6 C        4.234     0.017    20.208     6.384
    17   8 O        1.657    -0.441    21.653     6.282
    18  16 S        3.986    -0.018   141.780    20.041
    19   8 O        1.661    -0.408    21.003     6.187
    20   6 C        4.061    -0.006    20.605     6.448
    21   6 C        2.895    -0.038    28.951     8.822
    22   6 C        2.906    -0.045    29.128     8.850
    23   6 C        4.045     0.049    19.680     6.302
    24   6 C        4.306     0.047    19.696     6.303
    25   6 C        4.115    -0.024    20.912     6.495
    26   6 C        4.099     0.025    20.066     6.362
    27   6 C        4.112    -0.025    20.928     6.498
    28   6 C        4.083     0.034    19.920     6.339
    29   6 C        3.861    -0.014    20.780     6.483
    30   6 C        2.906    -0.030    28.749     8.792
    31   6 C        2.906    -0.042    29.049     8.838
    32   1 H        0.925     0.072     2.059     2.244
    33   1 H        0.804     0.331     0.636     1.253
    34   1 H        0.924     0.045     2.378     2.412
    35   1 H        0.805     0.293     0.742     1.353
    36   1 H        0.924     0.012     2.861     2.645
    37   1 H        0.925     0.028     2.608     2.526
    38   1 H        0.925     0.043     2.409     2.427
    39   1 H        0.924     0.026     2.643     2.542
    40   1 H        0.926     0.014     2.834     2.632
    41   1 H        0.860     0.158     1.348     1.818
    42   1 H        0.926     0.020     2.736     2.587
    43   1 H        0.925     0.041     2.432     2.439
    44   1 H        0.925     0.030     2.590     2.517
    45   1 H        0.926     0.017     2.784     2.609
    46   1 H        0.926     0.024     2.676     2.558
    47   1 H        0.924     0.034     2.533     2.489
    48   1 H        0.925     0.027     2.632     2.537
    49   1 H        0.925     0.025     2.658     2.550
    50   1 H        0.925     0.029     2.594     2.519
    51   1 H        0.926     0.029     2.596     2.520
    52   1 H        0.924     0.038     2.472     2.459
    53   1 H        0.926     0.038     2.473     2.459
    54   1 H        0.926     0.040     2.449     2.447

molecular dipole:
                 x           y           z       tot (Debye)
 q only:       -0.388      -0.512      -0.560
   full:       -0.666      -1.071      -0.646       3.602

 projected vibrational frequencies (cm⁻¹)
eigval :       -0.00    -0.00    -0.00    -0.00     0.00     0.00
eigval :       52.37    58.94    69.37    80.26    85.98   115.96
eigval :      141.17   157.19   180.96   197.14   204.19   223.28
eigval :      231.62   243.98   250.29   268.87   285.70   295.33
eigval :      305.53   326.73   328.66   368.58   383.17   386.28
eigval :      404.96   415.91   421.25   447.94   474.96   485.50
eigval :      498.52   518.92   523.03   532.61   541.54   553.41
eigval :      559.24   590.38   609.56   613.52   630.56   644.12
eigval :      651.55   680.50   706.65   714.51   724.68   734.35
eigval :      745.93   749.64   759.87   763.73   787.58   793.58
eigval :      795.65   807.48   816.12   820.74   838.49   856.19
eigval :      862.33   874.85   887.64   896.58   900.03   910.43
eigval :      912.98   916.42   942.30   955.74   963.92   976.48
eigval :      993.89   998.11  1020.86  1045.25  1050.25  1059.12
eigval :     1062.97  1067.91  1072.29  1086.93  1091.52  1093.45
eigval :     1100.93  1102.94  1112.00  1118.22  1124.59  1141.98
eigval :     1145.66  1148.22  1158.11  1165.06  1172.05  1173.63
eigval :     1181.17  1183.03  1185.33  1192.81  1198.13  1202.75
eigval :     1206.54  1219.73  1222.64  1229.94  1231.91  1239.36
eigval :     1243.63  1252.13  1261.95  1263.80  1277.89  1281.02
eigval :     1287.28  1305.91  1319.02  1320.91  1325.37  1339.73
eigval :     1343.84  1346.76  1353.53  1380.82  1402.76  1424.01
eigval :     1450.13  1455.50  1473.34  1660.68  1672.39  1685.45
eigval :     1697.60  2930.75  2931.24  2959.08  2960.34  2965.49
eigval :     2977.56  2982.07  2993.72  3001.59  3004.81  3008.50
eigval :     3020.28  3031.25  3056.31  3061.32  3065.32  3077.99
eigval :     3079.42  3081.15  3108.07  3332.03  3435.41  3548.17

   temp. (K)  partition function   enthalpy   heat capacity  entropy
                                   cal/mol     cal/K/mol   cal/K/mol   J/K/mol
 298.15  VIB  0.100E+08            12729.562     93.906     73.393
         ROT  0.128E+08              888.752      2.981     35.499
         INT  0.128E+15            13618.315     96.887    108.892
         TR   0.861E+28             1481.254      4.968     44.043
         TOT                       15099.5685   101.8550   152.9344   639.8774

       T/K    H(0)-H(T)+PV         H(T)/Eh          T*S/Eh         G(T)/Eh
   ------------------------------------------------------------------------
    298.15    0.240627E-01    0.447098E+00    0.726641E-01    0.374434E+00
   ------------------------------------------------------------------------

         :::::::::::::::::::::::::::::::::::::::::::::::::::::
         ::                  THERMODYNAMIC                  ::
         :::::::::::::::::::::::::::::::::::::::::::::::::::::
         :: total free energy         -84.774652362012 Eh   ::
         ::.................................................::
         :: total energy              -85.149086123551 Eh   ::
         :: zero point energy           0.423035126163 Eh   ::
         :: G(RRHO) w/o ZPVE           -0.048601364624 Eh   ::
         :: G(RRHO) contrib.            0.374433761539 Eh   ::
         :::::::::::::::::::::::::::::::::::::::::::::::::::::

           -------------------------------------------------
          | TOTAL ENERGY              -85.149086123551 Eh   |
          | TOTAL ENTHALPY            -84.701988303346 Eh   |
          | TOTAL FREE ENERGY         -84.774652362012 Eh   |
          | GRADIENT NORM               0.000058299591 Eh/α |
          | HOMO-LUMO GAP               2.673354306882 eV   |
           -------------------------------------------------

 * finished run on 2025/07/16 at 13:57:56.703
