   * xtb version 6.7.1 (edcfbbe) compiled by 'albert@albert-system' on 2024-07-22

   ID    Z sym.   atoms
    1    6 C      1-5, 7-9, 11-13, 15, 16, 20-31
    2    7 N      6, 10, 14
    3    8 O      17, 19
    4   16 S      18
    5    1 H      32-54

          program call               : xtb data2507/gas/DMDHNP-DPS/DMDHNP-DPS_gas_T1_crest.xyz --gfn 2 --spinpol --tblite --uhf 2 --ohess vtight --parallel 40 --molden --ceasefiles --namespace data2507/gas/DMDHNP-DPS/DMDHNP-DPS_gas_T1_finalOpt
 * total energy  :   -85.1019865 Eh     change        0.3272572E-07 Eh
 * total energy  :   -85.1020339 Eh     change       -0.4735850E-04 Eh
 * total energy  :   -85.1020723 Eh     change       -0.3837678E-04 Eh
 * total energy  :   -85.1020919 Eh     change       -0.1959853E-04 Eh
 * total energy  :   -85.1021304 Eh     change       -0.3853739E-04 Eh
 * total energy  :   -85.1021580 Eh     change       -0.2763329E-04 Eh
 * total energy  :   -85.1021836 Eh     change       -0.2560743E-04 Eh
 * total energy  :   -85.1021943 Eh     change       -0.1068647E-04 Eh
 * total energy  :   -85.1021973 Eh     change       -0.3018846E-05 Eh
 * total energy  :   -85.1021985 Eh     change       -0.1170309E-05 Eh
 * total energy  :   -85.1021996 Eh     change       -0.1112168E-05 Eh
 * total energy  :   -85.1022000 Eh     change       -0.3839413E-06 Eh
 * total energy  :   -85.1022000 Eh     change       -0.3192099E-07 Eh
 * total energy  :   -85.1022002 Eh     change       -0.1567398E-06 Eh
 * total energy  :   -85.1022002 Eh     change        0.1666454E-07 Eh
 * total energy  :   -85.1022003 Eh     change       -0.9270558E-07 Eh
   *** GEOMETRY OPTIMIZATION CONVERGED AFTER 16 ITERATIONS ***

 final structure:
================
54
 xtb: 6.7.1 (edcfbbe)
C           -0.55968226149382        2.81596225187710        0.89796362394572
C            0.47609952944799        0.20162198042395       -0.03613218041972
C           -2.46439743667541        2.86384404376030       -1.10407105397776
C            1.40466856065702       -0.15095029413217       -1.12583443577878
C            2.53558862132645        1.40410217529740        0.23886806761552
N            3.96196051890002        1.00520304751988        0.27812433850466
C            4.15227744817456       -0.92890137809353       -0.71966694189408
C            3.08465940280786       -1.91010085475249       -1.02448949783782
C            1.78063200015965       -1.52213774579597       -1.08874964624971
N            0.73520274037100       -2.42348642345101       -0.93621596080253
C           -0.54116974614918       -2.04737512631752       -0.57834788083983
C           -1.58546577858197       -2.85217125575466       -0.81518818097350
C           -3.34104922310835       -2.10054479866572        0.86090450197931
N           -3.48195768430447       -0.79205383519755        1.47840777054385
C           -2.44343714890659        0.19470482057162        1.07811838964376
C           -0.70184096825363       -0.72811343343161        0.12128265002596
O           -2.19643683599855        4.21237364410622       -0.91678601537260
S           -0.88027284296509        1.74472291813697       -0.67430048037699
O           -0.28654941517524        2.13049906331563        2.01858079899483
C            1.49544943240337        0.57394907683395        0.98630339335068
C            2.00480159848135       -0.42369409800736        1.88899477142527
C            3.27542767468856       -0.85853068687041        1.79783555402684
C            4.21809604332602       -0.36459693605186        0.77125739534854
C            3.89155301823237        0.52444790403783       -1.12657109811137
C            2.42148895118409        0.93720952289011       -1.22869599079336
C           -1.88645688158711        0.20380472353368       -0.35302401786449
C           -1.31404013321993       -0.71944823776848        1.54414655000040
C           -2.40059414881943       -1.72046583260752        1.92531927039768
C           -3.01988002906521       -2.46291481796062       -0.57903642910606
C           -3.33762122271545       -1.35838356606105       -1.55183164476566
C           -2.79248653745621       -0.15390614829025       -1.46210595533219
H           -1.46001293709893        3.41147141316814        1.03815899016516
H            0.54840141950589        1.53922108595505        1.84206855208458
H            0.26649988258468        3.44522012857382        0.54357876581304
H           -1.57684523335676        4.51540303887258       -1.58967901835296
H           -2.70999605797078        2.64139281531808       -2.14374811663611
H           -3.28191543734947        2.58638244047670       -0.44277441342242
H            2.46162875732443        2.47447978734917        0.45137569256727
H            5.12892863729481       -1.29867445064970       -1.03551388021960
H            3.33094788517430       -2.95880113194860       -0.94529161134570
H            0.88931414469236       -3.38790745665695       -1.18369206428876
H           -1.41634139078069       -3.79815284893634       -1.30882252005363
H           -4.15048339927180       -2.71265191546618        1.25546170329356
H           -2.66772107506389        1.15092154315863        1.54178725471651
H            1.34290199256548       -0.88202661727333        2.61064438067050
H            3.64021164905697       -1.62059136004845        2.47017829996916
H            5.24508494472343       -0.41574037180175        1.14721926843561
H            4.57974586127068        0.97629966162458       -1.83929186292266
H            2.18673852628585        1.67758517757153       -1.99297501548736
H           -0.66808974334745       -0.44090221229511        2.36643983547091
H           -2.42292134390376       -2.19230833775269        2.89699328014762
H           -3.64496698593959       -3.32589644156452       -0.82158862367124
H           -3.98642596874729       -1.59899504426156       -2.38040421198311
H           -2.99009070853296        0.59028032149216       -2.21519366795720

 projected vibrational frequencies (cm⁻¹)
eigval :       -0.00    -0.00     0.00     0.00     0.00     0.00
eigval :       57.08    62.09    78.70   103.54   124.75   130.80
eigval :      140.29   153.13   168.89   188.51   196.26   221.54
eigval :      227.66   236.90   244.18   266.44   284.63   287.57
eigval :      296.73   315.05   338.41   360.12   368.17   388.82
eigval :      401.57   407.42   413.90   421.21   446.60   456.50
eigval :      473.42   486.29   501.32   507.14   516.40   535.84
eigval :      550.75   554.85   577.09   590.13   606.62   619.93
eigval :      637.58   678.03   685.55   702.03   712.24   728.30
eigval :      737.90   747.69   756.37   771.42   772.57   778.29
eigval :      792.09   805.26   808.46   816.47   835.25   850.53
eigval :      859.51   868.58   883.98   888.46   896.68   908.77
eigval :      912.25   922.95   952.56   958.74   966.64   979.26
eigval :      991.56   994.05  1022.29  1030.07  1047.60  1053.95
eigval :     1059.52  1066.98  1073.37  1077.40  1096.01  1098.32
eigval :     1113.51  1114.80  1121.83  1131.94  1138.77  1141.32
eigval :     1144.82  1151.07  1161.66  1164.72  1167.37  1174.07
eigval :     1179.04  1183.89  1190.15  1191.63  1197.11  1204.66
eigval :     1211.07  1221.98  1232.69  1234.87  1237.60  1243.74
eigval :     1253.07  1255.06  1258.36  1268.96  1278.59  1283.54
eigval :     1291.41  1300.16  1309.64  1315.50  1321.11  1335.94
eigval :     1339.62  1344.14  1347.29  1367.67  1381.67  1385.68
eigval :     1431.47  1448.65  1451.98  1539.44  1564.34  1680.42
eigval :     1696.29  2013.78  2884.73  2915.77  2917.73  2946.82
eigval :     2958.42  2961.30  2963.23  2977.79  2993.49  3002.04
eigval :     3010.59  3017.65  3051.28  3055.60  3067.13  3067.62
eigval :     3068.86  3075.81  3077.67  3111.47  3450.84  3544.43

   temp. (K)  partition function   enthalpy   heat capacity  entropy
                                   cal/mol     cal/K/mol   cal/K/mol   J/K/mol
 298.15  VIB  0.676E+07            12904.476     95.527     73.630
         ROT  0.121E+08              888.752      2.981     35.395
         INT  0.819E+14            13793.228     98.508    109.024
         TR   0.861E+28             1481.254      4.968     44.043
         TOT                       15274.4823   103.4758   153.0670   640.4325

       T/K    H(0)-H(T)+PV         H(T)/Eh          T*S/Eh         G(T)/Eh
   ------------------------------------------------------------------------
    298.15    0.243414E-01    0.442092E+00    0.727271E-01    0.369364E+00
   ------------------------------------------------------------------------

         :::::::::::::::::::::::::::::::::::::::::::::::::::::
         ::                  THERMODYNAMIC                  ::
         :::::::::::::::::::::::::::::::::::::::::::::::::::::
         :: total free energy         -84.732835855630 Eh   ::
         ::.................................................::
         :: total energy              -85.102200276985 Eh   ::
         :: zero point energy           0.417750073345 Eh   ::
         :: G(RRHO) w/o ZPVE           -0.048385651989 Eh   ::
         :: G(RRHO) contrib.            0.369364421355 Eh   ::
         :::::::::::::::::::::::::::::::::::::::::::::::::::::

           -------------------------------------------------
          | TOTAL ENERGY              -85.102200276985 Eh   |
          | TOTAL ENTHALPY            -84.660108766664 Eh   |
          | TOTAL FREE ENERGY         -84.732835855630 Eh   |
          | GRADIENT NORM               0.000059332270 Eh/α |
           -------------------------------------------------

 * finished run on 2025/07/16 at 13:59:51.632
