   * xtb version 6.7.1 (edcfbbe) compiled by 'albert@albert-system' on 2024-07-22

   ID    Z sym.   atoms
    1    6 C      1-5, 7-9, 11-13, 15, 16, 20-31
    2    7 N      6, 10, 14
    3    8 O      17, 19
    4   16 S      18
    5    1 H      32-54

          program call               : xtb data2507/gas/DMDHNP-DPS/DMDHNP-DPS.xyz --gfn 2 --ohess vtight --parallel 40 --molden --ceasefiles --namespace data2507/gas/DMDHNP-DPS/DMDHNP-DPS_gas_S0_preOpt
          :  Hamiltonian                  GFN2-xTB          :
 * total energy  :   -37.0808058 Eh     change       -0.1624575E-07 Eh
 * total energy  :   -66.9655340 Eh     change       -0.2988473E+02 Eh
 * total energy  :   -73.6772745 Eh     change       -0.6711740E+01 Eh
 * total energy  :   -76.9622019 Eh     change       -0.3284927E+01 Eh
 * total energy  :   -79.5094315 Eh     change       -0.2547230E+01 Eh
 * total energy  :   -81.0890812 Eh     change       -0.1579650E+01 Eh
 * total energy  :   -82.1576874 Eh     change       -0.1068606E+01 Eh
 * total energy  :   -82.9288128 Eh     change       -0.7711254E+00 Eh
 * total energy  :   -83.4881200 Eh     change       -0.5593072E+00 Eh
 * total energy  :   -83.8936585 Eh     change       -0.4055385E+00 Eh
 * total energy  :   -85.1308787 Eh     change       -0.1213806E-05 Eh
 * total energy  :   -85.1308794 Eh     change       -0.6752457E-06 Eh
 * total energy  :   -85.1308799 Eh     change       -0.4904072E-06 Eh
 * total energy  :   -85.1308804 Eh     change       -0.4819898E-06 Eh
 * total energy  :   -85.1308808 Eh     change       -0.4677309E-06 Eh
 * total energy  :   -85.1308812 Eh     change       -0.3771000E-06 Eh
 * total energy  :   -85.1308814 Eh     change       -0.2294383E-06 Eh
 * total energy  :   -85.1308816 Eh     change       -0.1109546E-06 Eh
 * total energy  :   -85.1308816 Eh     change       -0.5263558E-07 Eh
   *** GEOMETRY OPTIMIZATION CONVERGED AFTER 86 ITERATIONS ***

 final structure:
================
54
 xtb: 6.7.1 (edcfbbe)
C            1.06838959638112        3.32379273044306       -0.10344690024527
C            0.24708766425059        0.44180528519881        0.18652611787840
C           -0.38886929090931        2.24967962486938       -2.17231301132275
C            1.41604726328944       -0.28930963521370       -0.37224518867258
C            2.68491185463479        0.95737547793773        0.83872696507371
N            3.91888445345963        0.17826417237379        1.04910108826108
C            3.74981283963940       -1.73720745714480        0.02332984521932
C            2.51132114850062       -2.42698547033155       -0.43459293085428
C            1.37208205679164       -1.73705327409963       -0.59354090315861
N            0.13355223313775       -2.28473570215464       -0.80845585996676
C           -1.06499440596535       -1.67992811864338       -0.45434657773222
C           -2.21303232076240       -2.30071161835348       -0.75191170815737
C           -3.93821745579131       -1.21590585153927        0.77426658141058
N           -3.91257089709971        0.12120008973636        1.34152301504525
C           -2.69651252109753        0.90649632472984        0.96271730433981
C           -1.06566791791831       -0.33582516120523        0.20096761487145
O           -1.24923156829419        3.19961808400825       -2.65924685453389
S           -0.47379782439547        2.10862250490608       -0.30234579267027
O            0.65068534911462        4.51122195414370       -0.70236687364801
C            1.39329010791374        0.16818274284534        1.11943155493241
C            1.43866468265460       -0.80324312864529        2.21431174944326
C            2.57066919379868       -1.48633785265775        2.37359523912828
C            3.75486304334095       -1.22536161214015        1.51345980507634
C            3.92263806315438       -0.26009186560233       -0.36705866821719
C            2.65010729923883        0.53978937129941       -0.64846809151558
C           -2.01172278675252        0.74831394319266       -0.39547686788262
C           -1.77239710757666       -0.14729515873921        1.56718018993981
C           -3.02903322170146       -0.94050764437196        1.89916944710422
C           -3.57659921972907       -1.67985948993045       -0.62827935752041
C           -3.65692311680983       -0.56944499002587       -1.64486449208029
C           -2.90448015381657        0.51690384016328       -1.54632113969363
H            2.00256381469408        3.05116271260370       -0.57964006548514
H           -0.22842042745872        4.73843010113067       -0.37579189217491
H            1.19813805138278        3.44108178512232        0.97859823912874
H           -2.16376394063461        2.96215717598933       -2.45485008237131
H            0.61873416201664        2.56707749275839       -2.42938809383315
H           -0.59343618604924        1.23680817327753       -2.53604378105632
H            2.78114747085730        1.96102904817970        1.24104889532811
H            4.63121400228251       -2.34065559710844       -0.19463365023212
H            2.53661719696921       -3.49901161147012       -0.55050110263855
H            0.09085733167456       -3.26902435447491       -1.02757786518514
H           -2.16988984809787       -3.27056674206435       -1.22777273064843
H           -4.85800500461730       -1.68401925390397        1.12164049187058
H           -2.78890974193673        1.91814166188673        1.35609471172173
H            0.58527379416502       -0.96687027779400        2.85195798075435
H            2.68379829221619       -2.20960891030139        3.16645384737315
H            4.66939000095134       -1.52380906923454        2.03357051814951
H            4.79879501973559        0.00051284072596       -0.95817649900055
H            2.64819700959479        1.19752136125857       -1.51218305422287
H           -1.14532614253209        0.07697466330671        2.42299075229708
H           -3.19411651856693       -1.36988021054269        2.87748322410034
H           -4.31357783044911       -2.44244035240987       -0.89363094054466
H           -4.32141305815265       -0.71308643034413       -2.48465640303630
H           -2.99682248869893        1.28661167839176       -2.30401980011232

          :  Hamiltonian                  GFN2-xTB          :
         :: gradient norm              0.000026869070 Eh/a0 ::
         :: HOMO-LUMO gap              2.385344727221 eV    ::
         :: SCC energy               -86.221929817977 Eh    ::
         :: -> dispersion             -0.083219615279 Eh    ::
         :: repulsion energy           1.091048200635 Eh    ::

    * Orbital Energies and Occupations

         #    Occupation            Energy/Eh            Energy/eV
      -------------------------------------------------------------
         1        2.0000           -0.7462346             -20.3061
       ...           ...                  ...                  ...
        66        2.0000           -0.4341878             -11.8149
        67        2.0000           -0.4277325             -11.6392
        68        2.0000           -0.4190941             -11.4041
        69        2.0000           -0.4149251             -11.2907
        70        2.0000           -0.4136039             -11.2547
        71        2.0000           -0.4074378             -11.0869
        72        2.0000           -0.3954671             -10.7612
        73        2.0000           -0.3885248             -10.5723
        74        2.0000           -0.3821075             -10.3977
        75        2.0000           -0.3663282              -9.9683
        76        2.0000           -0.3589769              -9.7683
        77        2.0000           -0.3490782              -9.4989
        78        2.0000           -0.3292652              -8.9598 (HOMO)
        79                         -0.2416053              -6.5744 (LUMO)
        80                         -0.2357180              -6.4142
        81                         -0.2192267              -5.9655
        82                         -0.2071903              -5.6379
        83                         -0.1819491              -4.9511
        84                         -0.1767187              -4.8088
        85                         -0.1324426              -3.6039
        86                         -0.1139146              -3.0998
        87                         -0.1093241              -2.9749
        88                         -0.0629868              -1.7140
        89                         -0.0463277              -1.2606
       ...                                ...                  ...
       152                          0.6385647              17.3762
      -------------------------------------------------------------
                  HL-Gap            0.0876599 Eh            2.3853 eV

     #   Z          covCN         q      C6AA      α(0)
     1   6 C        3.637     0.026    20.506     6.515
     2   6 C        3.929     0.024    20.110     6.373
     3   6 C        3.663     0.110    19.027     6.257
     4   6 C        4.138     0.006    20.390     6.413
     5   6 C        4.257     0.050    19.648     6.295
     6   7 N        2.933    -0.223    25.852     7.552
     7   6 C        3.947    -0.018    20.832     6.486
     8   6 C        2.907    -0.098    30.468     9.051
     9   6 C        2.889     0.059    26.681     8.469
    10   7 N        2.704    -0.158    24.417     7.339
    11   6 C        2.882     0.053    26.819     8.490
    12   6 C        2.916    -0.086    30.146     9.003
    13   6 C        3.799     0.051    19.727     6.324
    14   7 N        2.819    -0.247    26.415     7.633
    15   6 C        4.259     0.052    19.628     6.292
    16   6 C        4.238     0.013    20.267     6.394
    17   8 O        1.663    -0.394    20.726     6.146
    18  16 S        3.961    -0.021   141.940    20.052
    19   8 O        1.665    -0.421    21.257     6.224
    20   6 C        4.064    -0.001    20.520     6.434
    21   6 C        2.895    -0.038    28.945     8.821
    22   6 C        2.905    -0.043    29.070     8.841
    23   6 C        4.043     0.047    19.711     6.306
    24   6 C        4.307     0.049    19.675     6.300
    25   6 C        4.115    -0.022    20.883     6.491
    26   6 C        4.036    -0.084    22.011     6.664
    27   6 C        4.136    -0.024    20.909     6.494
    28   6 C        4.081     0.033    19.931     6.341
    29   6 C        3.862    -0.010    20.717     6.473
    30   6 C        2.906    -0.034    28.845     8.806
    31   6 C        2.892    -0.037    28.924     8.818
    32   1 H        0.925     0.037     2.493     2.469
    33   1 H        0.805     0.292     0.747     1.357
    34   1 H        0.924     0.010     2.891     2.659
    35   1 H        0.805     0.309     0.695     1.309
    36   1 H        0.925     0.087     1.913     2.163
    37   1 H        0.924     0.048     2.343     2.394
    38   1 H        0.925     0.041     2.441     2.443
    39   1 H        0.925     0.032     2.553     2.499
    40   1 H        0.926     0.021     2.725     2.581
    41   1 H        0.860     0.162     1.324     1.802
    42   1 H        0.926     0.016     2.794     2.614
    43   1 H        0.925     0.034     2.532     2.488
    44   1 H        0.925     0.024     2.667     2.554
    45   1 H        0.926     0.033     2.544     2.494
    46   1 H        0.926     0.034     2.535     2.490
    47   1 H        0.924     0.041     2.439     2.442
    48   1 H        0.925     0.033     2.543     2.494
    49   1 H        0.925     0.024     2.674     2.557
    50   1 H        0.925     0.022     2.704     2.572
    51   1 H        0.926     0.021     2.720     2.579
    52   1 H        0.924     0.031     2.571     2.507
    53   1 H        0.926     0.024     2.669     2.555
    54   1 H        0.925     0.012     2.853     2.642

molecular dipole:
                 x           y           z       tot (Debye)
 q only:        0.172      -0.953      -0.318
   full:        0.200      -1.793      -0.355       4.673

 projected vibrational frequencies (cm⁻¹)
eigval :       -0.00    -0.00    -0.00     0.00     0.00     0.00
eigval :       30.30    54.50    67.27    91.35   125.17   132.93
eigval :      143.80   166.00   167.91   189.60   203.99   207.05
eigval :      212.44   235.85   244.57   271.54   273.26   283.68
eigval :      296.43   328.03   331.53   341.97   362.28   370.11
eigval :      384.90   406.95   420.12   433.81   458.00   464.76
eigval :      490.36   506.15   523.32   533.23   540.02   543.87
eigval :      555.38   559.07   585.79   607.71   630.93   635.84
eigval :      645.89   682.13   707.28   714.47   717.99   740.33
eigval :      745.98   761.47   764.40   771.22   783.22   791.81
eigval :      792.70   811.44   815.04   821.11   832.71   849.54
eigval :      864.68   875.03   883.44   889.39   901.32   904.90
eigval :      915.40   921.34   935.93   962.53   964.09   977.20
eigval :      992.52   999.20  1029.14  1051.01  1058.15  1066.62
eigval :     1068.85  1078.05  1083.14  1085.66  1093.17  1094.76
eigval :     1101.43  1106.58  1111.13  1114.93  1121.74  1123.18
eigval :     1142.96  1150.86  1154.43  1165.76  1166.33  1175.29
eigval :     1183.82  1187.74  1190.86  1194.64  1201.82  1206.48
eigval :     1214.55  1219.39  1226.04  1228.24  1231.87  1241.30
eigval :     1245.30  1247.40  1253.04  1265.12  1278.15  1283.23
eigval :     1286.36  1302.60  1315.80  1317.99  1323.27  1340.38
eigval :     1343.71  1352.88  1358.62  1375.61  1407.47  1414.80
eigval :     1431.70  1450.80  1468.51  1660.95  1673.87  1686.98
eigval :     1692.83  2891.52  2909.09  2938.90  2956.40  2970.71
eigval :     2973.74  2984.42  2990.14  3003.02  3009.43  3010.41
eigval :     3027.52  3031.28  3047.24  3053.18  3059.59  3064.82
eigval :     3081.26  3089.03  3098.59  3429.90  3474.65  3513.73

   temp. (K)  partition function   enthalpy   heat capacity  entropy
                                   cal/mol     cal/K/mol   cal/K/mol   J/K/mol
 298.15  VIB  0.155E+08            12887.994     94.117     73.773
         ROT  0.126E+08              888.752      2.981     35.470
         INT  0.195E+15            13776.746     97.098    109.244
         TR   0.861E+28             1481.254      4.968     44.043
         TOT                       15258.0001   102.0662   153.2862   641.3495

       T/K    H(0)-H(T)+PV         H(T)/Eh          T*S/Eh         G(T)/Eh
   ------------------------------------------------------------------------
    298.15    0.243152E-01    0.446695E+00    0.728312E-01    0.373864E+00
   ------------------------------------------------------------------------

         :::::::::::::::::::::::::::::::::::::::::::::::::::::
         ::                  THERMODYNAMIC                  ::
         :::::::::::::::::::::::::::::::::::::::::::::::::::::
         :: total free energy         -84.757017684639 Eh   ::
         ::.................................................::
         :: total energy              -85.130881617371 Eh   ::
         :: zero point energy           0.422379984704 Eh   ::
         :: G(RRHO) w/o ZPVE           -0.048516051972 Eh   ::
         :: G(RRHO) contrib.            0.373863932732 Eh   ::
         :::::::::::::::::::::::::::::::::::::::::::::::::::::

           -------------------------------------------------
          | TOTAL ENERGY              -85.130881617371 Eh   |
          | TOTAL ENTHALPY            -84.684186461832 Eh   |
          | TOTAL FREE ENERGY         -84.757017684639 Eh   |
          | GRADIENT NORM               0.000027198309 Eh/α |
          | HOMO-LUMO GAP               2.385348285942 eV   |
           -------------------------------------------------

 * finished run on 2025/07/16 at 13:51:23.935
