   * xtb version 6.7.1 (edcfbbe) compiled by 'albert@albert-system' on 2024-07-22

   ID    Z sym.   atoms
    1    6 C      1-9, 11-15, 17-23, 25-31, 33-40
    2    7 N      10, 16, 24, 32
    3    1 H      41-68

          program call               : xtb data2507/toluene/DMAC-TRZ/DMAC-TRZ_toluene_T1_crest.xyz --gfn 2 --uhf 2 --gbsa toluene --ohess vtight --parallel 40 --molden --ceasefiles --namespace data2507/toluene/DMAC-TRZ/DMAC-TRZ_toluene_T1_finalOpt
      * Solvation model:               GBSA
        Solvent                        toluene
        Solvent mass                       9.2140E+01 g/mol
          :  Hamiltonian                  GFN2-xTB          :
 * total energy  :  -103.0700970 Eh     change       -0.9746046E-08 Eh
 * total energy  :  -103.0702537 Eh     change       -0.1566663E-03 Eh
 * total energy  :  -103.0702989 Eh     change       -0.4520328E-04 Eh
 * total energy  :  -103.0703015 Eh     change       -0.2636416E-05 Eh
 * total energy  :  -103.0703008 Eh     change        0.7521261E-06 Eh
 * total energy  :  -103.0703029 Eh     change       -0.2118871E-05 Eh
 * total energy  :  -103.0703041 Eh     change       -0.1244719E-05 Eh
 * total energy  :  -103.0703060 Eh     change       -0.1896876E-05 Eh
 * total energy  :  -103.0703081 Eh     change       -0.2090749E-05 Eh
 * total energy  :  -103.0703102 Eh     change       -0.2097305E-05 Eh
 * total energy  :  -103.0703528 Eh     change       -0.1242207E-05 Eh
 * total energy  :  -103.0703535 Eh     change       -0.7559318E-06 Eh
 * total energy  :  -103.0703541 Eh     change       -0.5431598E-06 Eh
 * total energy  :  -103.0703545 Eh     change       -0.4004929E-06 Eh
 * total energy  :  -103.0703548 Eh     change       -0.3258608E-06 Eh
 * total energy  :  -103.0703551 Eh     change       -0.2575653E-06 Eh
 * total energy  :  -103.0703553 Eh     change       -0.2017537E-06 Eh
 * total energy  :  -103.0703554 Eh     change       -0.1527203E-06 Eh
 * total energy  :  -103.0703555 Eh     change       -0.9094973E-07 Eh
   *** GEOMETRY OPTIMIZATION CONVERGED AFTER 32 ITERATIONS ***

 final structure:
================
68
 xtb: 6.7.1 (edcfbbe)
C           -7.29621190734234        1.26305254342624        0.20442252071399
C           -6.42029268247435        0.01066827280422       -0.00108012080507
C           -7.31138063059158       -1.23059087016607       -0.20887605751082
C           -5.57687460777381       -0.19857834972128        1.23735582647005
C           -6.19216100133201       -0.40078339319598        2.46547025210294
C           -5.46438885418909       -0.58840998530048        3.62648144960639
C           -4.07731555574483       -0.56952526518784        3.57728517531448
C           -3.43828855270833       -0.37132607068489        2.37519301197876
C           -4.17211284489305       -0.19082394936438        1.19187520341005
N           -3.50195237341568       -0.00270346497666        0.00353598490693
C           -2.07676365918842       -0.00513661913539        0.00585339641656
C           -1.37360047059053        1.20191675325177        0.07400336319644
C           -0.00272813022352        1.20159304444735        0.07473675631241
C            0.72293651038036       -0.00852864033554        0.00567149430098
C            2.14188424852167       -0.01000508320023        0.00364355825614
N            2.81706452443813        1.16628267483475        0.06204287720482
C            4.12578273673794        1.13107016320054        0.05593066927645
C            4.86097687724107        2.39020213678556        0.11549474976109
C            4.18119732561267        3.60992960212473        0.10336109576046
C            4.88176684122299        4.79769665172588        0.15878877049335
C            6.26785212103222        4.78846000966239        0.22854972187533
C            6.95051180044692        3.58127296172142        0.24175317347627
C            6.25532337363147        2.38947614777037        0.18512484235767
N            4.84015498282801       -0.01246399185358       -0.00173167358422
C            4.12344072955073       -1.15462374475760       -0.05669475894820
C            4.85618564325557       -2.41503869333900       -0.12005725285740
C            4.17432305279046       -3.63357038778963       -0.10657375884753
C            4.87261811384919       -4.82250148705336       -0.16590612200002
C            6.25844699211950       -4.81560321788138       -0.24088904263904
C            6.94316651265168       -3.60959581897385       -0.25546677463566
C            6.25026592018636       -2.41666065284787       -0.19496180022103
N            2.81463715746409       -1.18759617426282       -0.05745628916191
C           -0.00566580043014       -1.21696164053291       -0.06216806793621
C           -1.37655597728047       -1.21395657296076       -0.06147546846217
C           -4.16667425853736        0.18892395136409       -1.18736198373481
C           -3.42755648466283        0.35973927942895       -2.36882884665370
C           -4.06098911179946        0.56096255086609       -3.57337172436938
C           -5.44764121981664        0.59357198289353       -3.62679002004365
C           -6.18071204427163        0.41567660972577       -2.46758790958656
C           -5.57112574783524        0.20953350596986       -1.23728198372750
H           -7.92795803475270        1.15094461542264        1.08027492230708
H           -6.66556991773356        2.13906514893504        0.34372561960286
H           -7.93425661997680        1.43166463174476       -0.65769624611884
H           -7.95367966807565       -1.39127639482945        0.65158007897731
H           -6.69152571645105       -2.11449428644316       -0.34680292736084
H           -7.93961992004721       -1.11044028375749       -1.08616414921432
H           -7.26907998431051       -0.41293704531192        2.52422046187337
H           -5.97421837032840       -0.74449093408242        4.56475035397144
H           -3.49590878526313       -0.70793076335826        4.47609458224665
H           -2.36070596480130       -0.35213914665734        2.33382465102357
H           -1.92380256332374        2.13046392435807        0.12767284747467
H            0.55210206287699        2.12545713879076        0.12944559106759
H            3.10313835999419        3.60127261547182        0.04832478006812
H            4.34835841910185        5.73728312338498        0.14778677993620
H            6.81362386052497        5.71944829149691        0.27171103125308
H            8.02963752942545        3.57147710906315        0.29650444459379
H            6.77179560978721        1.44167677266876        0.19555163852051
H            3.09650280863130       -3.62308264821131       -0.04745014815166
H            4.33762766352845       -5.76117235934400       -0.15388220576343
H            6.80241112548742       -5.74749480161447       -0.28717234432390
H            8.02208123705749       -3.60162781162710       -0.31428686184973
H            6.76831984690897       -1.46974136719955       -0.20636156421511
H            0.54690945390681       -2.14218335996249       -0.11677222715585
H           -1.92902204757779       -2.14115363684998       -0.11519894932575
H           -2.35034262385960        0.33046220519698       -2.32418405531999
H           -3.47551576490732        0.69128446358047       -4.47074355129480
H           -5.95307929629407        0.75265844166701       -4.56692015891902
H           -7.25726624568660        0.43870404418730       -2.52961725776936

          :  Hamiltonian                  GFN2-xTB          :
         :: gradient norm              0.000081306735 Eh/a0 ::
         :: HOMO-LUMO gap              0.168113207799 eV    ::
         :: SCC energy              -104.917343127582 Eh    ::
         :: -> dispersion             -0.089092962176 Eh    ::
         :: -> Gsolv                  -0.053604726030 Eh    ::
         :: repulsion energy           1.846987610899 Eh    ::

    * Orbital Energies and Occupations

         #    Occupation            Energy/Eh            Energy/eV
      -------------------------------------------------------------
         1        2.0000           -0.6868942             -18.6913
       ...           ...                  ...                  ...
        85        2.0000           -0.4197038             -11.4207
        86        2.0000           -0.4154643             -11.3054
        87        2.0000           -0.4093218             -11.1382
        88        2.0000           -0.4089037             -11.1268
        89        2.0000           -0.4074030             -11.0860
        90        2.0000           -0.4073643             -11.0849
        91        2.0000           -0.4018298             -10.9343
        92        2.0000           -0.4009558             -10.9106
        93        2.0000           -0.3937718             -10.7151
        94        1.8848           -0.3670622              -9.9883
        95        1.7656           -0.3662495              -9.9662
        96        1.3495           -0.3645349              -9.9195
        97        0.9627           -0.2814528              -7.6587 (HOMO)
        98        0.0373           -0.2752746              -7.4906 (LUMO)
        99                         -0.2443140              -6.6481
       100                         -0.2411543              -6.5621
       101                         -0.2355642              -6.4100
       102                         -0.2350219              -6.3953
       103                         -0.2243173              -6.1040
       104                         -0.2242979              -6.1035
       105                         -0.2221622              -6.0453
       106                         -0.2088756              -5.6838
       107                         -0.1900472              -5.1714
       108                         -0.1874539              -5.1009
       ...                                ...                  ...
       188                          0.6940873              18.8871
      -------------------------------------------------------------
                  HL-Gap            0.0061782 Eh            0.1681 eV

     #   Z          covCN         q      C6AA      α(0)
     1   6 C        3.761    -0.108    22.614     6.779
     2   6 C        3.909     0.025    20.102     6.373
     3   6 C        3.761    -0.108    22.615     6.779
     4   6 C        2.978     0.000    28.023     8.683
     5   6 C        2.925    -0.032    28.802     8.801
     6   6 C        2.917    -0.030    28.740     8.791
     7   6 C        2.917    -0.027    28.671     8.781
     8   6 C        2.922    -0.046    29.131     8.851
     9   6 C        2.930     0.062    26.619     8.461
    10   7 N        2.754    -0.011    21.462     6.881
    11   6 C        2.929     0.033    27.262     8.563
    12   6 C        2.914    -0.041    29.030     8.835
    13   6 C        2.922    -0.042    29.044     8.838
    14   6 C        2.977    -0.021    28.515     8.759
    15   6 C        2.936     0.169    24.368     8.096
    16   7 N        1.845    -0.304    28.722     7.943
    17   6 C        2.933     0.210    23.571     7.962
    18   6 C        2.983    -0.010    28.269     8.722
    19   6 C        2.923    -0.031    28.783     8.798
    20   6 C        2.918    -0.031    28.769     8.796
    21   6 C        2.920    -0.031    28.763     8.795
    22   6 C        2.917    -0.031    28.764     8.795
    23   6 C        2.924    -0.031    28.767     8.796
    24   7 N        1.843    -0.348    29.902     8.104
    25   6 C        2.933     0.210    23.571     7.962
    26   6 C        2.983    -0.010    28.269     8.721
    27   6 C        2.923    -0.031    28.783     8.798
    28   6 C        2.918    -0.031    28.769     8.796
    29   6 C        2.920    -0.031    28.763     8.795
    30   6 C        2.917    -0.031    28.764     8.795
    31   6 C        2.924    -0.031    28.767     8.796
    32   7 N        1.845    -0.304    28.724     7.943
    33   6 C        2.922    -0.042    29.045     8.838
    34   6 C        2.914    -0.041    29.030     8.835
    35   6 C        2.930     0.062    26.619     8.461
    36   6 C        2.922    -0.046    29.131     8.851
    37   6 C        2.917    -0.027    28.671     8.781
    38   6 C        2.917    -0.030    28.740     8.791
    39   6 C        2.925    -0.032    28.802     8.801
    40   6 C        2.978     0.000    28.023     8.683
    41   1 H        0.925     0.053     2.280     2.361
    42   1 H        0.925     0.038     2.477     2.461
    43   1 H        0.925     0.053     2.278     2.360
    44   1 H        0.925     0.053     2.278     2.360
    45   1 H        0.925     0.038     2.477     2.461
    46   1 H        0.925     0.053     2.280     2.361
    47   1 H        0.926     0.053     2.285     2.364
    48   1 H        0.926     0.046     2.367     2.406
    49   1 H        0.926     0.043     2.409     2.427
    50   1 H        0.926     0.043     2.414     2.430
    51   1 H        0.926     0.036     2.502     2.474
    52   1 H        0.926     0.036     2.499     2.472
    53   1 H        0.926     0.040     2.448     2.447
    54   1 H        0.926     0.039     2.462     2.454
    55   1 H        0.926     0.040     2.446     2.446
    56   1 H        0.926     0.038     2.474     2.460
    57   1 H        0.926     0.040     2.444     2.445
    58   1 H        0.926     0.040     2.447     2.446
    59   1 H        0.926     0.039     2.462     2.454
    60   1 H        0.926     0.040     2.446     2.446
    61   1 H        0.926     0.038     2.474     2.460
    62   1 H        0.926     0.040     2.444     2.445
    63   1 H        0.926     0.036     2.499     2.472
    64   1 H        0.926     0.036     2.502     2.473
    65   1 H        0.926     0.043     2.414     2.430
    66   1 H        0.926     0.043     2.409     2.427
    67   1 H        0.926     0.046     2.367     2.406
    68   1 H        0.926     0.053     2.285     2.364

molecular dipole:
                 x           y           z       tot (Debye)
 q only:       -5.212       0.010      -0.002
   full:       -4.980       0.010      -0.001      12.657

 projected vibrational frequencies (cm⁻¹)
eigval :       -0.00    -0.00    -0.00     0.00     0.00     0.00
eigval :       11.77    16.06    18.98    35.06    40.28    41.09
eigval :       48.07    49.03    55.65    67.24    91.50    94.64
eigval :       98.51   109.76   127.27   145.94   149.63   163.47
eigval :      198.25   203.71   205.87   215.43   221.28   231.52
eigval :      250.79   260.15   289.83   302.21   324.25   329.20
eigval :      336.85   355.53   365.40   369.33   370.11   374.72
eigval :      381.24   398.93   406.56   410.64   415.10   423.61
eigval :      446.42   470.23   499.31   520.02   537.78   539.65
eigval :      551.46   558.21   566.79   580.24   582.45   586.67
eigval :      589.20   591.81   602.92   608.19   641.60   652.95
eigval :      656.13   665.62   667.56   669.53   687.34   694.35
eigval :      702.19   726.78   762.71   763.01   772.75   774.46
eigval :      792.71   807.84   808.58   825.16   837.77   870.19
eigval :      871.99   872.14   872.41   889.63   897.74   899.29
eigval :      904.45   909.66   910.91   915.52   915.91   922.91
eigval :      923.25   924.63   926.13   926.64   926.84   936.76
eigval :      955.48   959.26   983.59   991.52   993.23  1011.84
eigval :     1058.60  1072.17  1072.97  1074.89  1083.15  1102.61
eigval :     1107.65  1108.37  1108.58  1119.83  1135.89  1138.67
eigval :     1144.24  1155.87  1160.72  1166.46  1176.56  1177.14
eigval :     1179.71  1180.50  1182.62  1188.72  1199.66  1226.81
eigval :     1235.51  1237.31  1251.95  1253.49  1267.67  1269.18
eigval :     1275.10  1291.40  1301.01  1308.24  1323.06  1328.01
eigval :     1329.54  1330.47  1334.81  1350.45  1396.16  1396.42
eigval :     1396.74  1411.25  1415.00  1420.68  1426.30  1433.46
eigval :     1435.25  1451.09  1462.82  1465.06  1472.03  1480.42
eigval :     1481.99  1483.43  1486.17  1491.05  1497.34  1546.20
eigval :     1558.19  1563.85  1567.92  1569.23  1575.04  1581.66
eigval :     1586.08  1592.84  3029.43  3031.35  3050.25  3052.11
eigval :     3057.09  3060.80  3070.26  3070.39  3072.98  3073.27
eigval :     3073.36  3074.89  3085.01  3085.26  3085.41  3085.59
eigval :     3092.22  3092.31  3093.57  3093.72  3093.88  3095.68
eigval :     3095.79  3097.57  3102.20  3102.57  3108.61  3109.10

   temp. (K)  partition function   enthalpy   heat capacity  entropy
                                   cal/mol     cal/K/mol   cal/K/mol   J/K/mol
 298.15  VIB  0.867E+15            19451.359    122.565    120.731
         ROT  0.314E+08              888.752      2.981     37.286
         INT  0.272E+23            20340.112    125.546    158.017
         TR   0.114E+29             1481.254      4.968     44.593
         TOT                       21821.3657   130.5138   202.6092   847.7171

       T/K    H(0)-H(T)+PV         H(T)/Eh          T*S/Eh         G(T)/Eh
   ------------------------------------------------------------------------
    298.15    0.347746E-01    0.560450E+00    0.962662E-01    0.464184E+00
   ------------------------------------------------------------------------

         :::::::::::::::::::::::::::::::::::::::::::::::::::::
         ::                  THERMODYNAMIC                  ::
         :::::::::::::::::::::::::::::::::::::::::::::::::::::
         :: total free energy        -102.606171960972 Eh   ::
         ::.................................................::
         :: total energy             -103.070355515542 Eh   ::
         :: zero point energy           0.525675186586 Eh   ::
         :: G(RRHO) w/o ZPVE           -0.061491632017 Eh   ::
         :: G(RRHO) contrib.            0.464183554569 Eh   ::
         :::::::::::::::::::::::::::::::::::::::::::::::::::::

           -------------------------------------------------
          | TOTAL ENERGY             -103.070355515542 Eh   |
          | TOTAL ENTHALPY           -102.509905769287 Eh   |
          | TOTAL FREE ENERGY        -102.606171960972 Eh   |
          | GRADIENT NORM               0.000077522415 Eh/α |
          | HOMO-LUMO GAP               0.168118022172 eV   |
           -------------------------------------------------

 * finished run on 2025/07/16 at 16:35:51.587
