   * xtb version 6.7.1 (edcfbbe) compiled by 'albert@albert-system' on 2024-07-22

   ID    Z sym.   atoms
    1    6 C      1-9, 11-15, 17-23, 25-31, 33-40
    2    7 N      10, 16, 24, 32
    3    1 H      41-68

          program call               : xtb data2507/toluene/DMAC-TRZ/DMAC-TRZ.xyz --gfn 2 --gbsa toluene --ohess vtight --parallel 40 --molden --ceasefiles --namespace data2507/toluene/DMAC-TRZ/DMAC-TRZ_toluene_S0_preOpt
      * Solvation model:               GBSA
        Solvent                        toluene
        Solvent mass                       9.2140E+01 g/mol
          :  Hamiltonian                  GFN2-xTB          :
 * total energy  :  -103.1260954 Eh     change       -0.2894424E-08 Eh
 * total energy  :  -103.1383406 Eh     change       -0.1224519E-01 Eh
 * total energy  :  -103.1422000 Eh     change       -0.3859446E-02 Eh
 * total energy  :  -103.1432165 Eh     change       -0.1016422E-02 Eh
 * total energy  :  -103.1437683 Eh     change       -0.5518172E-03 Eh
 * total energy  :  -103.1439096 Eh     change       -0.1413023E-03 Eh
 * total energy  :  -103.1439588 Eh     change       -0.4926991E-04 Eh
 * total energy  :  -103.1439801 Eh     change       -0.2126192E-04 Eh
 * total energy  :  -103.1439849 Eh     change       -0.4808051E-05 Eh
 * total energy  :  -103.1439894 Eh     change       -0.4524026E-05 Eh
 * total energy  :  -103.1439980 Eh     change       -0.1500941E-05 Eh
 * total energy  :  -103.1439992 Eh     change       -0.1107863E-05 Eh
 * total energy  :  -103.1440000 Eh     change       -0.8863636E-06 Eh
 * total energy  :  -103.1440008 Eh     change       -0.7355532E-06 Eh
 * total energy  :  -103.1440014 Eh     change       -0.5923648E-06 Eh
 * total energy  :  -103.1440018 Eh     change       -0.4520142E-06 Eh
 * total energy  :  -103.1440021 Eh     change       -0.3203056E-06 Eh
 * total energy  :  -103.1440024 Eh     change       -0.2323517E-06 Eh
 * total energy  :  -103.1440024 Eh     change       -0.1854502E-08 Eh
   *** GEOMETRY OPTIMIZATION CONVERGED AFTER 22 ITERATIONS ***

 final structure:
================
68
 xtb: 6.7.1 (edcfbbe)
C           -6.90117954424981        1.26314579363294        0.00075633600359
C           -6.01960313576272       -0.00000568117693       -0.00008713623315
C           -6.90113658330582       -1.26318725744088       -0.00097276858230
C           -5.16941952235905       -0.00082396981687        1.25723733151910
C           -5.78655364621772       -0.00161828089094        2.50089826551964
C           -5.06464310225315       -0.00223880946681        3.68065636129998
C           -3.68230258990578       -0.00198860728843        3.62762165014355
C           -3.04267994085587       -0.00121244753388        2.40543746048604
C           -3.77112972023243       -0.00070664002422        1.21221820439179
N           -3.09848293373756        0.00007666224082       -0.00001779890276
C           -1.67603912265020        0.00006554239235        0.00000745408059
C           -0.97961773180936        1.20523441231933       -0.00079371389708
C            0.40070431340370        1.20470966655213       -0.00076425003777
C            1.10265900955095        0.00003447501434       -0.00000859061932
C            2.56698632654600        0.00001489300917       -0.00000957870458
N            3.18969397219275        1.17503333458218       -0.00046553778201
C            4.52053248318360        1.12911961050186        0.00006432273254
C            5.25232398808151        2.39564130997326        0.00079428697475
C            4.56127802965101        3.60691074602644       -0.00381543585428
C            5.25606965712756        4.80110105897257       -0.00292266500019
C            6.64281940706618        4.79908913439579        0.00277348768217
C            7.33587701330174        3.59793684221566        0.00744427620914
C            6.64685102711557        2.40046061004968        0.00643250241955
N            5.22428677514552       -0.00002736162299        0.00001510112060
C            4.52049695408664       -1.12915198195544       -0.00006083476983
C            5.25224589989390       -2.39569819335721       -0.00071877460970
C            4.56115567311482       -3.60694341463626        0.00365567632920
C            5.25590443811447       -4.80115851897517        0.00284022537138
C            6.64265562220936       -4.79919629099463       -0.00252648905470
C            7.33575714104376       -3.59806825826717       -0.00695717313195
C            6.64677396555210       -2.40056738527742       -0.00603205319894
N            3.18965726820408       -1.17502293375827        0.00043919172267
C            0.40067741218171       -1.20462517884268        0.00076228874765
C           -0.97964410328808       -1.20511872474903        0.00081165371293
C           -3.77107337693084        0.00081201944413       -1.21228638676457
C           -3.04256863363144        0.00135655758246       -2.40547211082021
C           -3.68213363309537        0.00208711592249       -3.62768629230368
C           -5.06447150094743        0.00225003396797       -3.68078602758516
C           -5.78643669091393        0.00159579037007       -2.50106149765557
C           -5.16936085736497        0.00084743993401       -1.25737140141232
H           -7.53699362376505        1.29233521218232       -0.87970424498823
H           -7.53722536988761        1.29100391030580        0.88109256794957
H           -6.27443948625333        2.15346206296395        0.00151599321811
H           -7.53713173242318       -1.29107546507305       -0.88134496864847
H           -7.53700097495225       -1.29239154206815        0.87945073649700
H           -6.27436591643775       -2.15348179093921       -0.00168843621981
H           -6.86455162745987       -0.00176301160052        2.55761568371004
H           -5.57785939165648       -0.00286040532925        4.63061810581321
H           -3.09781624208237       -0.00237173623063        4.53614171035404
H           -1.96373053224841       -0.00094277603928        2.37011047729851
H           -1.52896285142714        2.13498469123005       -0.00141928531726
H            0.95479161117586        2.12998448347732       -0.00127450791500
H            3.48263033575162        3.58987901331890       -0.00818468143058
H            4.71670522473783        5.73670347486151       -0.00662313182904
H            7.18365597271551        5.73385186043953        0.00352303397732
H            8.41582853677440        3.59670846647591        0.01194274942206
H            7.16948126016140        1.45674393045282        0.01017309239660
H            3.48250752087965       -3.58987136267975        0.00775700464519
H            4.71650566746802       -5.73674194930091        0.00636932753992
H            7.18345953110036       -5.73397801556251       -0.00316823291295
H            8.41570977966387       -3.59687907408599       -0.01118687576144
H            7.16943924047988       -1.45686948961809       -0.00961014933998
H            0.95474399896740       -2.12991235729555        0.00128064379672
H           -1.52901011023125       -2.13485663210633        0.00143991885634
H           -1.96362118515677        0.00115302098501       -2.37009719184625
H           -3.09760395338963        0.00250555926577       -4.53617834604043
H           -5.57764275645236        0.00283824607495       -4.63077198001068
H           -6.86443193330864        0.00167956287072       -2.55782957276133

          :  Hamiltonian                  GFN2-xTB          :
         :: gradient norm              0.000029435171 Eh/a0 ::
         :: HOMO-LUMO gap              1.337799061678 eV    ::
         :: SCC energy              -104.999335916164 Eh    ::
         :: -> dispersion             -0.089292814407 Eh    ::
         :: -> Gsolv                  -0.046701488091 Eh    ::
         :: repulsion energy           1.855333539589 Eh    ::

    * Orbital Energies and Occupations

         #    Occupation            Energy/Eh            Energy/eV
      -------------------------------------------------------------
         1        2.0000           -0.6931417             -18.8613
       ...           ...                  ...                  ...
        84        2.0000           -0.4188539             -11.3976
        85        2.0000           -0.4174281             -11.3588
        86        2.0000           -0.4173713             -11.3573
        87        2.0000           -0.4146145             -11.2822
        88        2.0000           -0.4138886             -11.2625
        89        2.0000           -0.4077553             -11.0956
        90        2.0000           -0.4067150             -11.0673
        91        2.0000           -0.4031266             -10.9696
        92        2.0000           -0.3976170             -10.8197
        93        2.0000           -0.3922479             -10.6736
        94        2.0000           -0.3831887             -10.4271
        95        2.0000           -0.3826947             -10.4137
        96        2.0000           -0.3465273              -9.4295 (HOMO)
        97                         -0.2973641              -8.0917 (LUMO)
        98                         -0.2952309              -8.0336
        99                         -0.2539050              -6.9091
       100                         -0.2437891              -6.6338
       101                         -0.2345847              -6.3834
       102                         -0.2345715              -6.3830
       103                         -0.2239115              -6.0929
       104                         -0.2188504              -5.9552
       105                         -0.2178875              -5.9290
       106                         -0.2088855              -5.6841
       107                         -0.2032814              -5.5316
       ...                                ...                  ...
       188                          0.6824673              18.5709
      -------------------------------------------------------------
                  HL-Gap            0.0491632 Eh            1.3378 eV

     #   Z          covCN         q      C6AA      α(0)
     1   6 C        3.761    -0.104    22.532     6.767
     2   6 C        3.908     0.021    20.167     6.383
     3   6 C        3.761    -0.104    22.532     6.767
     4   6 C        2.979    -0.014    28.354     8.735
     5   6 C        2.928    -0.037    28.930     8.821
     6   6 C        2.917    -0.046    29.154     8.854
     7   6 C        2.919    -0.035    28.866     8.810
     8   6 C        2.924    -0.060    29.501     8.907
     9   6 C        2.928     0.058    26.698     8.474
    10   7 N        2.754    -0.074    22.678     7.073
    11   6 C        2.927     0.078    26.252     8.403
    12   6 C        2.920    -0.036    28.894     8.815
    13   6 C        2.923    -0.025    28.623     8.774
    14   6 C        2.983    -0.009    28.237     8.717
    15   6 C        2.981     0.217    23.433     7.940
    16   7 N        1.844    -0.321    29.179     8.005
    17   6 C        2.979     0.217    23.434     7.941
    18   6 C        2.983    -0.010    28.252     8.719
    19   6 C        2.923    -0.026    28.645     8.777
    20   6 C        2.918    -0.027    28.675     8.781
    21   6 C        2.920    -0.022    28.547     8.762
    22   6 C        2.918    -0.027    28.674     8.781
    23   6 C        2.923    -0.026    28.642     8.776
    24   7 N        1.844    -0.320    29.149     8.001
    25   6 C        2.979     0.217    23.434     7.941
    26   6 C        2.983    -0.010    28.252     8.719
    27   6 C        2.923    -0.026    28.645     8.777
    28   6 C        2.918    -0.027    28.675     8.781
    29   6 C        2.920    -0.022    28.547     8.762
    30   6 C        2.918    -0.027    28.674     8.781
    31   6 C        2.923    -0.026    28.642     8.776
    32   7 N        1.844    -0.321    29.179     8.005
    33   6 C        2.923    -0.025    28.623     8.774
    34   6 C        2.920    -0.036    28.894     8.815
    35   6 C        2.928     0.058    26.698     8.474
    36   6 C        2.924    -0.060    29.501     8.907
    37   6 C        2.919    -0.035    28.866     8.810
    38   6 C        2.917    -0.046    29.154     8.854
    39   6 C        2.928    -0.037    28.930     8.821
    40   6 C        2.979    -0.014    28.354     8.735
    41   1 H        0.925     0.042     2.420     2.433
    42   1 H        0.925     0.042     2.420     2.433
    43   1 H        0.925     0.030     2.584     2.514
    44   1 H        0.925     0.042     2.420     2.433
    45   1 H        0.925     0.042     2.420     2.433
    46   1 H        0.925     0.030     2.584     2.514
    47   1 H        0.926     0.034     2.533     2.489
    48   1 H        0.926     0.027     2.636     2.539
    49   1 H        0.926     0.026     2.641     2.541
    50   1 H        0.926     0.020     2.728     2.583
    51   1 H        0.926     0.055     2.259     2.350
    52   1 H        0.926     0.060     2.200     2.320
    53   1 H        0.926     0.051     2.311     2.378
    54   1 H        0.926     0.048     2.346     2.395
    55   1 H        0.926     0.050     2.316     2.380
    56   1 H        0.926     0.048     2.345     2.395
    57   1 H        0.926     0.051     2.307     2.375
    58   1 H        0.926     0.051     2.311     2.378
    59   1 H        0.926     0.048     2.346     2.395
    60   1 H        0.926     0.050     2.316     2.380
    61   1 H        0.926     0.048     2.345     2.395
    62   1 H        0.926     0.051     2.307     2.375
    63   1 H        0.926     0.060     2.200     2.320
    64   1 H        0.926     0.055     2.259     2.350
    65   1 H        0.926     0.020     2.728     2.583
    66   1 H        0.926     0.026     2.641     2.541
    67   1 H        0.926     0.027     2.636     2.539
    68   1 H        0.926     0.034     2.533     2.489

molecular dipole:
                 x           y           z       tot (Debye)
 q only:        0.359      -0.000       0.000
   full:        0.447      -0.000       0.000       1.135

 projected vibrational frequencies (cm⁻¹)
eigval :       -0.00    -0.00    -0.00     0.00     0.00     0.00
eigval :      -22.65   -15.59   -11.55    13.48    18.39    24.28
eigval :       38.14    47.86    58.15    62.64    85.29    91.42
eigval :       93.19   103.77   126.70   129.11   155.25   162.78
eigval :      180.51   189.17   203.39   208.53   219.92   231.10
eigval :      258.81   271.94   295.49   300.04   325.40   329.47
eigval :      343.60   361.89   362.85   363.18   372.75   377.00
eigval :      383.38   399.64   409.15   421.45   438.54   443.08
eigval :      448.62   487.79   490.81   513.45   546.18   551.92
eigval :      554.54   576.32   587.21   587.64   590.70   606.42
eigval :      616.22   621.14   626.84   633.09   647.90   662.17
eigval :      673.48   676.85   680.51   691.95   709.20   737.41
eigval :      751.36   775.40   776.93   778.05   794.93   817.82
eigval :      828.90   845.85   846.70   866.39   866.46   869.89
eigval :      874.91   876.54   910.97   911.41   912.13   912.34
eigval :      915.61   920.74   920.77   921.35   923.91   928.03
eigval :      929.75   930.62   934.33   934.43   939.05   957.17
eigval :      974.17   989.27  1011.05  1012.65  1048.19  1073.91
eigval :     1074.22  1075.53  1085.18  1087.41  1106.90  1110.96
eigval :     1111.20  1117.97  1119.45  1138.34  1158.58  1161.21
eigval :     1165.32  1169.12  1176.58  1177.31  1182.02  1185.12
eigval :     1185.48  1192.20  1201.34  1205.48  1210.27  1243.90
eigval :     1247.85  1251.76  1266.18  1267.40  1268.73  1292.68
eigval :     1312.52  1313.53  1323.76  1326.58  1327.77  1333.24
eigval :     1338.32  1366.70  1369.01  1374.61  1399.09  1401.74
eigval :     1418.28  1428.81  1430.39  1435.56  1440.01  1462.66
eigval :     1469.14  1477.03  1480.90  1486.10  1487.12  1495.97
eigval :     1496.75  1501.94  1507.78  1510.69  1565.03  1573.68
eigval :     1580.97  1582.46  1586.98  1590.23  1590.91  1592.21
eigval :     1592.87  1600.66  3021.99  3024.50  3039.08  3040.70
eigval :     3047.46  3051.09  3071.30  3071.37  3077.34  3077.41
eigval :     3079.06  3079.18  3082.27  3082.39  3088.13  3088.40
eigval :     3088.66  3089.63  3091.66  3091.88  3094.62  3096.02
eigval :     3103.85  3104.57  3105.13  3106.19  3108.58  3109.75

   temp. (K)  partition function   enthalpy   heat capacity  entropy
                                   cal/mol     cal/K/mol   cal/K/mol   J/K/mol
 298.15  VIB  0.955E+15            18749.000    118.045    116.843
         ROT  0.313E+08              888.752      2.981     37.279
         INT  0.299E+23            19637.752    121.026    154.123
         TR   0.114E+29             1481.254      4.968     44.593
         TOT                       21119.0063   125.9945   198.7155   831.4257

       T/K    H(0)-H(T)+PV         H(T)/Eh          T*S/Eh         G(T)/Eh
   ------------------------------------------------------------------------
    298.15    0.336553E-01    0.564350E+00    0.944162E-01    0.469934E+00
   ------------------------------------------------------------------------

         :::::::::::::::::::::::::::::::::::::::::::::::::::::
         ::                  THERMODYNAMIC                  ::
         :::::::::::::::::::::::::::::::::::::::::::::::::::::
         :: total free energy        -102.674068328090 Eh   ::
         ::.................................................::
         :: total energy             -103.144002376456 Eh   ::
         :: zero point energy           0.530694923178 Eh   ::
         :: G(RRHO) w/o ZPVE           -0.060760874811 Eh   ::
         :: G(RRHO) contrib.            0.469934048366 Eh   ::
         :::::::::::::::::::::::::::::::::::::::::::::::::::::

           -------------------------------------------------
          | TOTAL ENERGY             -103.144002376456 Eh   |
          | TOTAL ENTHALPY           -102.579652174529 Eh   |
          | TOTAL FREE ENERGY        -102.674068328090 Eh   |
          | GRADIENT NORM               0.000029434215 Eh/α |
          | HOMO-LUMO GAP               1.337799234381 eV   |
           -------------------------------------------------

 * finished run on 2025/07/16 at 16:28:41.316
