   * xtb version 6.7.1 (edcfbbe) compiled by 'albert@albert-system' on 2024-07-22

   ID    Z sym.   atoms
    1    6 C      1-9, 11-15, 17-23, 25-31, 33-40
    2    7 N      10, 16, 24, 32
    3    1 H      41-68

          program call               : xtb data2507/toluene/DMAC-TRZ/DMAC-TRZ_toluene_S0_crest.xyz --gfn 2 --gbsa toluene --ohess vtight --parallel 40 --molden --ceasefiles --namespace data2507/toluene/DMAC-TRZ/DMAC-TRZ_toluene_S0_finalOpt
      * Solvation model:               GBSA
        Solvent                        toluene
        Solvent mass                       9.2140E+01 g/mol
          :  Hamiltonian                  GFN2-xTB          :
 * total energy  :  -103.1439987 Eh     change       -0.1390262E-08 Eh
 * total energy  :  -103.1440352 Eh     change       -0.3659172E-04 Eh
 * total energy  :  -103.1440441 Eh     change       -0.8903128E-05 Eh
 * total energy  :  -103.1440468 Eh     change       -0.2607298E-05 Eh
 * total energy  :  -103.1440487 Eh     change       -0.1971693E-05 Eh
 * total energy  :  -103.1440503 Eh     change       -0.1590795E-05 Eh
 * total energy  :  -103.1440522 Eh     change       -0.1923333E-05 Eh
 * total energy  :  -103.1440544 Eh     change       -0.2141528E-05 Eh
 * total energy  :  -103.1440565 Eh     change       -0.2076393E-05 Eh
 * total energy  :  -103.1440584 Eh     change       -0.1925205E-05 Eh
 * total energy  :  -103.1441154 Eh     change        0.2373847E-07 Eh
 * total energy  :  -103.1441156 Eh     change       -0.2099309E-06 Eh
 * total energy  :  -103.1441158 Eh     change       -0.1462851E-06 Eh
 * total energy  :  -103.1441160 Eh     change       -0.1926406E-06 Eh
 * total energy  :  -103.1441162 Eh     change       -0.1764056E-06 Eh
 * total energy  :  -103.1441163 Eh     change       -0.1789015E-06 Eh
 * total energy  :  -103.1441166 Eh     change       -0.2774478E-06 Eh
 * total energy  :  -103.1441170 Eh     change       -0.3611297E-06 Eh
 * total energy  :  -103.1441170 Eh     change       -0.3543036E-08 Eh
   *** GEOMETRY OPTIMIZATION CONVERGED AFTER 44 ITERATIONS ***

 final structure:
================
68
 xtb: 6.7.1 (edcfbbe)
C           -7.29144572109033        1.13375378316811       -0.56571102780089
C           -6.41103095854300       -0.00160482601500       -0.01016554041950
C           -7.29209815680207       -1.13812695604432        0.54199246570001
C           -5.56354104248342        0.54601151953579        1.12303165906785
C           -6.18602662725178        1.08239315537281        2.24255180918657
C           -5.46992465829437        1.56974258448736        3.32039788345092
C           -4.08821804039259        1.50731558628219        3.29647773366071
C           -3.44393280132136        0.98078859632046        2.19637309543016
C           -4.16524758430273        0.51422673913314        1.09304822784140
N           -3.48745328942064       -0.00043815917411       -0.00402480559777
C           -2.06909617312863       -0.00072123903490       -0.00071299016950
C           -1.36983893225430        1.18731911829467       -0.19945229956756
C            0.00976611125339        1.18627445377982       -0.19746110457561
C            0.71214492224119       -0.00155620849771        0.00481300610681
C            2.17513450889152       -0.00207409871510        0.00630216266706
N            2.79896665429458        1.15223174426915       -0.21321531858989
C            4.12934602622327        1.10617441268442       -0.20539815199688
C            4.86103325161350        2.35013166132253       -0.44477625233210
C            4.17151334265807        3.52205646691199       -0.75428107703050
C            4.86551838933281        4.69481626843132       -0.98188524602052
C            6.24986501938365        4.71058180209032       -0.90172726884845
C            6.94127786948383        3.54867564385090       -0.59347066877988
C            6.25302436078254        2.37254909003435       -0.36559512074432
N            4.83326880662679       -0.00314083630684        0.00580998517840
C            4.12850040662575       -1.11178908535282        0.21789038915965
C            4.85954070785056       -2.35627069624331        0.45660481707616
C            4.16960534991653       -3.52839555837411        0.76439778061026
C            4.86324263968433       -4.70167489949715        0.99053676006740
C            6.24760273611134       -4.71774670778239        0.91069625951953
C            6.93944303964392       -3.55560887045372        0.60429500199138
C            6.25156189529518       -2.37898741025447        0.37784845592476
N            2.79806708478681       -1.15678282544942        0.22633413797004
C            0.00830400367288       -1.18890299519083        0.20473553826068
C           -1.37130603359613       -1.18910129334572        0.20118515593953
C           -4.16023164489008       -0.51567014704358       -1.10391999911936
C           -3.43391407177900       -0.98196377766901       -2.20407373165111
C           -4.07314024486808       -1.50930188959496       -3.30674093728730
C           -5.45469358402511       -1.57258994906775       -3.33658454707714
C           -6.17570580318618       -1.08532813180501       -2.26197561560055
C           -5.55836106688235       -0.54833885117013       -1.13989764448182
H           -7.92560529851422        1.54853551770784        0.21276716402572
H           -6.66323865944236        1.93148345518993       -0.95870593836455
H           -7.92904399632046        0.77297279551073       -1.36790001893621
H           -7.93431246544208       -0.77781644451830        1.34070819289488
H           -6.66434675647201       -1.93431942847028        0.93882856674700
H           -7.92158300077139       -1.55481216714003       -0.23925620946471
H           -7.26400736616939        1.12163958418277        2.28136441648150
H           -5.98674411430876        1.98368922468357        4.17317150858409
H           -3.50725324708398        1.86478529099626        4.13405792423593
H           -2.36613348062455        0.92457738429990        2.19214897496322
H           -1.91831753059212        2.10475352281995       -0.35404167303394
H            0.56393312834453        2.09819534297153       -0.35394504256707
H            3.09478484699652        3.49116741320067       -0.81403007912172
H            4.32746715513646        5.59978342999139       -1.22226720976828
H            6.79010215937092        5.62859765617349       -1.07957706876234
H            8.01927393684445        3.56159565908585       -0.53012204946782
H            6.77420443316268        1.45971215770720       -0.12280760710357
H            3.09285325335738       -3.49736717452217        0.82371923336021
H            4.32487853274487       -5.60685896907167        1.22940704004978
H            6.78753665475843       -5.63618346472491        1.08734033396127
H            8.01745934515531       -3.56872252241885        0.54126533745105
H            6.77303328056918       -1.46595495098928        0.13642340026533
H            0.56131556649830       -2.10113759752860        0.36345523382257
H           -1.92097815904926       -2.10618187527415        0.35361818804160
H           -2.35618063181766       -0.92500416791189       -2.19529091691890
H           -3.48833425595256       -1.86680537890795       -4.14162567881171
H           -5.96757078086771       -1.98719820677419       -4.19142718906024
H           -7.25349071997237       -1.12526068905524       -2.30536960522130

          :  Hamiltonian                  GFN2-xTB          :
         :: gradient norm              0.000043399753 Eh/a0 ::
         :: HOMO-LUMO gap              1.390703106548 eV    ::
         :: SCC energy              -104.999308261059 Eh    ::
         :: -> dispersion             -0.089339344652 Eh    ::
         :: -> Gsolv                  -0.046750691810 Eh    ::
         :: repulsion energy           1.855191286066 Eh    ::

    * Orbital Energies and Occupations

         #    Occupation            Energy/Eh            Energy/eV
      -------------------------------------------------------------
         1        2.0000           -0.6922500             -18.8371
       ...           ...                  ...                  ...
        84        2.0000           -0.4182016             -11.3798
        85        2.0000           -0.4171352             -11.3508
        86        2.0000           -0.4170566             -11.3487
        87        2.0000           -0.4142478             -11.2723
        88        2.0000           -0.4134810             -11.2514
        89        2.0000           -0.4080787             -11.1044
        90        2.0000           -0.4070944             -11.0776
        91        2.0000           -0.4037646             -10.9870
        92        2.0000           -0.3980534             -10.8316
        93        2.0000           -0.3926778             -10.6853
        94        2.0000           -0.3823794             -10.4051
        95        2.0000           -0.3819884             -10.3944
        96        2.0000           -0.3475578              -9.4575 (HOMO)
        97                         -0.2964504              -8.0668 (LUMO)
        98                         -0.2944645              -8.0128
        99                         -0.2532916              -6.8924
       100                         -0.2425216              -6.5993
       101                         -0.2343118              -6.3759
       102                         -0.2342992              -6.3756
       103                         -0.2246638              -6.1134
       104                         -0.2195408              -5.9740
       105                         -0.2184457              -5.9442
       106                         -0.2087256              -5.6797
       107                         -0.2029614              -5.5229
       ...                                ...                  ...
       188                          0.6830485              18.5867
      -------------------------------------------------------------
                  HL-Gap            0.0511074 Eh            1.3907 eV

     #   Z          covCN         q      C6AA      α(0)
     1   6 C        3.761    -0.104    22.535     6.767
     2   6 C        3.909     0.021    20.165     6.383
     3   6 C        3.761    -0.104    22.535     6.767
     4   6 C        2.979    -0.013    28.338     8.732
     5   6 C        2.928    -0.037    28.927     8.820
     6   6 C        2.917    -0.046    29.137     8.852
     7   6 C        2.919    -0.035    28.862     8.810
     8   6 C        2.924    -0.060    29.491     8.906
     9   6 C        2.927     0.058    26.707     8.475
    10   7 N        2.754    -0.071    22.616     7.063
    11   6 C        2.927     0.077    26.278     8.407
    12   6 C        2.920    -0.037    28.917     8.818
    13   6 C        2.923    -0.025    28.635     8.775
    14   6 C        2.983    -0.010    28.268     8.721
    15   6 C        2.980     0.217    23.433     7.940
    16   7 N        1.844    -0.322    29.204     8.009
    17   6 C        2.979     0.217    23.429     7.940
    18   6 C        2.983    -0.010    28.253     8.719
    19   6 C        2.923    -0.026    28.648     8.777
    20   6 C        2.918    -0.027    28.678     8.782
    21   6 C        2.920    -0.022    28.552     8.763
    22   6 C        2.918    -0.027    28.677     8.781
    23   6 C        2.923    -0.026    28.645     8.777
    24   7 N        1.844    -0.321    29.185     8.006
    25   6 C        2.979     0.217    23.429     7.940
    26   6 C        2.983    -0.010    28.253     8.719
    27   6 C        2.923    -0.026    28.648     8.777
    28   6 C        2.918    -0.027    28.678     8.782
    29   6 C        2.920    -0.022    28.552     8.763
    30   6 C        2.918    -0.027    28.677     8.781
    31   6 C        2.923    -0.026    28.645     8.777
    32   7 N        1.844    -0.322    29.204     8.009
    33   6 C        2.923    -0.025    28.635     8.775
    34   6 C        2.920    -0.037    28.916     8.818
    35   6 C        2.927     0.058    26.707     8.475
    36   6 C        2.924    -0.060    29.490     8.906
    37   6 C        2.919    -0.035    28.862     8.810
    38   6 C        2.917    -0.046    29.137     8.852
    39   6 C        2.928    -0.037    28.927     8.820
    40   6 C        2.979    -0.013    28.338     8.732
    41   1 H        0.925     0.043     2.415     2.430
    42   1 H        0.925     0.030     2.580     2.512
    43   1 H        0.925     0.042     2.416     2.431
    44   1 H        0.925     0.042     2.416     2.431
    45   1 H        0.925     0.030     2.580     2.512
    46   1 H        0.925     0.043     2.415     2.430
    47   1 H        0.926     0.035     2.523     2.484
    48   1 H        0.926     0.027     2.626     2.534
    49   1 H        0.926     0.027     2.630     2.536
    50   1 H        0.926     0.022     2.702     2.570
    51   1 H        0.926     0.054     2.267     2.355
    52   1 H        0.926     0.059     2.213     2.326
    53   1 H        0.926     0.050     2.315     2.379
    54   1 H        0.926     0.048     2.349     2.397
    55   1 H        0.926     0.050     2.319     2.381
    56   1 H        0.926     0.048     2.348     2.396
    57   1 H        0.926     0.051     2.311     2.377
    58   1 H        0.926     0.050     2.315     2.379
    59   1 H        0.926     0.048     2.349     2.397
    60   1 H        0.926     0.050     2.319     2.381
    61   1 H        0.926     0.048     2.348     2.396
    62   1 H        0.926     0.051     2.311     2.377
    63   1 H        0.926     0.059     2.213     2.326
    64   1 H        0.926     0.054     2.267     2.355
    65   1 H        0.926     0.022     2.702     2.570
    66   1 H        0.926     0.027     2.630     2.536
    67   1 H        0.926     0.027     2.626     2.534
    68   1 H        0.926     0.035     2.523     2.484

molecular dipole:
                 x           y           z       tot (Debye)
 q only:        0.171      -0.000      -0.002
   full:        0.261      -0.000      -0.001       0.664

 projected vibrational frequencies (cm⁻¹)
eigval :       -0.00    -0.00    -0.00     0.00     0.00     0.00
eigval :      -11.61    19.10    19.51    28.59    34.80    42.53
eigval :       43.48    49.70    57.28    64.77    93.88    94.04
eigval :      100.15   102.40   129.72   143.80   153.94   168.05
eigval :      183.10   204.18   205.39   212.21   217.71   233.39
eigval :      258.26   272.73   295.12   301.44   328.35   330.68
eigval :      344.66   364.58   365.92   366.16   372.43   378.13
eigval :      382.53   406.04   409.66   421.58   442.91   443.36
eigval :      449.19   487.68   495.60   514.05   547.19   552.25
eigval :      554.77   577.16   586.93   587.42   589.96   606.83
eigval :      616.39   620.42   629.07   636.34   647.36   665.06
eigval :      674.70   676.33   681.11   692.85   708.54   737.42
eigval :      752.88   773.36   774.40   775.82   795.53   819.63
eigval :      829.22   845.37   846.84   866.07   866.64   869.20
eigval :      877.05   878.40   909.62   910.33   910.98   912.13
eigval :      915.15   917.20   917.30   920.85   923.64   927.34
eigval :      930.92   932.53   934.00   934.28   939.87   959.09
eigval :      974.14   989.23  1012.92  1014.20  1047.97  1074.28
eigval :     1074.47  1075.96  1084.85  1087.44  1106.78  1110.44
eigval :     1112.65  1118.01  1119.44  1138.77  1159.06  1161.47
eigval :     1165.97  1169.64  1176.36  1177.23  1182.29  1184.78
eigval :     1185.36  1192.09  1201.95  1205.75  1209.72  1244.16
eigval :     1249.15  1252.53  1267.28  1267.31  1268.74  1292.84
eigval :     1311.26  1315.00  1324.38  1326.69  1328.02  1332.32
eigval :     1334.73  1367.20  1367.43  1374.38  1400.78  1403.39
eigval :     1419.41  1428.29  1430.12  1433.76  1438.10  1463.11
eigval :     1469.25  1476.11  1481.10  1488.24  1488.30  1494.96
eigval :     1497.91  1503.34  1506.95  1509.34  1563.32  1573.47
eigval :     1581.25  1582.41  1585.97  1589.92  1590.25  1592.54
eigval :     1593.19  1600.06  3022.03  3024.52  3039.40  3041.41
eigval :     3047.83  3051.89  3072.55  3072.63  3078.31  3078.38
eigval :     3080.14  3080.24  3082.72  3082.85  3088.08  3089.21
eigval :     3090.24  3090.60  3092.29  3092.48  3097.03  3098.17
eigval :     3103.99  3104.30  3105.10  3106.30  3107.85  3109.04

   temp. (K)  partition function   enthalpy   heat capacity  entropy
                                   cal/mol     cal/K/mol   cal/K/mol   J/K/mol
 298.15  VIB  0.825E+15            19139.487    119.690    119.088
         ROT  0.313E+08              888.752      2.981     37.280
         INT  0.258E+23            20028.239    122.671    156.367
         TR   0.114E+29             1481.254      4.968     44.593
         TOT                       21509.4930   127.6390   200.9601   840.8170

       T/K    H(0)-H(T)+PV         H(T)/Eh          T*S/Eh         G(T)/Eh
   ------------------------------------------------------------------------
    298.15    0.342776E-01    0.565431E+00    0.954826E-01    0.469948E+00
   ------------------------------------------------------------------------

         :::::::::::::::::::::::::::::::::::::::::::::::::::::
         ::                  THERMODYNAMIC                  ::
         :::::::::::::::::::::::::::::::::::::::::::::::::::::
         :: total free energy        -102.674169075985 Eh   ::
         ::.................................................::
         :: total energy             -103.144116975486 Eh   ::
         :: zero point energy           0.531152964418 Eh   ::
         :: G(RRHO) w/o ZPVE           -0.061205064918 Eh   ::
         :: G(RRHO) contrib.            0.469947899500 Eh   ::
         :::::::::::::::::::::::::::::::::::::::::::::::::::::

           -------------------------------------------------
          | TOTAL ENERGY             -103.144116975486 Eh   |
          | TOTAL ENTHALPY           -102.578686452093 Eh   |
          | TOTAL FREE ENERGY        -102.674169075985 Eh   |
          | GRADIENT NORM               0.000043402826 Eh/α |
          | HOMO-LUMO GAP               1.390703331222 eV   |
           -------------------------------------------------

 * finished run on 2025/07/16 at 16:31:26.610
