   * xtb version 6.7.1 (edcfbbe) compiled by 'albert@albert-system' on 2024-07-22

   ID    Z sym.   atoms
    1    6 C      1-9, 11-15, 17-23, 25-31, 33-40
    2    7 N      10, 16, 24, 32
    3    1 H      41-68

          program call               : xtb data2507/toluene/DMAC-TRZ/DMAC-TRZ_toluene_S0_finalOpt.xtbopt.xyz --gfn 2 --uhf 2 --gbsa toluene --ohess vtight --parallel 40 --molden --ceasefiles --namespace data2507/toluene/DMAC-TRZ/DMAC-TRZ_toluene_T1_preOpt
      * Solvation model:               GBSA
        Solvent                        toluene
        Solvent mass                       9.2140E+01 g/mol
          :  Hamiltonian                  GFN2-xTB          :
 * total energy  :  -103.0667877 Eh     change       -0.5464577E-07 Eh
 * total energy  :  -103.0688425 Eh     change       -0.2054844E-02 Eh
 * total energy  :  -103.0698511 Eh     change       -0.1008630E-02 Eh
 * total energy  :  -103.0700237 Eh     change       -0.1725471E-03 Eh
 * total energy  :  -103.0701845 Eh     change       -0.1608689E-03 Eh
 * total energy  :  -103.0702154 Eh     change       -0.3086097E-04 Eh
 * total energy  :  -103.0702308 Eh     change       -0.1542714E-04 Eh
 * total energy  :  -103.0702376 Eh     change       -0.6800412E-05 Eh
 * total energy  :  -103.0702449 Eh     change       -0.7271481E-05 Eh
 * total energy  :  -103.0702549 Eh     change       -0.1002493E-04 Eh
 * total energy  :  -103.0703269 Eh     change       -0.9507641E-06 Eh
 * total energy  :  -103.0703279 Eh     change       -0.1032253E-05 Eh
 * total energy  :  -103.0703289 Eh     change       -0.1014098E-05 Eh
 * total energy  :  -103.0703298 Eh     change       -0.8724457E-06 Eh
 * total energy  :  -103.0703305 Eh     change       -0.6903480E-06 Eh
 * total energy  :  -103.0703310 Eh     change       -0.5371432E-06 Eh
 * total energy  :  -103.0703315 Eh     change       -0.4369403E-06 Eh
 * total energy  :  -103.0703314 Eh     change        0.3679244E-07 Eh
 * total energy  :  -103.0703315 Eh     change       -0.4777932E-07 Eh
   *** GEOMETRY OPTIMIZATION CONVERGED AFTER 45 ITERATIONS ***

 final structure:
================
68
 xtb: 6.7.1 (edcfbbe)
C           -7.30301747575657        1.15199991455042       -0.52761454794737
C           -6.42050958682914       -0.00150596709077       -0.00937038071801
C           -7.30433022339941       -1.15515244500414        0.50634072455180
C           -5.57591409143080        0.50795807364129        1.13769598803089
C           -6.19047470413901        1.01610932429942        2.27431235553979
C           -5.46225528268717        1.47574910187866        3.35656300860093
C           -4.07567378101916        1.42255908201581        3.32240032519110
C           -3.43736263576866        0.92650218081072        2.20919662279140
C           -4.17124645425084        0.47519026763485        1.10048662363878
N           -3.50185323049443       -0.00163147062903       -0.00503476792011
C           -2.07755750077679       -0.00175347011319       -0.00292331272367
C           -1.37503508856068        1.17249651220640       -0.29292917768724
C           -0.00429388350676        1.17387624896290       -0.29057754009265
C            0.72254094203671       -0.00210285055363        0.00093931091082
C            2.14159016853150       -0.00229340898246        0.00277624409656
N            2.81587463128059        1.14665034784213       -0.25903778196485
C            4.12464588174446        1.11482165400408       -0.24122815482106
C            4.85929962637251        2.34846170015205       -0.50202607121862
C            4.17887522644385        3.52741716769837       -0.81359662528959
C            4.87902860170073        4.69184699689169       -1.05560325756773
C            6.26528438385241        4.69985837189514       -0.98958015167189
C            6.94861720510346        3.53321941394634       -0.68047447022798
C            6.25380806678249        2.36479288402113       -0.43795427222770
N            4.83966787497486       -0.00272453574777        0.00566920927947
C            4.12372042459468       -1.12002552743115        0.25124552496976
C            4.85740696006726       -2.35383770488410        0.51379784535967
C            4.17596147395434       -3.53244983451426        0.82445462056884
C            4.87522983214984       -4.69706266530439        1.06814007508330
C            6.26159663794707       -4.70562287575214        1.00465493600987
C            6.94594459307464       -3.53932708285859        0.69649517540766
C            6.25202918242203       -2.37070788998223        0.45236363954208
N            2.81493487425867       -1.15134013294397        0.26624551942765
C           -0.00538309765806       -1.17788433981842        0.29053859049998
C           -1.37612243142212       -1.17616635315677        0.28907491352787
C           -4.16800743329014       -0.47837816822607       -1.11254802362470
C           -3.43086391956854       -0.92986059641868       -2.21902177932795
C           -4.06590212581356       -1.42587369262727       -3.33411563513774
C           -5.45238335240054       -1.47879298904879       -3.37246470134018
C           -6.18378726600267       -1.01898900081608       -2.29243305265825
C           -5.57256309583948       -0.51093264428686       -1.15397562569284
H           -7.94013248901453        1.53444577833296        0.26393584972492
H           -6.67676266118172        1.96502792110396       -0.88999975577356
H           -7.93602674126273        0.81551105473076       -1.34302063787305
H           -7.93950643191196       -0.81883639954965        1.32013304655494
H           -6.67899379210622       -1.96820160546227        0.87026637171303
H           -7.93930726997293       -1.53750617624317       -0.28697225332873
H           -7.26721064822082        1.05570537842783        2.32306558790991
H           -5.97135219869148        1.86703202530049        4.22394110676820
H           -3.49370007693546        1.76669432641942        4.16374716113459
H           -2.36023751940463        0.87909096616106        2.18232785378621
H           -1.92618027749155        2.07362523961314       -0.52115209020030
H            0.54945460795043        2.07241539181000       -0.51479585796097
H            3.10066625703441        3.50576342044162       -0.86123704533890
H            4.34519291337872        5.59984615146249       -1.29635064191404
H            6.81078097814911        5.61258234619020       -1.17878895842250
H            8.02783732397046        3.53712381531895       -0.62784981537241
H            6.77070117931190        1.44896454943360       -0.19466269210879
H            3.09767154326274       -3.51039522654924        0.87006623217066
H            4.34060575669796       -5.60477730705623        1.30821044624726
H            6.80639904189799       -5.61849399028125        1.19515956463677
H            8.02525976412078       -3.54364927799555        0.64588812780890
H            6.76972611318801       -1.45514514080015        0.20977199568413
H            0.54751936338424       -2.07655753114400        0.51630124078290
H           -1.92812560251914       -2.07715985209142        0.51575879295471
H           -2.35381610282471       -0.88263416554223       -2.18890077905420
H           -3.48145393268796       -1.77019319553554       -4.17366869545116
H           -5.95892786719632       -1.87002602871715       -4.24135461067580
H           -7.26037964325067       -1.05841357788402       -2.34444567628232

          :  Hamiltonian                  GFN2-xTB          :
         :: gradient norm              0.000074484165 Eh/a0 ::
         :: HOMO-LUMO gap              0.168501507032 eV    ::
         :: SCC energy              -104.917237542537 Eh    ::
         :: -> dispersion             -0.089110101680 Eh    ::
         :: -> Gsolv                  -0.053602527664 Eh    ::
         :: repulsion energy           1.846906054810 Eh    ::

    * Orbital Energies and Occupations

         #    Occupation            Energy/Eh            Energy/eV
      -------------------------------------------------------------
         1        2.0000           -0.6869267             -18.6922
       ...           ...                  ...                  ...
        85        2.0000           -0.4197897             -11.4231
        86        2.0000           -0.4154339             -11.3045
        87        2.0000           -0.4092939             -11.1375
        88        2.0000           -0.4088540             -11.1255
        89        2.0000           -0.4073800             -11.0854
        90        2.0000           -0.4073420             -11.0843
        91        2.0000           -0.4018280             -10.9343
        92        2.0000           -0.4009036             -10.9091
        93        2.0000           -0.3939165             -10.7190
        94        1.8865           -0.3669868              -9.9862
        95        1.7664           -0.3661629              -9.9638
        96        1.3472           -0.3644345              -9.9168
        97        0.9630           -0.2814476              -7.6586 (HOMO)
        98        0.0370           -0.2752553              -7.4901 (LUMO)
        99                         -0.2443314              -6.6486
       100                         -0.2412145              -6.5638
       101                         -0.2355470              -6.4096
       102                         -0.2350286              -6.3955
       103                         -0.2242895              -6.1032
       104                         -0.2242698              -6.1027
       105                         -0.2221769              -6.0457
       106                         -0.2090220              -5.6878
       107                         -0.1898727              -5.1667
       108                         -0.1873731              -5.0987
       ...                                ...                  ...
       188                          0.6941243              18.8881
      -------------------------------------------------------------
                  HL-Gap            0.0061923 Eh            0.1685 eV

     #   Z          covCN         q      C6AA      α(0)
     1   6 C        3.761    -0.108    22.615     6.779
     2   6 C        3.909     0.025    20.102     6.373
     3   6 C        3.761    -0.108    22.615     6.779
     4   6 C        2.978     0.000    28.023     8.683
     5   6 C        2.925    -0.032    28.802     8.801
     6   6 C        2.917    -0.030    28.740     8.791
     7   6 C        2.917    -0.027    28.672     8.781
     8   6 C        2.922    -0.046    29.132     8.851
     9   6 C        2.930     0.061    26.622     8.462
    10   7 N        2.754    -0.010    21.456     6.880
    11   6 C        2.929     0.033    27.261     8.563
    12   6 C        2.914    -0.041    29.028     8.835
    13   6 C        2.922    -0.042    29.044     8.838
    14   6 C        2.976    -0.020    28.510     8.759
    15   6 C        2.936     0.169    24.367     8.096
    16   7 N        1.845    -0.304    28.733     7.944
    17   6 C        2.933     0.210    23.570     7.962
    18   6 C        2.983    -0.010    28.270     8.722
    19   6 C        2.923    -0.031    28.783     8.798
    20   6 C        2.918    -0.031    28.769     8.796
    21   6 C        2.920    -0.031    28.763     8.795
    22   6 C        2.917    -0.031    28.764     8.795
    23   6 C        2.924    -0.031    28.767     8.796
    24   7 N        1.843    -0.348    29.905     8.105
    25   6 C        2.933     0.210    23.571     7.962
    26   6 C        2.983    -0.010    28.270     8.722
    27   6 C        2.923    -0.031    28.783     8.798
    28   6 C        2.918    -0.031    28.769     8.796
    29   6 C        2.920    -0.031    28.764     8.795
    30   6 C        2.917    -0.031    28.765     8.795
    31   6 C        2.924    -0.031    28.768     8.796
    32   7 N        1.845    -0.304    28.731     7.944
    33   6 C        2.922    -0.042    29.044     8.838
    34   6 C        2.914    -0.041    29.028     8.835
    35   6 C        2.930     0.061    26.622     8.462
    36   6 C        2.922    -0.046    29.133     8.851
    37   6 C        2.917    -0.027    28.672     8.781
    38   6 C        2.917    -0.030    28.740     8.791
    39   6 C        2.925    -0.032    28.802     8.801
    40   6 C        2.978     0.000    28.022     8.683
    41   1 H        0.925     0.053     2.278     2.360
    42   1 H        0.925     0.038     2.477     2.461
    43   1 H        0.925     0.053     2.280     2.361
    44   1 H        0.925     0.053     2.280     2.361
    45   1 H        0.925     0.038     2.477     2.461
    46   1 H        0.925     0.053     2.278     2.360
    47   1 H        0.926     0.053     2.286     2.364
    48   1 H        0.926     0.046     2.367     2.406
    49   1 H        0.926     0.043     2.409     2.427
    50   1 H        0.926     0.043     2.412     2.429
    51   1 H        0.926     0.036     2.499     2.472
    52   1 H        0.926     0.036     2.498     2.472
    53   1 H        0.926     0.040     2.447     2.446
    54   1 H        0.926     0.039     2.462     2.454
    55   1 H        0.926     0.040     2.446     2.446
    56   1 H        0.926     0.038     2.475     2.460
    57   1 H        0.926     0.040     2.444     2.445
    58   1 H        0.926     0.040     2.447     2.446
    59   1 H        0.926     0.039     2.462     2.454
    60   1 H        0.926     0.040     2.446     2.446
    61   1 H        0.926     0.038     2.475     2.460
    62   1 H        0.926     0.040     2.444     2.445
    63   1 H        0.926     0.036     2.499     2.472
    64   1 H        0.926     0.036     2.499     2.472
    65   1 H        0.926     0.043     2.412     2.429
    66   1 H        0.926     0.043     2.409     2.427
    67   1 H        0.926     0.046     2.367     2.406
    68   1 H        0.926     0.053     2.285     2.364

molecular dipole:
                 x           y           z       tot (Debye)
 q only:       -5.218       0.001      -0.007
   full:       -4.985       0.001      -0.007      12.671

 projected vibrational frequencies (cm⁻¹)
eigval :       -0.00    -0.00    -0.00     0.00     0.00     0.00
eigval :       11.64    17.30    19.28    36.33    40.50    42.10
eigval :       47.62    55.41    55.98    69.01    93.60    96.34
eigval :      102.47   106.91   127.17   149.51   149.68   164.88
eigval :      198.08   204.09   212.36   217.16   219.37   232.64
eigval :      250.51   260.50   290.91   300.38   325.56   329.91
eigval :      338.32   355.56   365.52   367.55   368.07   377.41
eigval :      381.34   399.80   407.04   410.60   414.41   423.27
eigval :      449.43   470.77   500.16   521.42   538.27   540.54
eigval :      551.42   558.92   566.31   581.04   582.27   586.06
eigval :      589.02   591.72   603.52   608.37   641.48   653.31
eigval :      655.89   665.28   667.75   669.31   688.14   693.15
eigval :      702.57   727.15   762.82   763.29   773.14   775.08
eigval :      795.32   806.92   807.15   826.07   840.43   872.46
eigval :      873.30   873.59   874.03   891.53   897.70   899.06
eigval :      905.99   909.42   911.18   916.19   916.73   922.06
eigval :      922.62   925.85   927.35   928.46   928.55   937.77
eigval :      955.34   961.86   983.47   991.09   992.98  1014.01
eigval :     1058.25  1072.88  1073.11  1074.90  1083.58  1103.39
eigval :     1107.31  1108.41  1108.63  1119.23  1136.62  1138.50
eigval :     1144.80  1156.43  1160.86  1167.62  1176.26  1176.75
eigval :     1179.67  1180.30  1182.07  1187.30  1199.79  1227.46
eigval :     1235.91  1238.32  1250.54  1254.82  1267.20  1268.87
eigval :     1274.58  1291.31  1300.49  1307.21  1323.89  1327.82
eigval :     1329.39  1330.32  1334.61  1349.60  1395.35  1396.65
eigval :     1398.82  1411.19  1416.94  1420.89  1426.31  1433.41
eigval :     1435.12  1451.12  1462.78  1465.42  1471.70  1481.23
eigval :     1482.80  1482.90  1485.84  1493.23  1496.93  1546.15
eigval :     1557.91  1563.44  1567.84  1569.02  1574.60  1581.70
eigval :     1585.54  1592.86  3029.26  3031.20  3050.49  3052.40
eigval :     3057.34  3061.28  3070.91  3071.06  3072.23  3074.04
eigval :     3074.09  3074.28  3085.42  3085.66  3085.92  3086.15
eigval :     3092.61  3092.79  3093.84  3094.36  3094.43  3096.32
eigval :     3096.38  3098.32  3102.56  3102.94  3109.76  3110.20

   temp. (K)  partition function   enthalpy   heat capacity  entropy
                                   cal/mol     cal/K/mol   cal/K/mol   J/K/mol
 298.15  VIB  0.608E+15            19408.029    122.686    120.324
         ROT  0.314E+08              888.752      2.981     37.286
         INT  0.191E+23            20296.781    125.667    157.610
         TR   0.114E+29             1481.254      4.968     44.593
         TOT                       21778.0350   130.6347   202.2029   846.0169

       T/K    H(0)-H(T)+PV         H(T)/Eh          T*S/Eh         G(T)/Eh
   ------------------------------------------------------------------------
    298.15    0.347055E-01    0.560564E+00    0.960731E-01    0.464491E+00
   ------------------------------------------------------------------------

         :::::::::::::::::::::::::::::::::::::::::::::::::::::
         ::                  THERMODYNAMIC                  ::
         :::::::::::::::::::::::::::::::::::::::::::::::::::::
         :: total free energy        -102.605840695960 Eh   ::
         ::.................................................::
         :: total energy             -103.070331493965 Eh   ::
         :: zero point energy           0.525858403565 Eh   ::
         :: G(RRHO) w/o ZPVE           -0.061367605561 Eh   ::
         :: G(RRHO) contrib.            0.464490798005 Eh   ::
         :::::::::::::::::::::::::::::::::::::::::::::::::::::

           -------------------------------------------------
          | TOTAL ENERGY             -103.070331493965 Eh   |
          | TOTAL ENTHALPY           -102.509767582586 Eh   |
          | TOTAL FREE ENERGY        -102.605840695960 Eh   |
          | GRADIENT NORM               0.000068777893 Eh/α |
          | HOMO-LUMO GAP               0.168500152896 eV   |
           -------------------------------------------------

 * finished run on 2025/07/16 at 16:31:32.854
