   * xtb version 6.7.1 (edcfbbe) compiled by 'albert@albert-system' on 2024-07-22

   ID    Z sym.   atoms
    1    7 N      1, 10, 25
    2    6 C      2-9, 11-24, 26-33
    3    1 H      34-54

          program call               : xtb data2507/toluene/DPimdPPA/DPimdPPA_toluene_S0_finalOpt.xtbopt.xyz --gfn 2 --uhf 2 --gbsa toluene --ohess vtight --parallel 40 --molden --ceasefiles --namespace data2507/toluene/DPimdPPA/DPimdPPA_toluene_T1_preOpt
      * Solvation model:               GBSA
        Solvent                        toluene
        Solvent mass                       9.2140E+01 g/mol
          :  Hamiltonian                  GFN2-xTB          :
 * total energy  :   -83.6212233 Eh     change       -0.5671012E-08 Eh
 * total energy  :   -83.6285582 Eh     change       -0.7334937E-02 Eh
 * total energy  :   -83.6286280 Eh     change       -0.6976914E-04 Eh
 * total energy  :   -83.6306028 Eh     change       -0.1974890E-02 Eh
 * total energy  :   -83.6309394 Eh     change       -0.3365929E-03 Eh
 * total energy  :   -83.6311095 Eh     change       -0.1700094E-03 Eh
 * total energy  :   -83.6313456 Eh     change       -0.2361221E-03 Eh
 * total energy  :   -83.6315277 Eh     change       -0.1821576E-03 Eh
 * total energy  :   -83.6317570 Eh     change       -0.2292929E-03 Eh
 * total energy  :   -83.6319210 Eh     change       -0.1640066E-03 Eh
 * total energy  :   -83.6325764 Eh     change       -0.8370115E-06 Eh
 * total energy  :   -83.6325773 Eh     change       -0.8137179E-06 Eh
 * total energy  :   -83.6325781 Eh     change       -0.8484854E-06 Eh
 * total energy  :   -83.6325792 Eh     change       -0.1088180E-05 Eh
 * total energy  :   -83.6325805 Eh     change       -0.1307276E-05 Eh
 * total energy  :   -83.6325819 Eh     change       -0.1397072E-05 Eh
 * total energy  :   -83.6325828 Eh     change       -0.9285595E-06 Eh
 * total energy  :   -83.6325833 Eh     change       -0.5130441E-06 Eh
 * total energy  :   -83.6325833 Eh     change       -0.3952039E-09 Eh
   *** GEOMETRY OPTIMIZATION CONVERGED AFTER 68 ITERATIONS ***

 final structure:
================
54
 xtb: 6.7.1 (edcfbbe)
N            4.91900746506458       -2.61346362930010        1.22891610720136
C            5.10357322346563       -1.54244084247660        0.82805810978455
C            5.37761060030506       -0.26273673347835        0.35583955585294
C            4.34202315654571        0.72010531171878        0.26239196395972
C            2.97369105661664        0.53371603128277        0.17025530817433
C            2.33920588421248       -0.73726844063289       -0.01411127503442
C            0.98710225853846       -0.85548375417588       -0.07536412144028
C            0.14155159854751        0.27893383286723        0.03155459569999
C           -1.26800768208735        0.19218420595902        0.00005735658880
N           -2.10104178043048        1.23043703426259        0.06032380639321
C           -3.35271766895582        0.74735275287583        0.00657313663773
C           -4.49181872512865        1.65083558691450       -0.01858458166818
C           -5.65282488630186        1.35132741563928       -0.73293434031708
C           -6.70798672556121        2.24359805109012       -0.74958850602746
C           -6.62030769243923        3.44438174182355       -0.06210144602008
C           -5.46234433334872        3.75819918248957        0.63294712282273
C           -4.40277043272784        2.87223462850014        0.65131990674689
C           -3.31916141993853       -0.66144154747467       -0.07491249868382
C           -4.35255352046148       -1.66960531187792       -0.06851276243542
C           -5.54326805293785       -1.47143145847936        0.64016356689397
C           -6.51558900789556       -2.45079067711530        0.65811972411607
C           -6.32353846806782       -3.64351397540659       -0.02409914516922
C           -5.14473004843661       -3.85418127757798       -0.72298883987687
C           -4.16457569330391       -2.88162248935057       -0.74339676273190
N           -1.99090114882241       -0.97549165485104       -0.09852746465624
C            0.75718283500588        1.55273152373604        0.16932954965298
C            2.10582818953709        1.67619414997771        0.22729189793246
C            6.74890994822070        0.04219732408498        0.05986636653776
C            7.78112128631890       -0.83743629871551        0.45113456792641
C            9.09870055232828       -0.55230931994251        0.17579826818392
C            9.43999609123261        0.61032446784845       -0.50581768704583
C            8.43792282439926        1.48094592355189       -0.91588908966281
C            7.11624130214976        1.20814708457944       -0.64287511609053
H            4.68165672656657        1.74677343644436        0.29872888033998
H            2.95692607713741       -1.61529514863490       -0.11411418191056
H            0.55644037615283       -1.83665748087583       -0.21753919292826
H           -5.71832404426906        0.42714710019446       -1.28772169234372
H           -7.60214737445866        2.00365753486884       -1.30629167369842
H           -7.44889677677614        4.13701197149187       -0.07500295696875
H           -5.38698171544880        4.69717885462098        1.16169941195847
H           -3.49399453037258        3.10302793533694        1.18563547292451
H           -5.68563919645838       -0.55256879428449        1.18789300125305
H           -7.42776062800124       -2.28630417656747        1.21208724684394
H           -7.08759368065366       -4.40599428189742       -0.00937140941381
H           -4.99014051474078       -4.78034609849353       -1.25674369429895
H           -3.26049334321702       -3.04628430655130       -1.31256017364038
H           -1.61602997729827       -1.90981328393906       -0.10632370295245
H            0.10961934900301        2.41360136067513        0.22698829804471
H            2.55722666481440        2.65177066055900        0.33614161877277
H            7.52382856123963       -1.74038562185498        0.98655360355919
H            9.87144829614742       -1.23738977481344        0.49332788220649
H           10.47475282699938        0.83120880035729       -0.71976637173068
H            8.69603010725954        2.37888732846632       -1.45876013513816
H            6.35303984043832        1.88464244300028       -0.99531920969072

          :  Hamiltonian                  GFN2-xTB          :
         :: gradient norm              0.000193761153 Eh/a0 ::
         :: HOMO-LUMO gap              1.079091247178 eV    ::
         :: SCC energy               -85.218774876208 Eh    ::
         :: -> dispersion             -0.065718253966 Eh    ::
         :: -> Gsolv                  -0.042180138522 Eh    ::
         :: repulsion energy           1.586191538569 Eh    ::

    * Orbital Energies and Occupations

         #    Occupation            Energy/Eh            Energy/eV
      -------------------------------------------------------------
         1        2.0000           -0.7026295             -19.1195
       ...           ...                  ...                  ...
        67        2.0000           -0.4264816             -11.6052
        68        2.0000           -0.4206650             -11.4469
        69        2.0000           -0.4195545             -11.4167
        70        2.0000           -0.4183626             -11.3842
        71        2.0000           -0.4155688             -11.3082
        72        2.0000           -0.4127303             -11.2310
        73        2.0000           -0.4113658             -11.1938
        74        2.0000           -0.4093791             -11.1398
        75        2.0000           -0.4079397             -11.1006
        76        2.0000           -0.3903594             -10.6222
        77        2.0000           -0.3828833             -10.4188
        78        1.0000           -0.3615614              -9.8386
        79        1.0000           -0.3048301              -8.2948 (HOMO)
        80                         -0.2651740              -7.2158 (LUMO)
        81                         -0.2434099              -6.6235
        82                         -0.2365483              -6.4368
        83                         -0.2277469              -6.1973
        84                         -0.2266077              -6.1663
        85                         -0.2257496              -6.1430
        86                         -0.2237580              -6.0888
        87                         -0.2205495              -6.0015
        88                         -0.2003378              -5.4515
        89                         -0.1729068              -4.7050
        90                         -0.1601528              -4.3580
       ...                                ...                  ...
       153                          1.1474968              31.2250
      -------------------------------------------------------------
                  HL-Gap            0.0396561 Eh            1.0791 eV

     #   Z          covCN         q      C6AA      α(0)
     1   7 N        0.911    -0.328    28.446     7.714
     2   6 C        1.913     0.116    28.240     8.582
     3   6 C        2.953    -0.006    28.163     8.704
     4   6 C        2.912    -0.049    29.214     8.863
     5   6 C        2.961     0.018    27.605     8.618
     6   6 C        2.913    -0.036    28.907     8.816
     7   6 C        2.912    -0.034    28.857     8.809
     8   6 C        2.970    -0.013    28.330     8.731
     9   6 C        3.128     0.136    24.850     8.162
    10   7 N        1.906    -0.295    28.486     7.913
    11   6 C        3.157     0.073    26.083     8.350
    12   6 C        2.974     0.009    27.808     8.650
    13   6 C        2.922    -0.033    28.829     8.805
    14   6 C        2.918    -0.028    28.710     8.787
    15   6 C        2.919    -0.027    28.673     8.781
    16   6 C        2.918    -0.027    28.686     8.783
    17   6 C        2.926    -0.027    28.668     8.781
    18   6 C        3.041     0.038    27.106     8.539
    19   6 C        2.970     0.004    27.925     8.668
    20   6 C        2.923    -0.030    28.738     8.791
    21   6 C        2.917    -0.025    28.628     8.774
    22   6 C        2.919    -0.026    28.640     8.776
    23   6 C        2.917    -0.026    28.662     8.779
    24   6 C        2.924    -0.035    28.868     8.811
    25   7 N        2.797    -0.117    23.542     7.206
    26   6 C        2.916    -0.028    28.697     8.784
    27   6 C        2.919    -0.038    28.948     8.823
    28   6 C        2.981     0.018    27.595     8.617
    29   6 C        2.922    -0.033    28.823     8.804
    30   6 C        2.914    -0.027    28.687     8.783
    31   6 C        2.919    -0.028    28.690     8.784
    32   6 C        2.915    -0.028    28.695     8.784
    33   6 C        2.921    -0.035    28.865     8.811
    34   1 H        0.925     0.045     2.388     2.417
    35   1 H        0.926     0.035     2.512     2.479
    36   1 H        0.926     0.026     2.651     2.546
    37   1 H        0.926     0.035     2.517     2.481
    38   1 H        0.926     0.039     2.462     2.453
    39   1 H        0.926     0.040     2.451     2.448
    40   1 H        0.926     0.040     2.449     2.447
    41   1 H        0.926     0.049     2.338     2.391
    42   1 H        0.926     0.042     2.422     2.434
    43   1 H        0.926     0.044     2.394     2.419
    44   1 H        0.926     0.044     2.401     2.423
    45   1 H        0.926     0.042     2.419     2.432
    46   1 H        0.926     0.033     2.548     2.496
    47   1 H        0.860     0.174     1.249     1.750
    48   1 H        0.926     0.055     2.252     2.347
    49   1 H        0.926     0.040     2.444     2.445
    50   1 H        0.926     0.029     2.603     2.523
    51   1 H        0.926     0.036     2.507     2.476
    52   1 H        0.926     0.039     2.464     2.455
    53   1 H        0.926     0.039     2.465     2.455
    54   1 H        0.926     0.042     2.426     2.436

molecular dipole:
                 x           y           z       tot (Debye)
 q only:       -2.564       0.658      -0.623
   full:       -2.452       0.406      -0.784       6.624

 projected vibrational frequencies (cm⁻¹)
eigval :       -0.00    -0.00    -0.00     0.00     0.00     0.00
eigval :       15.14    17.82    27.77    39.92    42.83    50.71
eigval :       51.79    58.28    78.30    83.38    90.37   117.34
eigval :      130.65   137.72   160.56   164.47   187.06   236.23
eigval :      242.86   249.30   280.11   295.57   307.95   323.02
eigval :      352.07   364.85   368.44   369.08   376.72   385.41
eigval :      423.53   427.92   434.78   452.61   464.81   483.26
eigval :      511.48   552.77   559.52   563.46   583.93   585.45
eigval :      588.26   592.15   610.35   635.08   647.86   651.14
eigval :      653.19   659.50   665.19   674.78   690.11   723.41
eigval :      742.66   755.07   763.93   764.63   773.57   801.16
eigval :      826.61   838.20   848.17   870.62   875.35   883.72
eigval :      899.90   900.94   905.43   918.93   920.74   924.55
eigval :      926.51   926.95   928.39   930.54   933.45   935.25
eigval :      956.40   971.09   976.33  1010.81  1029.27  1064.61
eigval :     1078.06  1078.40  1080.78  1110.55  1117.02  1120.70
eigval :     1123.91  1136.30  1176.79  1177.43  1179.30  1184.95
eigval :     1192.35  1195.48  1201.11  1209.60  1228.80  1249.76
eigval :     1256.76  1271.45  1276.45  1279.39  1284.52  1306.86
eigval :     1312.00  1317.10  1320.13  1327.40  1331.76  1343.00
eigval :     1373.86  1405.28  1423.54  1423.80  1424.72  1431.26
eigval :     1437.68  1443.81  1472.67  1492.11  1501.33  1509.33
eigval :     1521.06  1533.94  1562.01  1566.46  1572.33  1581.84
eigval :     1589.79  1593.43  2251.29  3056.92  3064.35  3068.53
eigval :     3072.37  3073.72  3073.76  3074.84  3076.78  3080.45
eigval :     3083.34  3084.44  3085.60  3091.03  3092.02  3094.25
eigval :     3096.63  3100.77  3101.29  3104.73  3116.56  3462.77

   temp. (K)  partition function   enthalpy   heat capacity  entropy
                                   cal/mol     cal/K/mol   cal/K/mol   J/K/mol
 298.15  VIB  0.143E+13            15644.105     97.678     97.832
         ROT  0.398E+08              888.752      2.981     37.755
         INT  0.567E+20            16532.857    100.659    135.587
         TR   0.843E+28             1481.254      4.968     44.001
         TOT                       18014.1113   105.6272   179.5880   751.3960

       T/K    H(0)-H(T)+PV         H(T)/Eh          T*S/Eh         G(T)/Eh
   ------------------------------------------------------------------------
    298.15    0.287073E-01    0.438729E+00    0.853280E-01    0.353401E+00
   ------------------------------------------------------------------------

         :::::::::::::::::::::::::::::::::::::::::::::::::::::
         ::                  THERMODYNAMIC                  ::
         :::::::::::::::::::::::::::::::::::::::::::::::::::::
         :: total free energy         -83.279182146269 Eh   ::
         ::.................................................::
         :: total energy              -83.632583339498 Eh   ::
         :: zero point energy           0.410021910121 Eh   ::
         :: G(RRHO) w/o ZPVE           -0.056620716892 Eh   ::
         :: G(RRHO) contrib.            0.353401193229 Eh   ::
         :::::::::::::::::::::::::::::::::::::::::::::::::::::

           -------------------------------------------------
          | TOTAL ENERGY              -83.632583339498 Eh   |
          | TOTAL ENTHALPY            -83.193854115792 Eh   |
          | TOTAL FREE ENERGY         -83.279182146269 Eh   |
          | GRADIENT NORM               0.000193875899 Eh/α |
          | HOMO-LUMO GAP               1.079096446280 eV   |
           -------------------------------------------------

 * finished run on 2025/07/20 at 02:30:21.346
