   * xtb version 6.7.1 (edcfbbe) compiled by 'albert@albert-system' on 2024-07-22

   ID    Z sym.   atoms
    1    7 N      1, 10, 25
    2    6 C      2-9, 11-24, 26-33
    3    1 H      34-54

          program call               : xtb data2507/toluene/DPimdPPA/DPimdPPA_toluene_S0_crest.xyz --gfn 2 --gbsa toluene --ohess vtight --parallel 40 --molden --ceasefiles --namespace data2507/toluene/DPimdPPA/DPimdPPA_toluene_S0_finalOpt
      * Solvation model:               GBSA
        Solvent                        toluene
        Solvent mass                       9.2140E+01 g/mol
          :  Hamiltonian                  GFN2-xTB          :
 * total energy  :   -83.6994109 Eh     change       -0.2838220E-08 Eh
 * total energy  :   -83.6994345 Eh     change       -0.2368717E-04 Eh
 * total energy  :   -83.6993855 Eh     change        0.4909444E-04 Eh
 * total energy  :   -83.6994403 Eh     change       -0.5486426E-04 Eh
 * total energy  :   -83.6994490 Eh     change       -0.8667692E-05 Eh
 * total energy  :   -83.6994508 Eh     change       -0.1821912E-05 Eh
 * total energy  :   -83.6994539 Eh     change       -0.3125312E-05 Eh
 * total energy  :   -83.6994577 Eh     change       -0.3760061E-05 Eh
 * total energy  :   -83.6994615 Eh     change       -0.3788147E-05 Eh
 * total energy  :   -83.6994646 Eh     change       -0.3080952E-05 Eh
 * total energy  :   -83.6994703 Eh     change       -0.4760048E-06 Eh
 * total energy  :   -83.6994708 Eh     change       -0.4454647E-06 Eh
 * total energy  :   -83.6994712 Eh     change       -0.4038731E-06 Eh
 * total energy  :   -83.6994716 Eh     change       -0.4165720E-06 Eh
 * total energy  :   -83.6994716 Eh     change       -0.9462724E-09 Eh
 * total energy  :   -83.6994717 Eh     change       -0.1259198E-06 Eh
 * total energy  :   -83.6994713 Eh     change        0.4355780E-06 Eh
 * total energy  :   -83.6994720 Eh     change       -0.7598449E-06 Eh
 * total energy  :   -83.6994721 Eh     change       -0.8827045E-07 Eh
   *** GEOMETRY OPTIMIZATION CONVERGED AFTER 26 ITERATIONS ***

 final structure:
================
54
 xtb: 6.7.1 (edcfbbe)
N            5.07306413677165       -2.82670976282575        0.53772079301645
C            5.15764471719977       -1.70102520729831        0.31427340922763
C            5.37243799629610       -0.33355930646186        0.05160575719693
C            4.38499117393617        0.58120547485792       -0.10683514663864
C            2.95397788185497        0.40329454275735       -0.10594106500318
C            2.31849355938000       -0.84021156853887       -0.20222156479448
C            0.94467057591930       -0.93840492927726       -0.19372552003431
C            0.14617633640526        0.20452688163971       -0.08769453144447
C           -1.29549880369676        0.14681578051577       -0.06494340195993
N           -2.08645052818054        1.19702198531315        0.01456624546740
C           -3.36392278619662        0.73902170828496        0.01103249593287
C           -4.48388903772897        1.67123845984831        0.02767923237537
C           -5.68024436373642        1.38754420209634       -0.62910800126225
C           -6.71945526174293        2.29898703495704       -0.60854485826309
C           -6.57847787603106        3.50587417345811        0.05784592802894
C           -5.38582418379961        3.80271641017097        0.69792953737789
C           -4.34410507100395        2.89474819154153        0.68099106916572
C           -3.35847306857379       -0.65134244119029       -0.06331964269805
C           -4.41274802569971       -1.65049195062004       -0.02702844273731
C           -5.52949698270326       -1.47539101671485        0.79164556136001
C           -6.51885191313192       -2.43840861306754        0.83758318101582
C           -6.41080959154178       -3.59027623222284        0.07341258753249
C           -5.30387887817370       -3.77532251147907       -0.73835666168073
C           -4.30917943015942       -2.81613665647079       -0.78742466118222
N           -2.03539144514155       -0.99835518076047       -0.12442715369147
C            0.77460415865743        1.45259482319363       -0.00538730017610
C            2.14510725725661        1.54809406577952       -0.02081577193557
C            6.79742615189786        0.04517410088913        0.00342833633213
C            7.72298531776929       -0.59178989797076        0.82983777468878
C            9.05701764310183       -0.23039055281535        0.79634920582799
C            9.48889653624359        0.76230318262070       -0.06826019132011
C            8.57839708966342        1.39064897419199       -0.90260705087700
C            7.24270465967969        1.03603944526554       -0.87052709571563
H            4.70500617813622        1.60988995678113       -0.22027205278355
H            2.90836867793168       -1.73777393770965       -0.29709036272567
H            0.49662855263134       -1.91811854689240       -0.27407652731138
H           -5.78982918369574        0.45569560142862       -1.16453276290233
H           -7.64285814292988        2.06882458543349       -1.12062705517670
H           -7.39343897545158        4.21493205758778        0.07236073125603
H           -5.26843743579776        4.74625353513472        1.21146629331577
H           -3.40852683853296        3.11515069682606        1.17225160884011
H           -5.60809364876096       -0.58224949240937        1.39327028773079
H           -7.37758013387200       -2.29176699368038        1.47611886050566
H           -7.18643244204201       -4.34064845318131        0.11088405741778
H           -5.21487989755306       -4.66980452866639       -1.33764193746982
H           -3.45836471933314       -2.96014956227875       -1.43921822884539
H           -1.68949287859212       -1.94374283728888       -0.15335175671963
H            0.15311361961469        2.33111327508523        0.06615713845370
H            2.61235032111852        2.52012612232313        0.04454276554149
H            7.38918273891144       -1.36423478667542        1.50850024287968
H            9.76147005795479       -0.72745968083985        1.44700413290263
H           10.53180028015936        1.04107015922034       -0.09557206837008
H            8.91156658107854        2.15754476320210       -1.58654303370144
H            6.54503144783353        1.51378307013194       -1.54259890406936

          :  Hamiltonian                  GFN2-xTB          :
         :: gradient norm              0.000052516658 Eh/a0 ::
         :: HOMO-LUMO gap              1.838352257715 eV    ::
         :: SCC energy               -85.303036673885 Eh    ::
         :: -> dispersion             -0.065577884683 Eh    ::
         :: -> Gsolv                  -0.040532973488 Eh    ::
         :: repulsion energy           1.603564536688 Eh    ::

    * Orbital Energies and Occupations

         #    Occupation            Energy/Eh            Energy/eV
      -------------------------------------------------------------
         1        2.0000           -0.6948040             -18.9066
       ...           ...                  ...                  ...
        66        2.0000           -0.4266786             -11.6105
        67        2.0000           -0.4245299             -11.5520
        68        2.0000           -0.4215352             -11.4706
        69        2.0000           -0.4199911             -11.4285
        70        2.0000           -0.4188201             -11.3967
        71        2.0000           -0.4166561             -11.3378
        72        2.0000           -0.4129331             -11.2365
        73        2.0000           -0.4126698             -11.2293
        74        2.0000           -0.4048266             -11.0159
        75        2.0000           -0.4020380             -10.9400
        76        2.0000           -0.3912530             -10.6465
        77        2.0000           -0.3838483             -10.4450
        78        2.0000           -0.3661435              -9.9633 (HOMO)
        79                         -0.2985853              -8.1249 (LUMO)
        80                         -0.2559682              -6.9653
        81                         -0.2411609              -6.5623
        82                         -0.2337158              -6.3597
        83                         -0.2313700              -6.2959
        84                         -0.2310352              -6.2868
        85                         -0.2295891              -6.2474
        86                         -0.2200032              -5.9866
        87                         -0.2175808              -5.9207
        88                         -0.2103887              -5.7250
        89                         -0.1731682              -4.7121
       ...                                ...                  ...
       153                          1.1466527              31.2020
      -------------------------------------------------------------
                  HL-Gap            0.0675582 Eh            1.8384 eV

     #   Z          covCN         q      C6AA      α(0)
     1   7 N        0.911    -0.291    27.506     7.585
     2   6 C        1.913     0.126    28.003     8.546
     3   6 C        2.950     0.004    27.938     8.669
     4   6 C        2.913    -0.024    28.614     8.772
     5   6 C        2.968     0.014    27.695     8.632
     6   6 C        2.920    -0.031    28.774     8.796
     7   6 C        2.919    -0.037    28.908     8.817
     8   6 C        2.973     0.001    28.011     8.681
     9   6 C        3.145     0.129    24.947     8.172
    10   7 N        1.915    -0.299    28.606     7.930
    11   6 C        3.169     0.058    26.342     8.385
    12   6 C        2.973     0.007    27.856     8.657
    13   6 C        2.923    -0.037    28.923     8.819
    14   6 C        2.918    -0.031    28.767     8.795
    15   6 C        2.919    -0.032    28.802     8.801
    16   6 C        2.918    -0.030    28.757     8.794
    17   6 C        2.926    -0.031    28.763     8.795
    18   6 C        3.057     0.025    27.382     8.581
    19   6 C        2.971     0.003    27.958     8.673
    20   6 C        2.924    -0.032    28.803     8.801
    21   6 C        2.918    -0.027    28.679     8.782
    22   6 C        2.919    -0.030    28.747     8.792
    23   6 C        2.918    -0.029    28.727     8.789
    24   6 C        2.924    -0.038    28.941     8.822
    25   7 N        2.808    -0.116    23.533     7.205
    26   6 C        2.923    -0.029    28.735     8.791
    27   6 C        2.927    -0.030    28.737     8.791
    28   6 C        2.987     0.014    27.686     8.631
    29   6 C        2.924    -0.031    28.783     8.798
    30   6 C        2.918    -0.028    28.690     8.784
    31   6 C        2.919    -0.028    28.700     8.785
    32   6 C        2.918    -0.028    28.697     8.785
    33   6 C        2.923    -0.034    28.850     8.808
    34   1 H        0.925     0.059     2.207     2.323
    35   1 H        0.926     0.042     2.428     2.437
    36   1 H        0.926     0.031     2.577     2.510
    37   1 H        0.926     0.027     2.625     2.533
    38   1 H        0.926     0.032     2.561     2.502
    39   1 H        0.926     0.033     2.548     2.496
    40   1 H        0.926     0.034     2.536     2.490
    41   1 H        0.926     0.043     2.408     2.427
    42   1 H        0.926     0.035     2.515     2.480
    43   1 H        0.926     0.038     2.475     2.460
    44   1 H        0.926     0.038     2.481     2.463
    45   1 H        0.926     0.037     2.491     2.468
    46   1 H        0.925     0.028     2.610     2.527
    47   1 H        0.860     0.170     1.273     1.767
    48   1 H        0.926     0.060     2.198     2.318
    49   1 H        0.926     0.049     2.330     2.387
    50   1 H        0.926     0.030     2.589     2.516
    51   1 H        0.926     0.037     2.484     2.465
    52   1 H        0.926     0.039     2.459     2.452
    53   1 H        0.926     0.040     2.445     2.445
    54   1 H        0.926     0.041     2.436     2.441

molecular dipole:
                 x           y           z       tot (Debye)
 q only:       -0.311       0.591      -0.251
   full:       -0.286       0.359      -0.358       1.479

 projected vibrational frequencies (cm⁻¹)
eigval :       -0.00    -0.00     0.00     0.00     0.00     0.00
eigval :       11.94    16.48    24.98    32.44    40.95    43.03
eigval :       44.32    53.11    65.71    70.98    98.66   110.52
eigval :      123.54   141.67   157.00   166.17   191.81   234.67
eigval :      248.91   254.44   277.52   295.93   321.37   333.60
eigval :      350.36   365.30   366.64   368.72   374.58   386.76
eigval :      424.71   429.61   447.43   472.78   489.83   502.43
eigval :      527.36   562.40   585.58   586.08   589.64   595.72
eigval :      599.74   610.03   618.66   649.87   654.97   659.54
eigval :      664.87   665.91   667.27   686.92   697.26   725.20
eigval :      755.45   755.63   764.78   776.67   809.51   847.31
eigval :      852.69   870.54   873.26   877.74   880.01   898.07
eigval :      903.21   903.23   908.06   924.49   926.58   927.68
eigval :      927.98   928.86   931.58   931.70   938.90   953.28
eigval :      969.41   974.97  1013.93  1017.51  1043.43  1078.81
eigval :     1081.49  1083.25  1083.79  1117.58  1120.16  1122.12
eigval :     1123.45  1142.55  1178.30  1178.91  1181.89  1191.30
eigval :     1193.70  1198.06  1199.72  1207.72  1228.11  1250.35
eigval :     1267.33  1272.52  1278.59  1280.53  1284.15  1292.20
eigval :     1315.65  1315.86  1319.38  1326.22  1352.10  1364.78
eigval :     1402.91  1413.94  1427.70  1428.68  1432.94  1444.92
eigval :     1460.44  1468.87  1488.18  1519.24  1547.68  1553.84
eigval :     1559.66  1575.64  1577.28  1580.41  1592.09  1593.39
eigval :     1597.53  1608.16  2331.42  3055.03  3063.26  3067.63
eigval :     3070.55  3072.86  3074.58  3074.76  3075.59  3077.79
eigval :     3079.59  3080.12  3081.10  3085.85  3087.15  3088.67
eigval :     3094.38  3095.70  3097.31  3111.14  3121.37  3457.77

   temp. (K)  partition function   enthalpy   heat capacity  entropy
                                   cal/mol     cal/K/mol   cal/K/mol   J/K/mol
 298.15  VIB  0.427E+13            15535.242     95.599     97.747
         ROT  0.401E+08              888.752      2.981     37.769
         INT  0.171E+21            16423.994     98.579    135.517
         TR   0.843E+28             1481.254      4.968     44.001
         TOT                       17905.2483   103.5476   179.5174   751.1009

       T/K    H(0)-H(T)+PV         H(T)/Eh          T*S/Eh         G(T)/Eh
   ------------------------------------------------------------------------
    298.15    0.285338E-01    0.441156E+00    0.852945E-01    0.355861E+00
   ------------------------------------------------------------------------

         :::::::::::::::::::::::::::::::::::::::::::::::::::::
         ::                  THERMODYNAMIC                  ::
         :::::::::::::::::::::::::::::::::::::::::::::::::::::
         :: total free energy         -83.343611054254 Eh   ::
         ::.................................................::
         :: total energy              -83.699472141786 Eh   ::
         :: zero point energy           0.412621778116 Eh   ::
         :: G(RRHO) w/o ZPVE           -0.056760690584 Eh   ::
         :: G(RRHO) contrib.            0.355861087532 Eh   ::
         :::::::::::::::::::::::::::::::::::::::::::::::::::::

           -------------------------------------------------
          | TOTAL ENERGY              -83.699472141786 Eh   |
          | TOTAL ENTHALPY            -83.258316534238 Eh   |
          | TOTAL FREE ENERGY         -83.343611054254 Eh   |
          | GRADIENT NORM               0.000052512058 Eh/α |
          | HOMO-LUMO GAP               1.838352861899 eV   |
           -------------------------------------------------

 * finished run on 2025/07/20 at 02:30:17.021
