   * xtb version 6.7.1 (edcfbbe) compiled by 'albert@albert-system' on 2024-07-22

   ID    Z sym.   atoms
    1    7 N      1, 10, 25
    2    6 C      2-9, 11-24, 26-33
    3    1 H      34-54

          program call               : xtb data2507/toluene/DPimdPPA/DPimdPPA.xyz --gfn 2 --gbsa toluene --ohess vtight --parallel 40 --molden --ceasefiles --namespace data2507/toluene/DPimdPPA/DPimdPPA_toluene_S0_preOpt
      * Solvation model:               GBSA
        Solvent                        toluene
        Solvent mass                       9.2140E+01 g/mol
          :  Hamiltonian                  GFN2-xTB          :
 * total energy  :   -83.6848730 Eh     change       -0.3941693E-08 Eh
 * total energy  :   -83.6912971 Eh     change       -0.6424071E-02 Eh
 * total energy  :   -83.6929552 Eh     change       -0.1658176E-02 Eh
 * total energy  :   -83.6939610 Eh     change       -0.1005765E-02 Eh
 * total energy  :   -83.6951024 Eh     change       -0.1141403E-02 Eh
 * total energy  :   -83.6959923 Eh     change       -0.8899159E-03 Eh
 * total energy  :   -83.6967649 Eh     change       -0.7725882E-03 Eh
 * total energy  :   -83.6973951 Eh     change       -0.6302196E-03 Eh
 * total energy  :   -83.6978367 Eh     change       -0.4415575E-03 Eh
 * total energy  :   -83.6981166 Eh     change       -0.2799141E-03 Eh
 * total energy  :   -83.6995337 Eh     change       -0.3979568E-07 Eh
 * total energy  :   -83.6995340 Eh     change       -0.2341935E-06 Eh
 * total energy  :   -83.6995343 Eh     change       -0.3384085E-06 Eh
 * total energy  :   -83.6995346 Eh     change       -0.2625247E-06 Eh
 * total energy  :   -83.6995349 Eh     change       -0.2870434E-06 Eh
 * total energy  :   -83.6995351 Eh     change       -0.2321097E-06 Eh
 * total energy  :   -83.6995353 Eh     change       -0.1968809E-06 Eh
 * total energy  :   -83.6995354 Eh     change       -0.1158951E-06 Eh
 * total energy  :   -83.6995354 Eh     change       -0.3781349E-07 Eh
   *** GEOMETRY OPTIMIZATION CONVERGED AFTER 169 ITERATIONS ***

 final structure:
================
54
 xtb: 6.7.1 (edcfbbe)
N            5.11334201083799       -2.97557653323241       -0.62732652953101
C            5.22268882450968       -1.85874257985538       -0.37249338073006
C            5.46680930019834       -0.50397781283816       -0.07201730753540
C            4.49863343835371        0.42807045106303        0.10317838628600
C            3.06421032377913        0.27978460626737        0.08964881561564
C            2.40380191199686       -0.95203360250606        0.16530047382580
C            1.02837280486086       -1.02264549691569        0.14863762306212
C            0.25344224342227        0.13739302963435        0.05449356194256
C           -1.18901188588008        0.10851342041648        0.02670173461408
N           -1.95888278240681        1.17367687430857       -0.06159390964890
C           -3.24498135945400        0.74068535558007       -0.06382705776786
C           -4.34224266552298        1.68857463355679       -0.21236281120551
C           -5.51103997738645        1.35307831211972       -0.89375321203790
C           -6.52758367247359        2.27981028343569       -1.03163322650980
C           -6.39143675985331        3.55229425874504       -0.49983372996358
C           -5.22522768137799        3.89908956678449        0.16335983695667
C           -4.20597929951491        2.97636420986013        0.30372310582476
C           -3.26791507090470       -0.64810096308160        0.03735647464049
C           -4.34348991876976       -1.61809105292208        0.14950704108307
C           -5.50578059502703       -1.31441682365469        0.86030853309417
C           -6.51685194604829       -2.24850653487534        0.97687072034734
C           -6.38572001786816       -3.49949088497427        0.39363995631588
C           -5.23302192142328       -3.81315125550189       -0.30735309035843
C           -4.21763662664821       -2.88258157198350       -0.42824476213235
N           -1.95126697527323       -1.02177686983059        0.08146716457577
C            0.90692225437945        1.37359419195099       -0.00962129369811
C            2.27896956794001        1.44155359322127        0.01491659142557
C            6.89956751773928       -0.15962363117599       -0.00280166147052
C            7.81752182281463       -0.79672427550288       -0.83753972327074
C            9.15951225386343       -0.46907939354675       -0.78216182836061
C            9.60665113205316        0.48977058216741        0.11236590025941
C            8.70334561571831        1.11831256356458        0.95434617124391
C            7.35986754336933        0.79737967903621        0.90061217554884
H            4.83956958587274        1.44659866907018        0.24379734247547
H            2.97528421834987       -1.86234679922232        0.25103462263405
H            0.56058358564100       -1.99431052398738        0.21260995364475
H           -5.61674533982845        0.36790786332202       -1.32419837603756
H           -7.42979818447564        2.00894489815687       -1.56129542648272
H           -7.18930237229285        4.27267190642783       -0.60799660850103
H           -5.11101621238722        4.89272647885710        0.57250069783649
H           -3.29066595005980        3.23520813207722        0.81403002009506
H           -5.60334438641131       -0.34432344330072        1.32408037687079
H           -7.41106444544787       -2.00095524229331        1.52981542277072
H           -7.17822080079343       -4.22710681391025        0.48636017034556
H           -5.12467458908459       -4.78565556145086       -0.76528161435440
H           -3.33162329166149       -3.12973866851994       -0.99692483518960
H           -1.62508230575317       -1.96910887885254        0.18275052291630
H            0.30333265171292        2.26483995554529       -0.07707396895276
H            2.76605824851132        2.40466207736939       -0.03610059087570
H            7.47169871559439       -1.54236146508225       -1.53974953798004
H            9.85815227904455       -0.96587586959582       -1.43925733835616
H           10.65575000853676        0.74171209177753        0.15716757031470
H            9.04818387265971        1.85854481425414        1.66147008701402
H            6.66733430227071        1.27454205004848        1.57839076737372

          :  Hamiltonian                  GFN2-xTB          :
         :: gradient norm              0.000067087195 Eh/a0 ::
         :: HOMO-LUMO gap              1.838255056713 eV    ::
         :: SCC energy               -85.303038125098 Eh    ::
         :: -> dispersion             -0.065584462015 Eh    ::
         :: -> Gsolv                  -0.040590832135 Eh    ::
         :: repulsion energy           1.603502676165 Eh    ::

    * Orbital Energies and Occupations

         #    Occupation            Energy/Eh            Energy/eV
      -------------------------------------------------------------
         1        2.0000           -0.6947811             -18.9060
       ...           ...                  ...                  ...
        66        2.0000           -0.4271981             -11.6247
        67        2.0000           -0.4239600             -11.5365
        68        2.0000           -0.4219205             -11.4810
        69        2.0000           -0.4200321             -11.4297
        70        2.0000           -0.4188237             -11.3968
        71        2.0000           -0.4166346             -11.3372
        72        2.0000           -0.4129564             -11.2371
        73        2.0000           -0.4125988             -11.2274
        74        2.0000           -0.4046873             -11.0121
        75        2.0000           -0.4020711             -10.9409
        76        2.0000           -0.3912950             -10.6477
        77        2.0000           -0.3838797             -10.4459
        78        2.0000           -0.3661201              -9.9626 (HOMO)
        79                         -0.2985655              -8.1244 (LUMO)
        80                         -0.2562912              -6.9740
        81                         -0.2411258              -6.5614
        82                         -0.2337551              -6.3608
        83                         -0.2313873              -6.2964
        84                         -0.2309458              -6.2844
        85                         -0.2295925              -6.2475
        86                         -0.2200604              -5.9881
        87                         -0.2173048              -5.9132
        88                         -0.2103786              -5.7247
        89                         -0.1730262              -4.7083
       ...                                ...                  ...
       153                          1.1466358              31.2015
      -------------------------------------------------------------
                  HL-Gap            0.0675546 Eh            1.8383 eV

     #   Z          covCN         q      C6AA      α(0)
     1   7 N        0.911    -0.291    27.504     7.585
     2   6 C        1.913     0.126    28.003     8.546
     3   6 C        2.950     0.004    27.937     8.669
     4   6 C        2.913    -0.024    28.613     8.771
     5   6 C        2.968     0.014    27.695     8.632
     6   6 C        2.920    -0.031    28.773     8.796
     7   6 C        2.919    -0.036    28.908     8.817
     8   6 C        2.973     0.001    28.012     8.682
     9   6 C        3.145     0.129    24.947     8.172
    10   7 N        1.915    -0.300    28.608     7.930
    11   6 C        3.169     0.058    26.339     8.385
    12   6 C        2.973     0.007    27.854     8.657
    13   6 C        2.923    -0.037    28.920     8.819
    14   6 C        2.919    -0.031    28.767     8.795
    15   6 C        2.919    -0.032    28.802     8.801
    16   6 C        2.918    -0.030    28.757     8.794
    17   6 C        2.926    -0.031    28.763     8.795
    18   6 C        3.056     0.025    27.385     8.582
    19   6 C        2.971     0.003    27.959     8.673
    20   6 C        2.924    -0.032    28.808     8.802
    21   6 C        2.918    -0.027    28.681     8.782
    22   6 C        2.919    -0.030    28.748     8.792
    23   6 C        2.918    -0.029    28.727     8.789
    24   6 C        2.925    -0.038    28.943     8.823
    25   7 N        2.809    -0.117    23.535     7.205
    26   6 C        2.923    -0.029    28.734     8.791
    27   6 C        2.926    -0.030    28.737     8.791
    28   6 C        2.987     0.014    27.686     8.631
    29   6 C        2.924    -0.031    28.783     8.798
    30   6 C        2.918    -0.028    28.690     8.784
    31   6 C        2.919    -0.028    28.699     8.785
    32   6 C        2.918    -0.028    28.697     8.785
    33   6 C        2.923    -0.034    28.850     8.808
    34   1 H        0.925     0.059     2.207     2.323
    35   1 H        0.926     0.042     2.428     2.437
    36   1 H        0.926     0.031     2.577     2.510
    37   1 H        0.926     0.027     2.623     2.533
    38   1 H        0.926     0.032     2.560     2.502
    39   1 H        0.926     0.033     2.548     2.496
    40   1 H        0.926     0.034     2.535     2.490
    41   1 H        0.926     0.043     2.410     2.427
    42   1 H        0.926     0.035     2.512     2.478
    43   1 H        0.926     0.038     2.476     2.461
    44   1 H        0.926     0.038     2.482     2.464
    45   1 H        0.926     0.037     2.493     2.469
    46   1 H        0.925     0.028     2.615     2.529
    47   1 H        0.860     0.170     1.272     1.767
    48   1 H        0.926     0.060     2.197     2.318
    49   1 H        0.926     0.049     2.330     2.387
    50   1 H        0.926     0.030     2.589     2.516
    51   1 H        0.926     0.037     2.484     2.465
    52   1 H        0.926     0.039     2.458     2.452
    53   1 H        0.926     0.040     2.445     2.445
    54   1 H        0.926     0.041     2.436     2.441

molecular dipole:
                 x           y           z       tot (Debye)
 q only:       -0.297       0.606       0.481
   full:       -0.274       0.370       0.560       1.843

 projected vibrational frequencies (cm⁻¹)
eigval :       -0.00    -0.00    -0.00     0.00     0.00     0.00
eigval :       17.25    20.71    27.32    42.47    44.82    46.61
eigval :       49.09    55.71    70.00    78.80    98.40   112.71
eigval :      125.34   148.64   155.71   156.76   203.60   233.04
eigval :      239.11   265.59   278.65   297.55   322.89   333.63
eigval :      348.72   365.51   369.66   371.56   375.94   387.86
eigval :      423.08   431.57   449.81   476.91   487.61   503.50
eigval :      529.30   563.20   585.13   586.26   588.94   594.58
eigval :      599.89   610.49   619.15   649.77   655.31   662.91
eigval :      663.50   667.05   669.33   687.65   698.42   725.28
eigval :      755.91   759.47   766.94   776.61   809.31   847.42
eigval :      852.37   872.67   875.63   879.71   879.84   900.82
eigval :      903.54   905.09   908.07   924.82   928.07   928.66
eigval :      930.49   930.85   932.95   933.76   938.87   953.38
eigval :      969.60   974.79  1014.11  1017.53  1043.75  1079.53
eigval :     1081.93  1084.64  1084.79  1117.69  1120.94  1122.90
eigval :     1124.17  1142.31  1178.86  1179.69  1180.47  1191.84
eigval :     1194.26  1199.58  1200.84  1208.41  1228.21  1250.73
eigval :     1267.63  1272.91  1279.40  1281.21  1284.96  1292.24
eigval :     1315.77  1316.01  1319.21  1326.09  1351.53  1365.29
eigval :     1402.81  1414.08  1427.66  1428.44  1432.60  1445.35
eigval :     1460.62  1469.31  1488.49  1519.32  1547.42  1553.71
eigval :     1559.91  1575.59  1577.26  1580.17  1592.13  1593.46
eigval :     1597.76  1608.32  2331.53  3055.18  3062.78  3067.45
eigval :     3070.75  3072.80  3074.46  3074.47  3075.03  3077.76
eigval :     3079.00  3079.88  3081.16  3085.72  3086.89  3088.26
eigval :     3094.41  3095.57  3097.00  3110.73  3121.06  3458.50

   temp. (K)  partition function   enthalpy   heat capacity  entropy
                                   cal/mol     cal/K/mol   cal/K/mol   J/K/mol
 298.15  VIB  0.106E+13            15440.508     96.115     96.658
         ROT  0.401E+08              888.752      2.981     37.770
         INT  0.424E+20            16329.260     99.096    134.427
         TR   0.843E+28             1481.254      4.968     44.001
         TOT                       17810.5143   104.0639   178.4279   746.5422

       T/K    H(0)-H(T)+PV         H(T)/Eh          T*S/Eh         G(T)/Eh
   ------------------------------------------------------------------------
    298.15    0.283829E-01    0.441292E+00    0.847768E-01    0.356515E+00
   ------------------------------------------------------------------------

         :::::::::::::::::::::::::::::::::::::::::::::::::::::
         ::                  THERMODYNAMIC                  ::
         :::::::::::::::::::::::::::::::::::::::::::::::::::::
         :: total free energy         -83.343020248516 Eh   ::
         ::.................................................::
         :: total energy              -83.699535445413 Eh   ::
         :: zero point energy           0.412909176981 Eh   ::
         :: G(RRHO) w/o ZPVE           -0.056393980084 Eh   ::
         :: G(RRHO) contrib.            0.356515196897 Eh   ::
         :::::::::::::::::::::::::::::::::::::::::::::::::::::

           -------------------------------------------------
          | TOTAL ENERGY              -83.699535445413 Eh   |
          | TOTAL ENTHALPY            -83.258243407265 Eh   |
          | TOTAL FREE ENERGY         -83.343020248516 Eh   |
          | GRADIENT NORM               0.000067093629 Eh/α |
          | HOMO-LUMO GAP               1.838253131219 eV   |
           -------------------------------------------------

 * finished run on 2025/07/20 at 02:28:26.893
