   * xtb version 6.7.1 (edcfbbe) compiled by 'albert@albert-system' on 2024-07-22

   ID    Z sym.   atoms
    1    7 N      1, 10, 25
    2    6 C      2-9, 11-24, 26-33
    3    1 H      34-54

          program call               : xtb data2507/toluene/DPimdPPA/DPimdPPA_toluene_T1_crest.xyz --gfn 2 --uhf 2 --gbsa toluene --ohess vtight --parallel 40 --molden --ceasefiles --namespace data2507/toluene/DPimdPPA/DPimdPPA_toluene_T1_finalOpt
      * Solvation model:               GBSA
        Solvent                        toluene
        Solvent mass                       9.2140E+01 g/mol
          :  Hamiltonian                  GFN2-xTB          :
 * total energy  :   -83.6325266 Eh     change       -0.1728921E-08 Eh
 * total energy  :   -83.6325504 Eh     change       -0.2375519E-04 Eh
 * total energy  :   -83.6325225 Eh     change        0.2788566E-04 Eh
 * total energy  :   -83.6325564 Eh     change       -0.3392648E-04 Eh
 * total energy  :   -83.6325603 Eh     change       -0.3903603E-05 Eh
 * total energy  :   -83.6325627 Eh     change       -0.2350900E-05 Eh
 * total energy  :   -83.6325635 Eh     change       -0.8073851E-06 Eh
 * total energy  :   -83.6325648 Eh     change       -0.1367514E-05 Eh
 * total energy  :   -83.6325659 Eh     change       -0.1100416E-05 Eh
 * total energy  :   -83.6325667 Eh     change       -0.8046078E-06 Eh
 * total energy  :   -83.6325690 Eh     change       -0.4186423E-06 Eh
 * total energy  :   -83.6325695 Eh     change       -0.4152133E-06 Eh
 * total energy  :   -83.6325698 Eh     change       -0.3693177E-06 Eh
 * total energy  :   -83.6325701 Eh     change       -0.2865070E-06 Eh
 * total energy  :   -83.6325703 Eh     change       -0.2344820E-06 Eh
 * total energy  :   -83.6325706 Eh     change       -0.2249529E-06 Eh
 * total energy  :   -83.6325708 Eh     change       -0.2753262E-06 Eh
 * total energy  :   -83.6325712 Eh     change       -0.3434089E-06 Eh
 * total energy  :   -83.6325712 Eh     change       -0.2031555E-08 Eh
   *** GEOMETRY OPTIMIZATION CONVERGED AFTER 22 ITERATIONS ***

 final structure:
================
54
 xtb: 6.7.1 (edcfbbe)
N            4.93964288584013       -2.67696869527729        1.03887828618883
C            5.11687390459895       -1.58622556606946        0.69142924261494
C            5.38365214726266       -0.28364814156586        0.28171107707134
C            4.34548530934430        0.69984880176795        0.24152909712993
C            2.97654931201181        0.51587872280480        0.15272343558209
C            2.34095365566051       -0.74732283045125       -0.07573525566328
C            0.98854854105681       -0.86361943315795       -0.13289597424724
C            0.14350340106985        0.26603095939010        0.01916451248268
C           -1.26607329885766        0.17970470223229       -0.00976952669918
N           -2.09950522082681        1.21629145514548        0.07046297064302
C           -3.35099109633670        0.73363934715466        0.00962138973822
C           -4.49011435243468        1.63724218794428       -0.00234025776018
C           -5.65081854713419        1.34774815665940       -0.72135697234918
C           -6.70566997862422        2.24049739046519       -0.72669575643524
C           -6.61794172808721        3.43204373622737       -0.02331558063785
C           -5.46025181310785        3.73615216928575        0.67650384508296
C           -4.40100088089124        2.84965346137615        0.68372526555057
C           -3.31696880723925       -0.67381967349943       -0.09500242690036
C           -4.34920115700906       -1.68294203918608       -0.10030051113837
C           -5.54001189900596       -1.49456487057487        0.61103280148294
C           -6.51048359002395       -2.47586120063367        0.61911641356133
C           -6.31646676226769       -3.66119056424075       -0.07536409646991
C           -5.13771454576579       -3.86213792745022       -0.77724405184177
C           -4.15954077284070       -2.88748630278601       -0.78815471176218
N           -1.98853337120587       -0.98647422531780       -0.12767586609578
C            0.75985031647048        1.53380607622388        0.20155116186092
C            2.10874486342826        1.65504856540349        0.25850589137122
C            6.75193762630497        0.03781377379154       -0.01153795355794
C            7.78858082421038       -0.85865543449866        0.32637080906553
C            9.10306917379764       -0.56032524822943        0.05029327952648
C            9.43673629958926        0.63332288654795       -0.57951681391582
C            8.43023525749577        1.52243019885811       -0.93560462837431
C            7.11159886902166        1.23633258898781       -0.66146386528787
H            4.68390234982699        1.72466950616286        0.31813959942476
H            2.95792187279766       -1.62082740305302       -0.21235182823164
H            0.55711912720106       -1.83875093948725       -0.31008118474809
H           -5.71607452946133        0.43123368604717       -1.28875464612660
H           -7.59954846487072        2.00833625678761       -1.28713178726301
H           -7.44623079474835        4.12512152515737       -0.02757136920138
H           -5.38486795386540        4.66806986414166        1.21759556605374
H           -3.49237402092198        3.07311246910590        1.22138107663562
H           -5.68380418214294       -0.58192087503690        1.16869309370137
H           -7.42265989562001       -2.31892511615206        1.17526189086464
H           -7.07890778594764       -4.42537830493311       -0.06796456712103
H           -4.98155318939748       -4.78241004268418       -1.32064461573503
H           -3.25558662250688       -3.04459802768621       -1.35962980897401
H           -1.61302662707022       -1.92032730107409       -0.14908386097808
H            0.11267690398404        2.39190061643632        0.29429152310139
H            2.56060065959972        2.62585398205394        0.40246634015778
H            7.53730416072860       -1.78601183840482        0.82136410221452
H            9.87912559703112       -1.25928920509390        0.32675855488297
H           10.46901796111831        0.86447115617216       -0.79460459769814
H            8.68242750921617        2.44546720710950       -1.43761018185043
H            6.34502267714562        1.92900613090377       -0.97262206352581

          :  Hamiltonian                  GFN2-xTB          :
         :: gradient norm              0.000100736633 Eh/a0 ::
         :: HOMO-LUMO gap              1.073828605621 eV    ::
         :: SCC energy               -85.218741618644 Eh    ::
         :: -> dispersion             -0.065715453469 Eh    ::
         :: -> Gsolv                  -0.042171909910 Eh    ::
         :: repulsion energy           1.586170428775 Eh    ::

    * Orbital Energies and Occupations

         #    Occupation            Energy/Eh            Energy/eV
      -------------------------------------------------------------
         1        2.0000           -0.7026584             -19.1203
       ...           ...                  ...                  ...
        67        2.0000           -0.4265234             -11.6063
        68        2.0000           -0.4206195             -11.4456
        69        2.0000           -0.4195575             -11.4167
        70        2.0000           -0.4183843             -11.3848
        71        2.0000           -0.4155711             -11.3083
        72        2.0000           -0.4127041             -11.2303
        73        2.0000           -0.4113423             -11.1932
        74        2.0000           -0.4094140             -11.1407
        75        2.0000           -0.4079618             -11.1012
        76        2.0000           -0.3904158             -10.6238
        77        2.0000           -0.3829112             -10.4195
        78        1.0000           -0.3615913              -9.8394
        79        1.0000           -0.3047832              -8.2936 (HOMO)
        80                         -0.2653209              -7.2197 (LUMO)
        81                         -0.2434187              -6.6238
        82                         -0.2365578              -6.4371
        83                         -0.2277314              -6.1969
        84                         -0.2266515              -6.1675
        85                         -0.2257301              -6.1424
        86                         -0.2237419              -6.0883
        87                         -0.2204875              -5.9998
        88                         -0.2003439              -5.4516
        89                         -0.1729411              -4.7060
        90                         -0.1602059              -4.3594
       ...                                ...                  ...
       153                          1.1474787              31.2245
      -------------------------------------------------------------
                  HL-Gap            0.0394623 Eh            1.0738 eV

     #   Z          covCN         q      C6AA      α(0)
     1   7 N        0.911    -0.329    28.451     7.714
     2   6 C        1.913     0.116    28.239     8.582
     3   6 C        2.953    -0.006    28.165     8.704
     4   6 C        2.912    -0.049    29.215     8.863
     5   6 C        2.961     0.018    27.606     8.618
     6   6 C        2.913    -0.037    28.910     8.817
     7   6 C        2.912    -0.034    28.857     8.809
     8   6 C        2.970    -0.013    28.331     8.731
     9   6 C        3.128     0.136    24.850     8.162
    10   7 N        1.906    -0.295    28.485     7.913
    11   6 C        3.157     0.073    26.081     8.350
    12   6 C        2.974     0.009    27.808     8.650
    13   6 C        2.922    -0.033    28.829     8.805
    14   6 C        2.918    -0.028    28.710     8.787
    15   6 C        2.919    -0.027    28.672     8.781
    16   6 C        2.918    -0.027    28.686     8.783
    17   6 C        2.926    -0.027    28.668     8.781
    18   6 C        3.041     0.038    27.105     8.539
    19   6 C        2.970     0.004    27.925     8.668
    20   6 C        2.923    -0.030    28.739     8.791
    21   6 C        2.917    -0.025    28.628     8.774
    22   6 C        2.919    -0.026    28.640     8.776
    23   6 C        2.917    -0.026    28.662     8.779
    24   6 C        2.924    -0.035    28.868     8.811
    25   7 N        2.796    -0.117    23.544     7.207
    26   6 C        2.915    -0.028    28.697     8.784
    27   6 C        2.919    -0.038    28.948     8.823
    28   6 C        2.981     0.018    27.595     8.617
    29   6 C        2.922    -0.033    28.824     8.804
    30   6 C        2.914    -0.027    28.687     8.783
    31   6 C        2.919    -0.028    28.691     8.784
    32   6 C        2.915    -0.028    28.696     8.784
    33   6 C        2.921    -0.035    28.866     8.811
    34   1 H        0.925     0.045     2.389     2.417
    35   1 H        0.926     0.035     2.511     2.478
    36   1 H        0.926     0.026     2.651     2.546
    37   1 H        0.926     0.035     2.517     2.481
    38   1 H        0.926     0.039     2.461     2.453
    39   1 H        0.926     0.040     2.450     2.448
    40   1 H        0.926     0.040     2.448     2.447
    41   1 H        0.926     0.049     2.337     2.391
    42   1 H        0.926     0.042     2.421     2.433
    43   1 H        0.926     0.044     2.393     2.419
    44   1 H        0.926     0.044     2.401     2.423
    45   1 H        0.926     0.042     2.419     2.432
    46   1 H        0.926     0.033     2.548     2.496
    47   1 H        0.860     0.174     1.248     1.750
    48   1 H        0.926     0.055     2.253     2.347
    49   1 H        0.926     0.040     2.444     2.445
    50   1 H        0.926     0.029     2.603     2.523
    51   1 H        0.926     0.036     2.507     2.476
    52   1 H        0.926     0.039     2.464     2.455
    53   1 H        0.926     0.039     2.465     2.455
    54   1 H        0.926     0.042     2.426     2.436

molecular dipole:
                 x           y           z       tot (Debye)
 q only:       -2.584       0.688      -0.548
   full:       -2.473       0.442      -0.705       6.632

 projected vibrational frequencies (cm⁻¹)
eigval :       -0.00    -0.00    -0.00    -0.00    -0.00     0.00
eigval :       14.49    16.21    25.40    39.25    42.26    47.60
eigval :       50.70    54.62    76.87    82.73    90.48   116.93
eigval :      130.70   137.89   160.28   164.10   187.10   236.05
eigval :      243.01   248.70   279.87   295.03   306.90   322.96
eigval :      352.98   364.89   367.76   368.60   376.57   385.06
eigval :      422.42   427.76   432.64   452.24   464.60   483.15
eigval :      511.89   551.73   558.77   563.35   583.53   585.47
eigval :      588.25   592.10   610.37   635.04   646.50   651.16
eigval :      653.18   659.60   665.01   674.48   690.59   723.58
eigval :      742.44   755.22   764.15   764.73   773.59   800.78
eigval :      825.18   838.83   849.42   870.04   874.81   884.31
eigval :      899.49   900.30   905.27   915.95   921.93   924.50
eigval :      926.60   927.04   928.43   930.69   933.26   935.22
eigval :      956.57   971.08   976.16  1010.72  1029.23  1064.40
eigval :     1078.13  1078.50  1080.85  1110.34  1117.35  1120.51
eigval :     1124.37  1135.40  1176.95  1177.15  1180.04  1184.78
eigval :     1192.61  1195.55  1201.72  1209.71  1228.64  1249.84
eigval :     1256.70  1271.23  1276.51  1279.48  1284.68  1307.01
eigval :     1311.86  1317.19  1320.20  1327.40  1331.77  1343.06
eigval :     1374.01  1405.30  1423.53  1423.76  1424.66  1431.37
eigval :     1437.59  1443.84  1472.57  1492.11  1501.17  1509.30
eigval :     1521.02  1533.84  1561.77  1566.37  1572.34  1581.73
eigval :     1589.77  1593.44  2251.26  3057.77  3064.01  3068.60
eigval :     3072.94  3073.73  3074.20  3074.69  3076.78  3080.35
eigval :     3083.92  3084.39  3085.70  3091.44  3092.12  3094.26
eigval :     3097.15  3101.06  3101.33  3104.71  3117.61  3462.81

   temp. (K)  partition function   enthalpy   heat capacity  entropy
                                   cal/mol     cal/K/mol   cal/K/mol   J/K/mol
 298.15  VIB  0.215E+13            15671.997     97.496     98.142
         ROT  0.398E+08              888.752      2.981     37.756
         INT  0.854E+20            16560.750    100.477    135.898
         TR   0.843E+28             1481.254      4.968     44.001
         TOT                       18042.0035   105.4452   179.8983   752.6946

       T/K    H(0)-H(T)+PV         H(T)/Eh          T*S/Eh         G(T)/Eh
   ------------------------------------------------------------------------
    298.15    0.287518E-01    0.438716E+00    0.854755E-01    0.353240E+00
   ------------------------------------------------------------------------

         :::::::::::::::::::::::::::::::::::::::::::::::::::::
         ::                  THERMODYNAMIC                  ::
         :::::::::::::::::::::::::::::::::::::::::::::::::::::
         :: total free energy         -83.279330707409 Eh   ::
         ::.................................................::
         :: total energy              -83.632571193097 Eh   ::
         :: zero point energy           0.409964223765 Eh   ::
         :: G(RRHO) w/o ZPVE           -0.056723738077 Eh   ::
         :: G(RRHO) contrib.            0.353240485688 Eh   ::
         :::::::::::::::::::::::::::::::::::::::::::::::::::::

           -------------------------------------------------
          | TOTAL ENERGY              -83.632571193097 Eh   |
          | TOTAL ENTHALPY            -83.193855206585 Eh   |
          | TOTAL FREE ENERGY         -83.279330707409 Eh   |
          | GRADIENT NORM               0.000100648785 Eh/α |
          | HOMO-LUMO GAP               1.073824613602 eV   |
           -------------------------------------------------

 * finished run on 2025/07/20 at 02:32:20.414
