   * xtb version 6.7.1 (edcfbbe) compiled by 'albert@albert-system' on 2024-07-22

   ID    Z sym.   atoms
    1    6 C      1-10, 12-21, 23-25, 27-56, 58-66
    2    5 B      11
    3    8 O      22, 67
    4    7 N      26, 57
    5    1 H      68-116

          program call               : xtb data2507/gas/TDBA-TPDICz/TDBA-TPDICz_gas_S0_finalOpt.xtbopt.xyz --gfn 2 --spinpol --tblite --uhf 2 --ohess vtight --parallel 40 --molden --ceasefiles --namespace data2507/gas/TDBA-TPDICz/TDBA-TPDICz_gas_T1_preOpt
 * total energy  :  -173.0416720 Eh     change        0.9358308E-07 Eh
 * total energy  :  -173.0431347 Eh     change       -0.1462683E-02 Eh
 * total energy  :  -173.0437332 Eh     change       -0.5985521E-03 Eh
 * total energy  :  -173.0438163 Eh     change       -0.8305935E-04 Eh
 * total energy  :  -173.0439647 Eh     change       -0.1483449E-03 Eh
 * total energy  :  -173.0440334 Eh     change       -0.6870752E-04 Eh
 * total energy  :  -173.0441071 Eh     change       -0.7377928E-04 Eh
 * total energy  :  -173.0441612 Eh     change       -0.5406347E-04 Eh
 * total energy  :  -173.0441856 Eh     change       -0.2443397E-04 Eh
 * total energy  :  -173.0442024 Eh     change       -0.1680719E-04 Eh
 * total energy  :  -173.0443259 Eh     change       -0.2858677E-05 Eh
 * total energy  :  -173.0443287 Eh     change       -0.2757793E-05 Eh
 * total energy  :  -173.0443311 Eh     change       -0.2394702E-05 Eh
 * total energy  :  -173.0443329 Eh     change       -0.1827865E-05 Eh
 * total energy  :  -173.0443348 Eh     change       -0.1896062E-05 Eh
 * total energy  :  -173.0443360 Eh     change       -0.1200513E-05 Eh
 * total energy  :  -173.0443372 Eh     change       -0.1193040E-05 Eh
 * total energy  :  -173.0443385 Eh     change       -0.1256457E-05 Eh
 * total energy  :  -173.0443385 Eh     change       -0.8655718E-08 Eh
   *** GEOMETRY OPTIMIZATION CONVERGED AFTER 44 ITERATIONS ***

 final structure:
================
116
 xtb: 6.7.1 (edcfbbe)
C            9.40338480904063       -3.51854167558526       -0.92651098607251
C            8.79828393729422       -2.22374702435650       -1.48664149881798
C            9.14989703091034       -2.08667521834688       -2.97478245165502
C            9.42447744506469       -1.04224601680322       -0.74017444932086
C            7.28523667581073       -2.27971157879979       -1.33722805830460
C            6.57136393566654       -3.29859060044700       -1.97363249267319
C            5.20481851731472       -3.39478353807213       -1.84210965158788
C            4.50338274750007       -2.46251319553413       -1.08032658009595
C            5.17130128788387       -1.39781894164948       -0.45097328057705
C            6.56671099169099       -1.36323976095106       -0.59329301052128
B            4.30415424109158       -0.39288827680821        0.34200052663766
C            4.60688879189415        0.96410278290437        1.01842246708712
C            5.79979804022557        1.69552213815947        0.91826084162627
C            6.02156925194115        2.89481294567446        1.56826642425041
C            7.32662842751478        3.66935469289560        1.45827935821730
C            7.93696585827102        3.82134824292847        2.85873518539474
C            8.35685892701586        2.97181175003945        0.56525537819404
C            7.03813755638518        5.05493227076311        0.86376424055063
C            4.98811995863558        3.40168674474027        2.36035870699851
C            3.78698653729411        2.73813750509445        2.46754966305211
C            3.58489631298146        1.53383603477937        1.79690029939914
O            2.33944432186068        0.99503779984727        1.96160614028035
C            1.94200966817139       -0.08301176417584        1.25181008509328
C            0.59962699753900       -0.42514795374846        1.31984683248222
C            0.13309458646837       -1.48195410391282        0.54645012545428
N           -1.24624562692632       -1.74413272551501        0.50582383957472
C           -1.82382066362497       -2.92466024351345        0.90068677890820
C           -1.21291133992720       -4.08290925862003        1.35216319016854
C           -2.02626271564274       -5.15562258302139        1.67158621442875
C           -3.41406506387382       -5.06455765552372        1.53027518862777
C           -4.03152522203128       -3.90666008245514        1.10606883518088
C           -3.24101087792940       -2.79295789651225        0.80368037528908
C           -3.49282820735014       -1.46531517493556        0.35641991579720
C           -4.70327319485478       -0.75591154836282        0.11368677579160
C           -6.00972368786651       -1.35672188334056        0.35404106461644
C           -6.35407463717048       -1.83594314430369        1.62060326853406
C           -7.60623844513656       -2.36866336513837        1.85190715981082
C           -8.53287693106343       -2.45066453249319        0.82407849543509
C           -8.19273814375506       -2.00184283601988       -0.44311425740910
C           -6.94694249882243       -1.45844669896700       -0.67753106418581
C           -4.53867129860973        0.55072023154705       -0.38862810152871
C           -3.28079636027086        1.10850630093272       -0.72084259890565
C           -2.06938756393933        0.41202079120764       -0.45104220827127
C           -0.76719586441381        1.00324841457625       -0.76278322787111
C           -0.35908071409675        2.18234880044772       -0.13732669966812
C            0.89266198204574        2.71124648420343       -0.38526645946580
C            1.75112359932828        2.08549396885023       -1.27451072573214
C            1.33961874250000        0.93556624805959       -1.93039867268709
C            0.09271907884081        0.39822251723520       -1.68018740130315
C           -2.22993965489240       -0.86035424015602        0.12915679184320
C           -3.53179003785256        2.38000580152447       -1.30988718406329
C           -2.73903658875264        3.36994129863069       -1.89944376432392
C           -3.34709250287736        4.51601388666238       -2.36575160924566
C           -4.72517342248011        4.71744334031136       -2.25570064076869
C           -5.53993135400424        3.74734451756550       -1.69728910213489
C           -4.94083135435196        2.58060282416354       -1.25440298854396
N           -5.52019222666611        1.46894977072442       -0.68267033314327
C           -6.87849562147800        1.40632211879068       -0.32685141706626
C           -7.23911377453218        1.24071137782127        1.00643000164711
C           -8.57422335248843        1.17978506294981        1.35381316007320
C           -9.55424895107805        1.29919693672105        0.38182609956340
C           -9.19546348014963        1.48864139509765       -0.94163045870734
C           -7.86127220668531        1.54471650592335       -1.30041002377210
C            1.00276774618234       -2.25816649761246       -0.21043423360677
C            2.35030820586850       -1.92283897406687       -0.24023606598309
C            2.84449243258478       -0.81490346284348        0.46424732276306
O            3.15573468980938       -2.68423401661363       -1.01339254732048
H            9.14219579856947       -3.63102490243296        0.12376817228556
H           10.48788905914565       -3.49470589900530       -1.01246958870770
H            9.03870181716624       -4.39023420066817       -1.46274484347341
H           10.22890231334959       -2.02539845886592       -3.10148306525605
H            8.70203942802152       -1.18371439492628       -3.38470867013499
H            8.78866495263065       -2.93590330935534       -3.54793329521525
H           10.50320170826542       -1.05382016294959       -0.88411069770096
H            9.22847539464728       -1.10533182565943        0.32776747621630
H            9.04647160469205       -0.09541646607852       -1.11889118608859
H            7.08510408801305       -4.03638292877704       -2.57086272669879
H            4.65465612474391       -4.19279292699966       -2.31745375384222
H            7.08846845651357       -0.58190713350848       -0.07039873325430
H            6.56575896788427        1.29033809643448        0.28159714834736
H            8.88257178019660        4.35661483311059        2.80019523232707
H            8.12067207727948        2.84217762857249        3.29623860643397
H            7.27587602458764        4.37162590927130        3.52230710718592
H            7.98471460421764        2.86213953187914       -0.45082332341255
H            9.26580784745897        3.56916665722739        0.52643166350648
H            8.61693139888090        1.99219542872638        0.95957989003233
H            6.58958718884961        4.95434023962078       -0.12248877162562
H            7.96166236247593        5.62224777806045        0.76696099726819
H            6.35564505221973        5.62082849796622        1.49175444481956
H            5.11274595412235        4.33244304476052        2.89264293327073
H            2.98051703019438        3.13876487466882        3.06299843369999
H           -0.07590132312001        0.15260427196474        1.92950337278567
H           -0.13943388240571       -4.14379783588274        1.44552404129696
H           -1.58559428925796       -6.07576412845427        2.02270923931004
H           -4.01903234816306       -5.92862761896141        1.76416563482258
H           -5.10342311966621       -3.86633847179471        1.00103206485292
H           -5.63575049962122       -1.76155026369794        2.42427385889445
H           -7.86377909115505       -2.72169449879779        2.84016196715020
H           -9.51183932847414       -2.86747904140532        1.00732462494400
H           -8.90425970481299       -2.07990574793462       -1.25226821330718
H           -6.67740392037795       -1.12723625557974       -1.67026893011122
H           -1.02357137090411        2.66246592174980        0.56657368905946
H            1.20618491581884        3.61041380301453        0.12476542467416
H            2.73610985838080        2.49000174252776       -1.45403343589725
H            1.99843561875135        0.45403469342294       -2.63827974737082
H           -0.22876764774385       -0.49323978744560       -2.19904068947317
H           -1.67369338999894        3.23706421902067       -1.99337538472395
H           -2.74282029203039        5.28480053728472       -2.82494311895343
H           -5.16037702700032        5.63642979652094       -2.61683990695789
H           -6.60574444741914        3.89658244797461       -1.61099286199867
H           -6.46897254906595        1.15827903519907        1.75838429211867
H           -8.85101308167784        1.04231028377539        2.38797330027753
H          -10.59664615220995        1.24763763781198        0.65691277685860
H           -9.95707373800480        1.58651963107927       -1.70077741398429
H           -7.57341766599718        1.67113767992583       -2.33361121742682
H            0.63641303483129       -3.07954784080608       -0.80549368584516

 projected vibrational frequencies (cm⁻¹)
eigval :       -0.00    -0.00    -0.00     0.00     0.00     0.00
eigval :        8.91    11.06    11.64    21.78    24.64    28.45
eigval :       29.37    36.75    43.28    45.45    52.01    54.23
eigval :       61.65    63.71    68.78    72.38    77.65    82.24
eigval :       92.69    96.10   103.75   109.52   112.91   118.44
eigval :      125.98   138.51   139.85   152.12   158.90   173.12
eigval :      177.66   181.75   192.66   197.21   209.25   210.16
eigval :      220.60   222.36   226.49   228.09   230.88   237.08
eigval :      247.31   252.68   260.52   264.65   269.54   277.83
eigval :      281.11   288.33   299.09   313.54   321.11   321.36
eigval :      328.55   335.63   346.97   361.21   365.11   366.75
eigval :      374.32   376.87   379.12   380.78   384.79   386.56
eigval :      395.31   395.94   408.15   411.47   413.99   433.63
eigval :      435.05   442.89   443.96   456.62   460.79   470.63
eigval :      475.72   489.07   498.74   509.37   515.06   517.20
eigval :      517.99   525.37   530.65   543.81   564.27   570.00
eigval :      572.38   577.00   581.40   583.38   588.11   590.57
eigval :      594.72   597.96   602.19   612.42   619.50   622.57
eigval :      640.44   645.20   649.07   656.57   659.88   661.84
eigval :      665.02   672.44   683.86   684.84   688.80   691.53
eigval :      700.61   712.10   713.46   718.91   731.20   743.98
eigval :      750.61   758.28   759.11   770.01   779.11   785.07
eigval :      821.26   824.33   825.65   831.67   834.73   849.89
eigval :      852.60   855.92   860.96   869.02   870.47   874.02
eigval :      874.37   874.97   875.87   877.32   887.19   888.82
eigval :      892.55   895.20   898.14   900.03   907.37   909.65
eigval :      911.13   914.85   914.93   924.37   925.89   927.09
eigval :      928.02   928.41   929.58   931.30   940.86   959.78
eigval :      960.35   960.48   960.59   962.71   962.82   963.11
eigval :      969.54   974.38   991.20  1017.43  1024.41  1034.52
eigval :     1035.42  1035.68  1035.72  1064.92  1068.35  1078.01
eigval :     1079.42  1080.07  1081.43  1082.80  1097.35  1103.16
eigval :     1112.84  1117.02  1119.16  1121.43  1132.82  1138.94
eigval :     1140.73  1147.74  1154.06  1158.45  1178.19  1178.89
eigval :     1179.64  1179.71  1181.10  1184.95  1188.17  1189.51
eigval :     1196.21  1196.84  1204.53  1218.58  1219.70  1228.23
eigval :     1228.35  1230.32  1230.88  1233.97  1243.84  1244.59
eigval :     1248.19  1252.22  1272.82  1274.19  1278.34  1280.41
eigval :     1280.90  1283.00  1293.83  1296.88  1298.98  1307.13
eigval :     1314.30  1317.56  1319.09  1323.18  1328.00  1329.76
eigval :     1333.29  1351.46  1365.66  1369.40  1378.97  1382.99
eigval :     1390.60  1393.23  1396.45  1397.21  1401.65  1405.32
eigval :     1405.47  1406.72  1407.81  1410.03  1411.87  1426.32
eigval :     1428.21  1428.37  1429.00  1436.52  1443.02  1448.19
eigval :     1453.25  1463.42  1465.05  1469.65  1474.77  1477.65
eigval :     1486.33  1491.91  1492.06  1494.77  1494.89  1499.82
eigval :     1502.92  1504.67  1505.07  1514.29  1514.99  1518.33
eigval :     1522.79  1527.25  1534.04  1543.23  1547.47  1548.66
eigval :     1551.89  1554.70  1561.37  1563.83  1567.75  1579.39
eigval :     1581.29  1582.18  1582.46  1591.94  1593.72  3019.79
eigval :     3020.30  3021.67  3021.98  3026.60  3026.80  3028.40
eigval :     3028.95  3030.89  3031.04  3034.88  3035.37  3037.67
eigval :     3037.84  3046.97  3047.20  3050.23  3050.49  3069.93
eigval :     3071.04  3071.72  3073.13  3077.40  3078.24  3079.95
eigval :     3080.96  3081.40  3081.51  3082.26  3082.98  3084.04
eigval :     3085.08  3085.95  3087.71  3091.68  3093.05  3093.37
eigval :     3093.85  3094.43  3096.63  3098.01  3099.78  3102.75
eigval :     3106.43  3111.31  3113.25  3115.12  3139.32  3147.17

   temp. (K)  partition function   enthalpy   heat capacity  entropy
                                   cal/mol     cal/K/mol   cal/K/mol   J/K/mol
 298.15  VIB  0.435E+26            33857.208    213.236    209.865
         ROT  0.195E+09              888.752      2.981     40.914
         INT  0.848E+34            34745.960    216.217    250.780
         TR   0.246E+29             1481.254      4.968     46.128
         TOT                       36227.2139   221.1848   296.9074  1242.2607

       T/K    H(0)-H(T)+PV         H(T)/Eh          T*S/Eh         G(T)/Eh
   ------------------------------------------------------------------------
    298.15    0.577317E-01    0.971245E+00    0.141070E+00    0.830175E+00
   ------------------------------------------------------------------------

         :::::::::::::::::::::::::::::::::::::::::::::::::::::
         ::                  THERMODYNAMIC                  ::
         :::::::::::::::::::::::::::::::::::::::::::::::::::::
         :: total free energy        -172.214163834846 Eh   ::
         ::.................................................::
         :: total energy             -173.044338414069 Eh   ::
         :: zero point energy           0.913513140293 Eh   ::
         :: G(RRHO) w/o ZPVE           -0.083338561070 Eh   ::
         :: G(RRHO) contrib.            0.830174579223 Eh   ::
         :::::::::::::::::::::::::::::::::::::::::::::::::::::

           -------------------------------------------------
          | TOTAL ENERGY             -173.044338414069 Eh   |
          | TOTAL ENTHALPY           -172.073093533651 Eh   |
          | TOTAL FREE ENERGY        -172.214163834846 Eh   |
          | GRADIENT NORM               0.000093878735 Eh/α |
           -------------------------------------------------

 * finished run on 2025/07/18 at 01:28:39.605
