   * xtb version 6.7.1 (edcfbbe) compiled by 'albert@albert-system' on 2024-07-22

   ID    Z sym.   atoms
    1    6 C      1-10, 12-21, 23-25, 27-56, 58-66
    2    5 B      11
    3    8 O      22, 67
    4    7 N      26, 57
    5    1 H      68-116

          program call               : xtb data2507/gas/TDBA-TPDICz/TDBA-TPDICz_gas_T1_crest.xyz --gfn 2 --spinpol --tblite --uhf 2 --ohess vtight --parallel 40 --molden --ceasefiles --namespace data2507/gas/TDBA-TPDICz/TDBA-TPDICz_gas_T1_finalOpt
 * total energy  :  -173.0442620 Eh     change       -0.2642520E-07 Eh
 * total energy  :  -173.0443186 Eh     change       -0.5659443E-04 Eh
 * total energy  :  -173.0443507 Eh     change       -0.3204115E-04 Eh
 * total energy  :  -173.0443562 Eh     change       -0.5561282E-05 Eh
 * total energy  :  -173.0443609 Eh     change       -0.4677009E-05 Eh
 * total energy  :  -173.0443629 Eh     change       -0.1947240E-05 Eh
 * total energy  :  -173.0443656 Eh     change       -0.2706652E-05 Eh
 * total energy  :  -173.0443669 Eh     change       -0.1326073E-05 Eh
 * total energy  :  -173.0443677 Eh     change       -0.8257853E-06 Eh
 * total energy  :  -173.0443688 Eh     change       -0.1125723E-05 Eh
 * total energy  :  -173.0443714 Eh     change       -0.6618350E-06 Eh
 * total energy  :  -173.0443719 Eh     change       -0.5119984E-06 Eh
 * total energy  :  -173.0443724 Eh     change       -0.4652629E-06 Eh
 * total energy  :  -173.0443728 Eh     change       -0.3978559E-06 Eh
 * total energy  :  -173.0443731 Eh     change       -0.3564149E-06 Eh
 * total energy  :  -173.0443734 Eh     change       -0.2784582E-06 Eh
 * total energy  :  -173.0443736 Eh     change       -0.1884237E-06 Eh
 * total energy  :  -173.0443737 Eh     change       -0.1548235E-06 Eh
 * total energy  :  -173.0443737 Eh     change       -0.2538059E-09 Eh
   *** GEOMETRY OPTIMIZATION CONVERGED AFTER 21 ITERATIONS ***

 final structure:
================
116
 xtb: 6.7.1 (edcfbbe)
C            9.44307739095481       -3.48256867541414       -0.75752317047983
C            8.84134666304181       -2.19845570709259       -1.34518319874522
C            9.22754158485551       -2.07334688866051       -2.82576268801663
C            9.44002752385518       -1.00435438902666       -0.59613782507566
C            7.32565909024034       -2.26514650291152       -1.23118528242535
C            6.63439807441961       -3.29489018287696       -1.87515099445984
C            5.26580398423633       -3.40087952612983       -1.77518350874600
C            4.53936913744705       -2.46801976304857       -1.03791666921374
C            5.18500031571301       -1.39337109490145       -0.40233961864866
C            6.58291103117193       -1.34824177147107       -0.51205177377698
B            4.29310241902728       -0.39064469926004        0.36447721132819
C            4.56835718618522        0.97681100940519        1.03086459852654
C            5.74974293111605        1.72674345683936        0.93229973138831
C            5.94527357851457        2.93683561893928        1.57065264256646
C            7.23635563084194        3.73434303448887        1.46039582494680
C            7.83610773778945        3.91085088771127        2.86251216312422
C            8.28401159526319        3.04772060234523        0.57929273331958
C            6.92529738509319        5.10863441745700        0.85114966865044
C            4.89740626563218        3.43338088048118        2.35031307138462
C            3.70668732774808        2.75091944496029        2.45496372489475
C            3.52990221073496        1.53748287923767        1.79377903753641
O            2.29125630768942        0.98070646392118        1.95000500501197
C            1.91513513443899       -0.10253874299661        1.23627045936275
C            0.57528199310167       -0.45666096334185        1.28185746979978
C            0.13001067434257       -1.51554953013375        0.49831507414058
N           -1.24745133180767       -1.78014498670766        0.43268136862973
C           -1.83292707570075       -2.96391866449030        0.80663377434033
C           -1.23110498773480       -4.13526654529276        1.23608047429254
C           -2.05252036240567       -5.20771507817285        1.53503700256657
C           -3.43971724740332       -5.10375618206195        1.39642746734856
C           -4.04841181331529       -3.93294904421149        0.99604903514501
C           -3.24937512939647       -2.81983733656169        0.71478929127682
C           -3.49243915770492       -1.48192025692814        0.29443332634894
C           -4.69817624074865       -0.75623162055216        0.07708533337383
C           -6.00765311006508       -1.34736539022941        0.32361536218055
C           -6.33869748696037       -1.84900363097114        1.58513415775169
C           -7.59356502355343       -2.37153377991712        1.82452836064665
C           -8.53646782233402       -2.42114018632431        0.80947493958480
C           -8.20984862236463       -1.95046677985667       -0.45335214963265
C           -6.96127877763626       -1.41695598420272       -0.69555256902773
C           -4.52495379695442        0.55836381740216       -0.40089225850554
C           -3.26515829537534        1.10897329250241       -0.73766523826916
C           -2.05787059686616        0.39645530803674       -0.49007945248453
C           -0.75272451208763        0.97606918373086       -0.80824778786272
C           -0.32964909461134        2.15206667920263       -0.18631168634327
C            0.92609312693043        2.66802107207414       -0.44079392689945
C            1.77434795084602        2.03247682310404       -1.33297738214283
C            1.34843487398858        0.88555091958816       -1.98512042301426
C            0.09765174174298        0.36094671925411       -1.72827187854223
C           -2.22610246021944       -0.88309128034214        0.07284937116855
C           -3.51004952069699        2.39263009162428       -1.30271951043438
C           -2.71478812685846        3.38377030437997       -1.88700610028402
C           -3.31628497000506        4.54420218375609       -2.32538409013265
C           -4.69032721046326        4.75893149875265       -2.19256214859332
C           -5.50806796328961        3.78810436285324       -1.63997327161682
C           -4.91608050224581        2.60731291795198       -1.22551338640092
N           -5.50027293508319        1.49205896824011       -0.66596437304616
C           -6.85330602467203        1.43860386342864       -0.28943973513303
C           -7.19398736138239        1.24964885622301        1.04604528427255
C           -8.52377959661468        1.19739167384371        1.41445798242329
C           -9.51818537190037        1.34891945457570        0.46173018614144
C           -9.17893786578406        1.56167239991919       -0.86332236020416
C           -7.85025910509336        1.60896346406354       -1.24329375394206
C            1.01886970502926       -2.28540021357980       -0.24270744244734
C            2.36479168587049       -1.94136981323275       -0.24573839944857
C            2.83665719841847       -0.82790409236496        0.46516549438693
O            3.19185616537017       -2.69853716886583       -1.00030625657597
H            9.15773216373764       -3.58658563545393        0.28732979991479
H           10.52910970205282       -3.45076139574950       -0.81779956869553
H            9.09818317215480       -4.36252626718444       -1.29335936349275
H           10.30881911901299       -2.00546518798555       -2.92718187094515
H            8.78335445200457       -1.17765811253236       -3.25516374229904
H            8.88617095986868       -2.93068375648224       -3.39899338339962
H           10.52186746697799       -1.00800890678233       -0.71490946594583
H            9.21976660761392       -1.05862395035810        0.46755355085736
H            9.06293852605652       -0.06460234417579       -0.99300877237546
H            7.16773545260921       -4.03390246319859       -2.45342601108597
H            4.73354005951522       -4.20744891787386       -2.25642368562753
H            7.08537330906376       -0.55833953149632        0.01703923835147
H            6.52719584895011        1.32749818946583        0.30567918607824
H            8.77146388641238        4.46382322939212        2.80399517323878
H            8.03635971763298        2.93943674668468        3.30993369339785
H            7.16085973740032        4.45416049096879        3.51752400117133
H            7.91889096473525        2.92084936644523       -0.43733876045107
H            9.18161185845557        3.66188552684482        0.53875546352130
H            8.56073514536384        2.07720350645511        0.98464160312952
H            7.83880789692730        5.69156870976166        0.75221183923469
H            6.23028233735293        5.66832269951234        1.47091177739650
H            6.48250521030584        4.99029777786330       -0.13573939821847
H            5.00212779514719        4.37140823205602        2.87406480658754
H            2.88878184423992        3.14407749523248        3.03970456082570
H           -0.11551683841030        0.11474559569252        1.88031163356025
H           -0.15827192510692       -4.20669901952517        1.32876824100872
H           -1.61857908247927       -6.13779912398864        1.86790162640693
H           -4.05101199917861       -5.96772759429544        1.61358917874747
H           -5.12007976608859       -3.88175459792025        0.89307487759343
H           -5.60750145271638       -1.79982920274005        2.37906759415255
H           -7.84054862175319       -2.74178433343884        2.80916742258540
H           -9.51767533442613       -2.82971908311899        0.99912356970565
H           -8.93430590991724       -2.00347769097208       -1.25300303578417
H           -6.70260597491503       -1.06854320580285       -1.68528871121477
H           -0.98515521837880        2.63899200511611        0.52126828675057
H            1.25124256483592        3.56441872409210        0.06687171614193
H            2.76244391670965        2.42694989445758       -1.51751450390938
H            1.99912373033909        0.39642207805669       -2.69531762362915
H           -0.23499228848271       -0.52815039658855       -2.24424135743866
H           -1.65247865631478        3.24091509912781       -1.99873525740731
H           -2.70976994441898        5.31388122331192       -2.78010187247648
H           -5.12015832800998        5.68874128861772       -2.53178280792224
H           -6.57088273402268        3.94743880557877       -1.53662081625186
H           -6.41266250073131        1.14241706670279        1.78319599949918
H           -8.78507508517841        1.04147858540323        2.45003630525040
H          -10.55645605795128        1.30413216827239        0.75313966243121
H           -9.95171299719410        1.68462005766849       -1.60739041389778
H           -7.57811017389753        1.75298853814981       -2.27843253234527
H            0.66961306968134       -3.10774674103228       -0.84655831621543

 projected vibrational frequencies (cm⁻¹)
eigval :       -0.00    -0.00     0.00     0.00     0.00     0.00
eigval :        8.75    11.15    11.73    21.70    24.90    28.21
eigval :       29.72    36.85    43.53    45.73    52.35    54.18
eigval :       61.67    63.74    69.09    72.61    78.53    82.22
eigval :       92.91    96.23   104.61   110.01   113.01   118.26
eigval :      126.59   139.16   140.63   152.84   159.62   172.94
eigval :      177.60   181.55   192.72   197.35   209.21   210.08
eigval :      220.33   222.53   226.32   228.33   231.15   237.10
eigval :      247.63   253.07   260.59   264.77   269.79   278.00
eigval :      281.11   288.83   299.17   313.62   320.73   321.27
eigval :      328.78   335.85   347.10   360.64   365.15   366.71
eigval :      374.37   377.29   379.18   380.85   384.54   386.57
eigval :      395.31   395.80   408.51   411.66   414.25   433.57
eigval :      435.38   442.55   444.23   456.51   460.62   470.74
eigval :      475.48   489.06   498.87   509.41   515.22   517.08
eigval :      517.97   525.13   530.69   544.01   564.19   570.06
eigval :      572.37   576.86   581.30   583.26   587.93   590.39
eigval :      594.63   597.71   602.10   612.21   619.68   622.48
eigval :      640.38   645.01   649.20   656.18   659.81   661.82
eigval :      665.03   672.40   683.81   684.88   688.91   692.33
eigval :      700.82   711.98   713.47   719.21   731.33   743.77
eigval :      750.79   758.36   759.23   769.63   778.72   784.64
eigval :      821.08   824.66   825.68   831.40   835.19   850.38
eigval :      852.60   856.51   860.94   870.68   870.82   873.99
eigval :      874.45   874.89   875.92   877.47   887.24   889.24
eigval :      892.73   894.99   898.07   900.02   907.38   909.70
eigval :      911.13   914.78   914.85   924.41   925.74   927.36
eigval :      928.04   928.98   929.35   931.33   940.62   959.64
eigval :      960.03   960.35   960.47   962.39   962.55   962.83
eigval :      969.57   974.34   991.29  1017.47  1024.05  1034.17
eigval :     1035.03  1035.27  1035.39  1065.73  1069.15  1077.12
eigval :     1079.58  1080.38  1081.30  1082.59  1097.24  1103.21
eigval :     1112.66  1117.22  1119.65  1121.77  1132.76  1138.04
eigval :     1140.58  1147.61  1153.80  1158.22  1178.15  1178.88
eigval :     1179.28  1180.53  1180.74  1184.49  1187.78  1189.46
eigval :     1196.00  1196.84  1203.74  1218.13  1219.36  1228.00
eigval :     1228.23  1230.16  1230.83  1233.77  1244.13  1244.74
eigval :     1248.60  1252.90  1272.59  1274.03  1278.61  1280.28
eigval :     1280.93  1282.19  1293.50  1296.93  1298.90  1307.18
eigval :     1314.54  1317.62  1319.17  1323.06  1328.05  1328.54
eigval :     1333.21  1351.57  1365.21  1368.69  1378.25  1382.44
eigval :     1389.99  1393.62  1396.25  1396.82  1401.64  1404.65
eigval :     1404.96  1406.08  1407.56  1409.75  1411.32  1426.08
eigval :     1426.44  1427.20  1427.75  1435.82  1442.73  1448.05
eigval :     1452.69  1463.07  1464.17  1468.52  1474.12  1476.88
eigval :     1485.94  1491.22  1491.53  1493.73  1493.90  1499.02
eigval :     1501.99  1503.98  1504.48  1513.75  1514.26  1517.78
eigval :     1522.00  1527.13  1534.63  1543.13  1546.79  1548.43
eigval :     1551.65  1554.73  1560.41  1563.51  1566.03  1578.85
eigval :     1581.10  1581.64  1582.51  1591.72  1593.53  3019.27
eigval :     3019.65  3021.10  3021.14  3025.88  3026.12  3027.80
eigval :     3028.24  3029.65  3029.87  3034.23  3034.69  3036.15
eigval :     3036.46  3045.65  3045.78  3049.43  3049.68  3069.27
eigval :     3070.49  3071.36  3073.09  3076.87  3077.68  3079.40
eigval :     3080.70  3080.80  3080.93  3081.65  3082.54  3083.28
eigval :     3084.69  3085.39  3087.56  3091.00  3092.31  3093.22
eigval :     3093.42  3093.93  3095.79  3097.24  3099.06  3102.44
eigval :     3106.33  3110.78  3112.21  3114.53  3137.68  3145.53

   temp. (K)  partition function   enthalpy   heat capacity  entropy
                                   cal/mol     cal/K/mol   cal/K/mol   J/K/mol
 298.15  VIB  0.404E+26            33846.876    213.275    209.752
         ROT  0.194E+09              888.752      2.981     40.908
         INT  0.785E+34            34735.628    216.256    250.660
         TR   0.246E+29             1481.254      4.968     46.128
         TOT                       36216.8820   221.2237   296.7880  1241.7611

       T/K    H(0)-H(T)+PV         H(T)/Eh          T*S/Eh         G(T)/Eh
   ------------------------------------------------------------------------
    298.15    0.577153E-01    0.971092E+00    0.141014E+00    0.830078E+00
   ------------------------------------------------------------------------

         :::::::::::::::::::::::::::::::::::::::::::::::::::::
         ::                  THERMODYNAMIC                  ::
         :::::::::::::::::::::::::::::::::::::::::::::::::::::
         :: total free energy        -172.214295438665 Eh   ::
         ::.................................................::
         :: total energy             -173.044373861046 Eh   ::
         :: zero point energy           0.913376719269 Eh   ::
         :: G(RRHO) w/o ZPVE           -0.083298296889 Eh   ::
         :: G(RRHO) contrib.            0.830078422381 Eh   ::
         :::::::::::::::::::::::::::::::::::::::::::::::::::::

           -------------------------------------------------
          | TOTAL ENERGY             -173.044373861046 Eh   |
          | TOTAL ENTHALPY           -172.073281866615 Eh   |
          | TOTAL FREE ENERGY        -172.214295438665 Eh   |
          | GRADIENT NORM               0.000091761361 Eh/α |
           -------------------------------------------------

 * finished run on 2025/07/18 at 01:48:34.455
