   * xtb version 6.7.1 (edcfbbe) compiled by 'albert@albert-system' on 2024-07-22

   ID    Z sym.   atoms
    1    6 C      1-10, 12-21, 23-25, 27-56, 58-66
    2    5 B      11
    3    8 O      22, 67
    4    7 N      26, 57
    5    1 H      68-116

          program call               : xtb data2507/gas/TDBA-TPDICz/TDBA-TPDICz_gas_S0_crest.xyz --gfn 2 --ohess vtight --parallel 40 --molden --ceasefiles --namespace data2507/gas/TDBA-TPDICz/TDBA-TPDICz_gas_S0_finalOpt
          :  Hamiltonian                  GFN2-xTB          :
 * total energy  :  -173.1293693 Eh     change       -0.9380216E-08 Eh
 * total energy  :  -173.1293705 Eh     change       -0.1232419E-05 Eh
 * total energy  :  -173.1293705 Eh     change       -0.3783214E-08 Eh
 * total energy  :  -173.1293722 Eh     change       -0.1665165E-05 Eh
 * total energy  :  -173.1293739 Eh     change       -0.1725002E-05 Eh
 * total energy  :  -173.1293751 Eh     change       -0.1133265E-05 Eh
 * total energy  :  -173.1293765 Eh     change       -0.1403599E-05 Eh
 * total energy  :  -173.1293778 Eh     change       -0.1338600E-05 Eh
 * total energy  :  -173.1293786 Eh     change       -0.8198454E-06 Eh
 * total energy  :  -173.1293793 Eh     change       -0.6863395E-06 Eh
 * total energy  :  -173.1293800 Eh     change       -0.6553462E-06 Eh
 * total energy  :  -173.1293804 Eh     change       -0.4381076E-06 Eh
 * total energy  :  -173.1293807 Eh     change       -0.2770523E-06 Eh
 * total energy  :  -173.1293807 Eh     change       -0.1766489E-07 Eh
   *** GEOMETRY OPTIMIZATION CONVERGED AFTER 14 ITERATIONS ***

 final structure:
================
116
 xtb: 6.7.1 (edcfbbe)
C            9.38541882514453       -3.57869723647614       -0.91960306002189
C            8.80380824117297       -2.26795929603738       -1.46736752060879
C            9.17024408444877       -2.11550323715983       -2.95040077456201
C            9.43895183214630       -1.10559758092781       -0.69873996414856
C            7.28910752571865       -2.30400207593227       -1.33241573994781
C            6.56554212056712       -3.30698431033047       -1.98584547536479
C            5.19917862267365       -3.38842636516932       -1.86830806074960
C            4.50062088427899       -2.45531905109291       -1.10033012624815
C            5.17962105678530       -1.40607667586508       -0.45830949300426
C            6.57586801276488       -1.38567893613709       -0.58717131380660
B            4.31737525493958       -0.39625994205737        0.33505155547109
C            4.63074610609549        0.95690614670264        1.01580465675702
C            5.82516786347922        1.68358827556704        0.90811973677587
C            6.05537476590780        2.87857960535252        1.56120782959510
C            7.35907578917296        3.65325905777779        1.44161008578000
C            7.98128973505825        3.80305212567080        2.83706263482984
C            8.38094442011842        2.95633531760675        0.53858080894945
C            7.06450957862897        5.03946211275145        0.85156882722934
C            5.02886673960933        3.38246422668137        2.36672661353411
C            3.82912221049275        2.72334741706245        2.48304963284729
C            3.61518194505392        1.52250964475694        1.80460593150674
O            2.37268555743356        0.98918966777798        1.97182485861457
C            1.96325123635142       -0.07790062994285        1.25313273691656
C            0.62067453070967       -0.41849626316425        1.32794269647354
C            0.14073532560120       -1.45799447408486        0.54045825672594
N           -1.23741796997618       -1.71072673177936        0.50991663863350
C           -1.83284610255025       -2.89462374059481        0.87998408666879
C           -1.23473712043090       -4.07760861735777        1.28910842482718
C           -2.05882919188160       -5.13912617651406        1.60631723065108
C           -3.44435762008728       -5.02641504356408        1.51966215468696
C           -4.04384595580243       -3.84341709747299        1.13537288642426
C           -3.23803406006336       -2.75416570626431        0.82245273221566
C           -3.49612456083443       -1.40289356602813        0.39853024902404
C           -4.68568339801087       -0.71172256017221        0.16382109717863
C           -6.00241435990983       -1.33874743044498        0.38526100055057
C           -6.41627407708100       -1.67518705831818        1.67020060046862
C           -7.66451374627629       -2.23124568697740        1.87952253032158
C           -8.51062427483230       -2.46278167168170        0.80815522500158
C           -8.09861437229620       -2.14689308290284       -0.47516513483069
C           -6.85166674897710       -1.58906411344286       -0.68681283698286
C           -4.54781226877412        0.58840512544824       -0.31419533941767
C           -3.28156348177775        1.15900551469919       -0.61777883177546
C           -2.09053208710523        0.47619219644075       -0.36402323527550
C           -0.77843846378835        1.07539548025064       -0.67927727413141
C           -0.32726761691233        2.18977909773889        0.02222230451633
C            0.92375467035118        2.71980360568951       -0.23343608673590
C            1.73761997341020        2.14625073081181       -1.19594609070895
C            1.28411989166083        1.05531830934241       -1.91822441147881
C            0.03203548467690        0.52514113026798       -1.66650103607827
C           -2.22774482261344       -0.79785275271088        0.18229615757328
C           -3.54520129700133        2.44216637971543       -1.21355359090577
C           -2.74551104425452        3.44245155922707       -1.75565157363160
C           -3.34784630637897        4.58330968362321       -2.24724415766648
C           -4.73004707220980        4.74792084819455       -2.19870681846434
C           -5.54863454150020        3.76478287761827       -1.67931431185161
C           -4.94919781320584        2.60608318520051       -1.20661487792364
N           -5.54060332945124        1.49130019958398       -0.65597598069500
C           -6.91625393038745        1.38109047770726       -0.39140099425080
C           -7.36649438097582        1.22016913833542        0.91454673870733
C           -8.71943913440355        1.10150124065427        1.16683086303395
C           -9.63098543598140        1.16321153304395        0.12613756166839
C           -9.18570607406453        1.35066085619858       -1.17119792598306
C           -7.83266634336395        1.45885083898710       -1.43396618747743
C            1.00193282879356       -2.22530466730209       -0.23398464957218
C            2.35306073854151       -1.90446339411594       -0.26039476394236
C            2.85638580242046       -0.80748084055536        0.45442298363574
O            3.15458975123081       -2.66258467211504       -1.04075355579439
H            9.11347237866536       -3.70194442857388        0.12671291643529
H           10.47073549515738       -3.56836344994826       -0.99557713871282
H            9.01439906501957       -4.43812301187334       -1.47098227841059
H           10.25100159368367       -2.06827474415522       -3.06649797982389
H            8.73947140483190       -1.20047086998294       -3.35176912088945
H            8.80217180576338       -2.95139157515365       -3.53858593311047
H           10.51869506300635       -1.13136305022431       -0.83175255853750
H            9.23115521250844       -1.17988577422294        0.36628074803668
H            9.07938787971616       -0.14826298048504       -1.06898191709864
H            7.07630280580059       -4.04478526300419       -2.58563884828051
H            4.64330701924627       -4.17503516322435       -2.35553895954861
H            7.10198408471664       -0.61561942633203       -0.05165380118623
H            6.58362829498046        1.27917277202011        0.26173759097527
H            8.92825580968751        4.33460412327834        2.77013240397750
H            8.16519878242656        2.82343493546969        3.27348450479093
H            7.32844565477061        4.35643776602797        3.50614010474951
H            8.00042483311577        2.84910851656234       -0.47467268027494
H            9.28983457655493        3.55305911648652        0.49320745844560
H            8.64385384852368        1.97592522546337        0.92920567541993
H            6.60608169765053        4.94033929067565       -0.13026154970202
H            7.98717760613400        5.60635051059523        0.74609429394552
H            6.38881954212075        5.60516326165430        1.48703089401557
H            5.16173585768324        4.31074183278862        2.90131529350903
H            3.02907072236256        3.12255430642110        3.08780136889906
H           -0.04718648340454        0.15105826840981        1.95319337031167
H           -0.16070112490941       -4.16218137087837        1.35682021430115
H           -1.62140717160878       -6.07441284596322        1.92340163667286
H           -4.05958135036881       -5.88024272024402        1.76210336494445
H           -5.11800906643741       -3.77005008860941        1.07446974619576
H           -5.75344636033137       -1.49258757387858        2.50414674780046
H           -7.97876166258291       -2.48444831286314        2.88182508691464
H           -9.48744801410850       -2.89319459278959        0.97267759317329
H           -8.75237314198069       -2.33413565517895       -1.31443538764297
H           -6.52720780270149       -1.34638959475297       -1.68857542720701
H           -0.96054536365849        2.62971413218611        0.77938268145101
H            1.27060194920648        3.57651650540439        0.32581599941982
H            2.72312657783753        2.54822215890446       -1.38147392588559
H            1.91192015128068        0.61226981878929       -2.67776239438747
H           -0.32222672155307       -0.32460579333600       -2.23198259146785
H           -1.67394076620328        3.32908050280364       -1.79693120348035
H           -2.73763872516118        5.36593798937342       -2.67324760335298
H           -5.16970625988732        5.65900258375824       -2.57730549053069
H           -6.62006963592988        3.89283288466369       -1.63911968302779
H           -6.65055975994488        1.18610756567108        1.72187084322700
H           -9.06428623932848        0.96646193436586        2.18104266387955
H          -10.68757859539833        1.06915783198486        0.32672942302983
H           -9.89463154451748        1.40436077901165       -1.98428337430172
H           -7.47666697514058        1.58810093596327       -2.44554898000485
H            0.62759335292324       -3.03720860855175       -0.83679146521003

          :  Hamiltonian                  GFN2-xTB          :
         :: gradient norm              0.000153389353 Eh/a0 ::
         :: HOMO-LUMO gap              1.980163160751 eV    ::
         :: SCC energy              -176.201936509834 Eh    ::
         :: -> dispersion             -0.183038144918 Eh    ::
         :: repulsion energy           3.072555817497 Eh    ::

    * Orbital Energies and Occupations

         #    Occupation            Energy/Eh            Energy/eV
      -------------------------------------------------------------
         1        2.0000           -0.7271010             -19.7854
       ...           ...                  ...                  ...
       149        2.0000           -0.3989055             -10.8548
       150        2.0000           -0.3979998             -10.8301
       151        2.0000           -0.3970143             -10.8033
       152        2.0000           -0.3939109             -10.7189
       153        2.0000           -0.3902622             -10.6196
       154        2.0000           -0.3865250             -10.5179
       155        2.0000           -0.3863853             -10.5141
       156        2.0000           -0.3856489             -10.4940
       157        2.0000           -0.3815157             -10.3816
       158        2.0000           -0.3708486             -10.0913
       159        2.0000           -0.3647381              -9.9250
       160        2.0000           -0.3614616              -9.8359
       161        2.0000           -0.3419981              -9.3062 (HOMO)
       162                         -0.2692283              -7.3261 (LUMO)
       163                         -0.2517361              -6.8501
       164                         -0.2322263              -6.3192
       165                         -0.2316714              -6.3041
       166                         -0.2291044              -6.2342
       167                         -0.2287988              -6.2259
       168                         -0.2239373              -6.0936
       169                         -0.2204507              -5.9988
       170                         -0.2190157              -5.9597
       171                         -0.2175634              -5.9202
       172                         -0.2169735              -5.9041
       ...                                ...                  ...
       317                          0.7494243              20.3929
      -------------------------------------------------------------
                  HL-Gap            0.0727697 Eh            1.9802 eV

     #   Z          covCN         q      C6AA      α(0)
     1   6 C        3.762    -0.106    22.576     6.773
     2   6 C        3.903     0.025    20.090     6.371
     3   6 C        3.762    -0.106    22.577     6.773
     4   6 C        3.761    -0.108    22.607     6.778
     5   6 C        2.969     0.000    28.023     8.683
     6   6 C        2.928    -0.032    28.793     8.800
     7   6 C        2.913    -0.055    29.371     8.887
     8   6 C        2.877     0.135    25.056     8.206
     9   6 C        2.882    -0.092    30.319     9.027
    10   6 C        2.930    -0.044    29.103     8.847
    11   5 B        2.725     0.211    18.227     7.153
    12   6 C        2.883    -0.093    30.322     9.027
    13   6 C        2.930    -0.044    29.103     8.847
    14   6 C        2.969    -0.000    28.030     8.684
    15   6 C        3.903     0.026    20.089     6.371
    16   6 C        3.762    -0.106    22.577     6.773
    17   6 C        3.761    -0.108    22.604     6.778
    18   6 C        3.762    -0.106    22.570     6.772
    19   6 C        2.928    -0.032    28.794     8.800
    20   6 C        2.913    -0.055    29.357     8.885
    21   6 C        2.879     0.136    25.026     8.201
    22   8 O        1.712    -0.222    17.682     5.677
    23   6 C        2.876     0.141    24.916     8.183
    24   6 C        2.918    -0.080    29.993     8.981
    25   6 C        2.917     0.069    26.449     8.433
    26   7 N        2.804    -0.043    22.061     6.976
    27   6 C        3.073     0.048    26.852     8.496
    28   6 C        2.910    -0.052    29.300     8.876
    29   6 C        2.924    -0.033    28.831     8.805
    30   6 C        2.920    -0.042    29.052     8.839
    31   6 C        2.913    -0.035    28.874     8.811
    32   6 C        3.061    -0.017    28.364     8.734
    33   6 C        3.071    -0.024    28.527     8.757
    34   6 C        2.964    -0.018    28.465     8.751
    35   6 C        2.976     0.016    27.639     8.624
    36   6 C        2.925    -0.031    28.774     8.797
    37   6 C        2.919    -0.031    28.762     8.795
    38   6 C        2.920    -0.032    28.806     8.801
    39   6 C        2.919    -0.030    28.743     8.792
    40   6 C        2.925    -0.033    28.817     8.803
    41   6 C        3.068     0.034    27.175     8.548
    42   6 C        3.071    -0.024    28.538     8.759
    43   6 C        2.963    -0.017    28.440     8.747
    44   6 C        2.975     0.016    27.650     8.625
    45   6 C        2.925    -0.029    28.731     8.790
    46   6 C        2.919    -0.027    28.686     8.783
    47   6 C        2.920    -0.033    28.813     8.802
    48   6 C        2.919    -0.031    28.774     8.796
    49   6 C        2.924    -0.035    28.867     8.811
    50   6 C        3.066     0.033    27.191     8.551
    51   6 C        3.061    -0.017    28.370     8.735
    52   6 C        2.913    -0.035    28.876     8.812
    53   6 C        2.920    -0.043    29.056     8.840
    54   6 C        2.924    -0.034    28.841     8.807
    55   6 C        2.910    -0.053    29.314     8.878
    56   6 C        3.076     0.048    26.854     8.496
    57   7 N        2.801    -0.049    22.178     6.994
    58   6 C        2.915     0.067    26.504     8.442
    59   6 C        2.923    -0.039    28.960     8.825
    60   6 C        2.920    -0.027    28.676     8.781
    61   6 C        2.920    -0.032    28.809     8.802
    62   6 C        2.920    -0.029    28.714     8.787
    63   6 C        2.923    -0.041    29.011     8.833
    64   6 C        2.916    -0.082    30.043     8.988
    65   6 C        2.875     0.140    24.941     8.187
    66   6 C        2.889    -0.125    31.194     9.157
    67   8 O        1.711    -0.222    17.678     5.677
    68   1 H        0.925     0.034     2.532     2.488
    69   1 H        0.925     0.037     2.484     2.465
    70   1 H        0.925     0.036     2.497     2.471
    71   1 H        0.925     0.037     2.483     2.464
    72   1 H        0.925     0.034     2.531     2.488
    73   1 H        0.925     0.037     2.496     2.470
    74   1 H        0.925     0.037     2.493     2.469
    75   1 H        0.925     0.035     2.511     2.478
    76   1 H        0.925     0.036     2.498     2.472
    77   1 H        0.926     0.035     2.512     2.478
    78   1 H        0.926     0.043     2.411     2.428
    79   1 H        0.926     0.046     2.374     2.409
    80   1 H        0.926     0.046     2.376     2.410
    81   1 H        0.925     0.037     2.484     2.465
    82   1 H        0.925     0.034     2.532     2.488
    83   1 H        0.925     0.036     2.496     2.471
    84   1 H        0.925     0.035     2.513     2.479
    85   1 H        0.925     0.037     2.494     2.470
    86   1 H        0.925     0.036     2.499     2.472
    87   1 H        0.925     0.034     2.535     2.490
    88   1 H        0.925     0.037     2.485     2.465
    89   1 H        0.925     0.036     2.498     2.472
    90   1 H        0.926     0.035     2.514     2.480
    91   1 H        0.926     0.042     2.420     2.432
    92   1 H        0.926     0.052     2.294     2.369
    93   1 H        0.926     0.027     2.623     2.533
    94   1 H        0.926     0.028     2.617     2.530
    95   1 H        0.926     0.026     2.649     2.545
    96   1 H        0.926     0.031     2.574     2.509
    97   1 H        0.926     0.031     2.572     2.508
    98   1 H        0.926     0.029     2.602     2.522
    99   1 H        0.926     0.028     2.617     2.530
   100   1 H        0.926     0.028     2.622     2.532
   101   1 H        0.926     0.027     2.632     2.537
   102   1 H        0.926     0.032     2.552     2.498
   103   1 H        0.926     0.030     2.583     2.513
   104   1 H        0.926     0.025     2.662     2.551
   105   1 H        0.926     0.026     2.644     2.543
   106   1 H        0.926     0.028     2.617     2.530
   107   1 H        0.926     0.031     2.571     2.508
   108   1 H        0.926     0.025     2.654     2.548
   109   1 H        0.926     0.027     2.632     2.537
   110   1 H        0.926     0.025     2.663     2.552
   111   1 H        0.926     0.038     2.475     2.460
   112   1 H        0.926     0.035     2.512     2.479
   113   1 H        0.926     0.035     2.519     2.482
   114   1 H        0.926     0.036     2.504     2.475
   115   1 H        0.926     0.040     2.445     2.445
   116   1 H        0.926     0.055     2.262     2.352

molecular dipole:
                 x           y           z       tot (Debye)
 q only:        0.826       0.335       0.059
   full:        0.699       0.290       0.066       1.931

 projected vibrational frequencies (cm⁻¹)
eigval :       -0.00    -0.00    -0.00    -0.00     0.00     0.00
eigval :        8.93    11.68    12.06    22.06    26.14    28.54
eigval :       30.50    37.25    43.87    46.58    53.52    54.43
eigval :       60.45    62.72    66.24    71.57    78.23    80.05
eigval :       91.59    96.85   103.58   109.16   113.37   121.04
eigval :      126.88   134.95   140.86   152.52   159.63   172.47
eigval :      177.47   187.61   196.83   198.72   209.23   210.31
eigval :      220.45   221.47   226.11   230.10   231.23   238.85
eigval :      246.15   250.07   263.74   265.70   272.24   280.54
eigval :      286.75   293.22   299.91   321.16   321.98   328.78
eigval :      333.16   341.74   349.97   361.66   365.34   366.90
eigval :      373.20   377.41   378.98   383.30   386.35   389.09
eigval :      394.67   397.73   412.95   415.55   425.03   435.22
eigval :      437.06   444.67   445.40   464.66   468.89   472.13
eigval :      477.54   490.20   504.23   516.34   518.03   520.61
eigval :      522.95   527.49   538.84   542.15   567.80   570.59
eigval :      581.73   582.84   587.60   588.56   591.02   592.93
eigval :      598.07   604.88   615.37   624.84   628.77   630.43
eigval :      644.77   648.82   652.20   660.11   665.40   667.31
eigval :      674.75   680.20   688.41   694.90   701.57   703.83
eigval :      709.84   715.67   716.00   720.14   731.77   749.71
eigval :      755.79   772.73   775.16   775.34   787.47   788.30
eigval :      824.78   829.05   829.81   834.16   840.99   862.25
eigval :      865.55   868.95   874.01   874.13   876.36   876.48
eigval :      878.79   880.33   881.01   884.69   895.21   899.52
eigval :      901.87   903.29   904.79   905.79   909.95   921.53
eigval :      921.88   922.00   922.18   929.11   929.81   930.49
eigval :      930.86   931.69   932.44   933.40   942.27   960.12
eigval :      960.57   961.02   963.21   963.37   963.46   969.79
eigval :      971.86   979.24   998.39  1024.70  1034.71  1034.98
eigval :     1035.75  1035.83  1036.86  1076.45  1077.64  1079.26
eigval :     1080.34  1083.16  1084.12  1085.81  1104.84  1110.08
eigval :     1117.51  1119.00  1121.27  1122.34  1132.86  1139.38
eigval :     1143.09  1164.41  1169.27  1178.81  1179.27  1180.78
eigval :     1181.17  1182.62  1182.85  1187.84  1191.27  1196.80
eigval :     1198.58  1208.38  1220.13  1222.71  1228.36  1228.62
eigval :     1230.61  1233.13  1235.68  1241.91  1245.48  1250.83
eigval :     1263.10  1273.46  1274.34  1278.93  1281.17  1281.75
eigval :     1283.87  1294.44  1296.90  1301.95  1309.38  1314.13
eigval :     1316.18  1319.39  1321.81  1323.74  1333.89  1338.99
eigval :     1348.54  1361.38  1362.85  1369.52  1385.30  1392.20
eigval :     1400.15  1402.31  1406.21  1406.28  1406.39  1411.47
eigval :     1413.58  1428.75  1429.28  1429.99  1430.76  1432.43
eigval :     1434.51  1437.13  1449.74  1456.39  1469.00  1474.36
eigval :     1477.67  1480.12  1482.60  1485.01  1492.08  1492.20
eigval :     1494.51  1494.62  1499.85  1502.93  1505.03  1505.42
eigval :     1514.79  1515.24  1518.49  1522.63  1530.45  1537.45
eigval :     1546.48  1552.06  1563.84  1569.11  1578.71  1581.37
eigval :     1582.20  1583.13  1585.35  1587.24  1597.16  1598.09
eigval :     1599.77  1601.50  1601.78  1604.04  1605.71  3021.60
eigval :     3022.09  3023.96  3024.17  3026.91  3027.14  3030.43
eigval :     3030.87  3031.26  3031.46  3035.26  3035.72  3038.09
eigval :     3038.46  3047.38  3047.72  3051.04  3051.47  3069.99
eigval :     3070.06  3072.06  3072.82  3074.75  3075.78  3077.40
eigval :     3078.92  3079.22  3081.32  3082.28  3083.26  3083.72
eigval :     3083.99  3084.10  3084.95  3088.60  3091.14  3091.48
eigval :     3091.67  3093.15  3093.68  3096.16  3096.80  3099.30
eigval :     3109.14  3109.57  3109.66  3115.72  3137.98  3145.11

   temp. (K)  partition function   enthalpy   heat capacity  entropy
                                   cal/mol     cal/K/mol   cal/K/mol   J/K/mol
 298.15  VIB  0.284E+26            33631.064    211.684    208.578
         ROT  0.195E+09              888.752      2.981     40.916
         INT  0.555E+34            34519.816    214.665    249.494
         TR   0.246E+29             1481.254      4.968     46.128
         TOT                       36001.0700   219.6335   295.6217  1236.8813

       T/K    H(0)-H(T)+PV         H(T)/Eh          T*S/Eh         G(T)/Eh
   ------------------------------------------------------------------------
    298.15    0.573714E-01    0.975142E+00    0.140459E+00    0.834683E+00
   ------------------------------------------------------------------------

         :::::::::::::::::::::::::::::::::::::::::::::::::::::
         ::                  THERMODYNAMIC                  ::
         :::::::::::::::::::::::::::::::::::::::::::::::::::::
         :: total free energy        -172.294698064186 Eh   ::
         ::.................................................::
         :: total energy             -173.129380692332 Eh   ::
         :: zero point energy           0.917770693887 Eh   ::
         :: G(RRHO) w/o ZPVE           -0.083088065741 Eh   ::
         :: G(RRHO) contrib.            0.834682628146 Eh   ::
         :::::::::::::::::::::::::::::::::::::::::::::::::::::

           -------------------------------------------------
          | TOTAL ENERGY             -173.129380692332 Eh   |
          | TOTAL ENTHALPY           -172.154238641486 Eh   |
          | TOTAL FREE ENERGY        -172.294698064186 Eh   |
          | GRADIENT NORM               0.000153344112 Eh/α |
          | HOMO-LUMO GAP               1.980165576676 eV   |
           -------------------------------------------------

 * finished run on 2025/07/18 at 01:28:15.487
