   * xtb version 6.7.1 (edcfbbe) compiled by 'albert@albert-system' on 2024-07-22

   ID    Z sym.   atoms
    1    6 C      1-10, 12-21, 23-25, 27-56, 58-66
    2    5 B      11
    3    8 O      22, 67
    4    7 N      26, 57
    5    1 H      68-116

          program call               : xtb data2507/gas/TDBA-TPDICz/TDBA-TPDICz.xyz --gfn 2 --ohess vtight --parallel 40 --molden --ceasefiles --namespace data2507/gas/TDBA-TPDICz/TDBA-TPDICz_gas_S0_preOpt
          :  Hamiltonian                  GFN2-xTB          :
 * total energy  :  -173.0107075 Eh     change       -0.7458453E-08 Eh
 * total energy  :  -173.0712929 Eh     change       -0.6058544E-01 Eh
 * total energy  :  -173.0939063 Eh     change       -0.2261336E-01 Eh
 * total energy  :  -173.1020214 Eh     change       -0.8115145E-02 Eh
 * total energy  :  -173.1066842 Eh     change       -0.4662757E-02 Eh
 * total energy  :  -173.1100707 Eh     change       -0.3386518E-02 Eh
 * total energy  :  -173.1127951 Eh     change       -0.2724353E-02 Eh
 * total energy  :  -173.1150534 Eh     change       -0.2258317E-02 Eh
 * total energy  :  -173.1167973 Eh     change       -0.1743939E-02 Eh
 * total energy  :  -173.1180127 Eh     change       -0.1215397E-02 Eh
 * total energy  :  -173.1273935 Eh     change       -0.6752192E-06 Eh
 * total energy  :  -173.1273941 Eh     change       -0.5758043E-06 Eh
 * total energy  :  -173.1273947 Eh     change       -0.5801791E-06 Eh
 * total energy  :  -173.1273953 Eh     change       -0.6148470E-06 Eh
 * total energy  :  -173.1273960 Eh     change       -0.6834399E-06 Eh
 * total energy  :  -173.1273967 Eh     change       -0.7604581E-06 Eh
 * total energy  :  -173.1273977 Eh     change       -0.9069115E-06 Eh
 * total energy  :  -173.1273987 Eh     change       -0.1073371E-05 Eh
 * total energy  :  -173.1273987 Eh     change       -0.6213668E-08 Eh
   *** GEOMETRY OPTIMIZATION CONVERGED AFTER 185 ITERATIONS ***

 final structure:
================
116
 xtb: 6.7.1 (edcfbbe)
C            8.47018514207778       -0.40685354240944       -2.51523783348662
C            7.43272171907501        0.20761129556939       -3.46569367863688
C            7.88823214466917       -0.05843607755879       -4.90285859080562
C            7.37180302956523        1.72746658935452       -3.25571219261856
C            6.06396571836584       -0.38591634699127       -3.16632613827894
C            5.30450056935336       -1.06377213962963       -4.12049730456133
C            4.05067430740467       -1.54374935119659       -3.81436814792954
C            3.51998370722088       -1.37768679782626       -2.53615790456623
C            4.27272383466791       -0.75277925106487       -1.52543077141131
C            5.52500884728257       -0.25303086157835       -1.89798354824077
B            3.62867586152775       -0.67015278843122       -0.12216886753542
C            4.16454529661568       -0.22964090903661        1.25938305992147
C            5.49719750009544        0.04055153491987        1.58777822549072
C            5.91475869307098        0.46282488559396        2.83844348316793
C            7.39405079164376        0.71622648748332        3.08938390580442
C            8.16428687813672       -0.59521260993422        2.87847157928825
C            7.90120495078894        1.78014886156395        2.10539025596197
C            7.67379311491224        1.21184296577890        4.51061013284987
C            4.93813790274798        0.62643820325378        3.82141242248903
C            3.61705482010628        0.34043642339855        3.55874823822243
C            3.22333197432749       -0.10227464430453        2.29689214534944
O            1.89715837145186       -0.39296663809062        2.18165994378637
C            1.37901064740878       -0.90468139133876        1.04550539616805
C            0.02597286288774       -1.21376643476146        1.04667847618561
C           -0.55974271574290       -1.69342447700763       -0.11750530577840
N           -1.94895020686743       -1.89573266677432       -0.15400264671996
C           -2.56141791547728       -3.12116890390784       -0.26437129842268
C           -1.97651170297360       -4.37005958420154       -0.41430163792782
C           -2.81121813123149       -5.46888597645824       -0.45784533531031
C           -4.19210111891764       -5.32881756284892       -0.33920962893719
C           -4.77648287325093       -4.08756608379413       -0.18272215599208
C           -3.96144396390342       -2.96104902469002       -0.15476172346635
C           -4.19872506819759       -1.54935795749004       -0.00240281273692
C           -5.37491148779088       -0.81000564218967        0.13429774313028
C           -6.70038097714992       -1.45743506512459        0.15413106765361
C           -7.47110364028479       -1.44009939636862        1.31127384995288
C           -8.72656717050720       -2.01838497011028        1.32393785977989
C           -9.22555276432508       -2.62232526168718        0.18260071066429
C           -8.45823579843693       -2.65698309358880       -0.96951192534433
C           -7.20172879628282       -2.08051687452457       -0.98414861663273
C           -5.21587491239187        0.56713571223182        0.25936722701486
C           -3.93831470953923        1.19136588513987        0.27355683908681
C           -2.76143077818992        0.45350426277952        0.13764525501362
C           -1.43834321974812        1.10986583928481        0.12912869840952
C           -0.93037133131109        1.68801464336957        1.28847184784172
C            0.32849615700894        2.25986602841834        1.29254396415682
C            1.09242193461353        2.26610411898476        0.13755562658101
C            0.58267556428994        1.71726769683486       -1.02700371053586
C           -0.67685426464015        1.14656844310171       -1.03396556185099
C           -2.92177176724196       -0.92326003887167        0.00556112287073
C           -4.17441075336345        2.60342728502836        0.41704559745603
C           -3.35460895142713        3.72617063345198        0.45210227729539
C           -3.93630615770277        4.97122502970949        0.58514408779292
C           -5.31884880661929        5.11726827913494        0.67121585399024
C           -6.15700612583633        4.02109426734118        0.62428342843977
C           -5.57553979103369        2.76720691349499        0.50281872199380
N           -6.19053959614065        1.53989872808797        0.40196217168366
C           -7.58437583442609        1.37607469224031        0.30369673727500
C           -8.39903613486864        1.72744693782874        1.37344890267746
C           -9.76947771876784        1.57161427357376        1.27571503773147
C          -10.33186523118234        1.06708411384067        0.11577379714308
C           -9.52182327324681        0.73527293691626       -0.95735202919683
C           -8.15263587818959        0.89790765507838       -0.87171145906754
C            0.20024700082473       -1.94814778456582       -1.25155752229425
C            1.55338088055649       -1.63518986172915       -1.23969722594794
C            2.16554161780341       -1.09020655129007       -0.10134318911322
O            2.24907319632930       -1.84600920895049       -2.37921185267113
H            8.49144657259409       -1.48865795371185       -2.62944579855485
H            8.24359277997318       -0.17870531675326       -1.47754725132261
H            9.46077424418792       -0.01632393616239       -2.73867149328027
H            8.87091745227377        0.38213870961429       -5.05916721637615
H            7.20357068891609        0.38849806156136       -5.61989719901455
H            7.96411848669861       -1.12567435800542       -5.09801921041940
H            8.33855267847894        2.17575428240288       -3.47522345632464
H            7.10513413683471        1.97657961780579       -2.23219018434263
H            6.62869903005789        2.16841423550637       -3.91689705484247
H            5.67683728001217       -1.21097196657737       -5.12085332730008
H            3.45148095004354       -2.04350038068670       -4.56031995522820
H            6.08286340447007        0.28323021567005       -1.14804484577843
H            6.23444361607543       -0.11543053256699        0.81745146486600
H            9.22537768383404       -0.44133910532328        3.06336074954559
H            8.04515595149581       -0.96686580271228        1.86434773358861
H            7.80134675179843       -1.35813675310394        3.56402241147642
H            7.33531328047100        2.70200462830565        2.22263616402594
H            8.95149492480058        1.99344055952666        2.29273571009573
H            7.80283856232262        1.44893058936104        1.07544530940786
H            7.15952556869012        2.15001217530298        4.70613851864732
H            8.74169992615394        1.38275831588542        4.63135479012135
H            7.36747058187583        0.47529454634780        5.24970867350468
H            5.20038861463645        0.96504509761949        4.81018864814529
H            2.86486812532392        0.44103749027039        4.32638975987312
H           -0.56519482058616       -1.05183850904897        1.93313004687051
H           -0.90422751558885       -4.47392933647375       -0.48625710855049
H           -2.38634038253420       -6.45476776849174       -0.57687434057141
H           -4.81561167984942       -6.21027267233042       -0.36456344299771
H           -5.84571154942957       -3.99752163568053       -0.07520420116950
H           -7.07890183273319       -0.97209540370543        2.20282422432225
H           -9.31870664573316       -1.99637698419439        2.22712719403950
H          -10.20893900585228       -3.06883785348291        0.19207560657443
H           -8.84089443445322       -3.13406374634907       -1.86029310984717
H           -6.60079570989234       -2.10414727364408       -1.88220846791724
H           -1.52584515143007        1.67507692704984        2.19018994442506
H            0.71919364434622        2.69416821495728        2.20122413124675
H            2.08305069137973        2.69719711779071        0.14451322757350
H            1.17213602131617        1.73021967243737       -1.93252395417062
H           -1.07559963362854        0.72046456255906       -1.94323762911298
H           -2.28389315910556        3.62925541164016        0.36831507021677
H           -3.30997668127679        5.85051388512754        0.61590031485104
H           -5.74305386407597        6.10592095358690        0.76786187254392
H           -7.23006972855280        4.13356758845783        0.67020380870365
H           -7.95054682787074        2.10928967308558        2.27896412873135
H          -10.39972063101187        1.83900673881807        2.11108720523318
H          -11.40138645051459        0.93768269838381        0.04563742317622
H           -9.95906565666134        0.35360371227006       -1.86779292662122
H           -7.51519876649500        0.65505241492925       -1.70843128892914
H           -0.25891199176955       -2.33408865934515       -2.14774474366789

          :  Hamiltonian                  GFN2-xTB          :
         :: gradient norm              0.000081135850 Eh/a0 ::
         :: HOMO-LUMO gap              1.926753416497 eV    ::
         :: SCC energy              -176.200140718373 Eh    ::
         :: -> dispersion             -0.182253129274 Eh    ::
         :: repulsion energy           3.072741984566 Eh    ::

    * Orbital Energies and Occupations

         #    Occupation            Energy/Eh            Energy/eV
      -------------------------------------------------------------
         1        2.0000           -0.7277342             -19.8027
       ...           ...                  ...                  ...
       149        2.0000           -0.3985503             -10.8451
       150        2.0000           -0.3978299             -10.8255
       151        2.0000           -0.3963756             -10.7859
       152        2.0000           -0.3936421             -10.7115
       153        2.0000           -0.3913361             -10.6488
       154        2.0000           -0.3876244             -10.5478
       155        2.0000           -0.3873194             -10.5395
       156        2.0000           -0.3848257             -10.4716
       157        2.0000           -0.3812817             -10.3752
       158        2.0000           -0.3707426             -10.0884
       159        2.0000           -0.3657142              -9.9516
       160        2.0000           -0.3610890              -9.8257
       161        2.0000           -0.3413836              -9.2895 (HOMO)
       162                         -0.2705767              -7.3628 (LUMO)
       163                         -0.2506848              -6.8215
       164                         -0.2326136              -6.3297
       165                         -0.2318287              -6.3084
       166                         -0.2294596              -6.2439
       167                         -0.2290744              -6.2334
       168                         -0.2227890              -6.0624
       169                         -0.2202367              -5.9929
       170                         -0.2198998              -5.9838
       171                         -0.2176033              -5.9213
       172                         -0.2172009              -5.9103
       ...                                ...                  ...
       317                          0.7504098              20.4197
      -------------------------------------------------------------
                  HL-Gap            0.0708069 Eh            1.9268 eV

     #   Z          covCN         q      C6AA      α(0)
     1   6 C        3.761    -0.105    22.544     6.768
     2   6 C        3.903     0.026    20.088     6.371
     3   6 C        3.761    -0.108    22.616     6.779
     4   6 C        3.762    -0.106    22.571     6.772
     5   6 C        2.969     0.000    28.024     8.683
     6   6 C        2.926    -0.036    28.895     8.815
     7   6 C        2.914    -0.056    29.381     8.888
     8   6 C        2.878     0.135    25.053     8.205
     9   6 C        2.882    -0.092    30.309     9.026
    10   6 C        2.933    -0.039    28.971     8.827
    11   5 B        2.725     0.212    18.208     7.150
    12   6 C        2.882    -0.092    30.315     9.026
    13   6 C        2.933    -0.039    28.972     8.827
    14   6 C        2.969    -0.000    28.026     8.684
    15   6 C        3.903     0.026    20.088     6.371
    16   6 C        3.762    -0.106    22.575     6.773
    17   6 C        3.761    -0.105    22.543     6.768
    18   6 C        3.761    -0.108    22.616     6.779
    19   6 C        2.926    -0.036    28.894     8.815
    20   6 C        2.914    -0.055    29.373     8.887
    21   6 C        2.878     0.136    25.039     8.203
    22   8 O        1.712    -0.220    17.655     5.673
    23   6 C        2.875     0.142    24.906     8.181
    24   6 C        2.917    -0.079    29.965     8.977
    25   6 C        2.917     0.070    26.438     8.432
    26   7 N        2.805    -0.045    22.103     6.983
    27   6 C        3.075     0.048    26.843     8.495
    28   6 C        2.910    -0.052    29.301     8.876
    29   6 C        2.924    -0.033    28.829     8.805
    30   6 C        2.920    -0.043    29.060     8.840
    31   6 C        2.913    -0.035    28.876     8.812
    32   6 C        3.060    -0.017    28.374     8.735
    33   6 C        3.072    -0.024    28.530     8.758
    34   6 C        2.964    -0.019    28.471     8.752
    35   6 C        2.976     0.016    27.639     8.624
    36   6 C        2.925    -0.033    28.823     8.804
    37   6 C        2.919    -0.030    28.745     8.792
    38   6 C        2.920    -0.032    28.810     8.802
    39   6 C        2.919    -0.031    28.764     8.795
    40   6 C        2.925    -0.031    28.776     8.797
    41   6 C        3.067     0.034    27.173     8.548
    42   6 C        3.073    -0.024    28.536     8.759
    43   6 C        2.963    -0.018    28.452     8.749
    44   6 C        2.975     0.016    27.650     8.625
    45   6 C        2.925    -0.030    28.743     8.792
    46   6 C        2.919    -0.028    28.691     8.784
    47   6 C        2.920    -0.033    28.817     8.803
    48   6 C        2.919    -0.031    28.774     8.796
    49   6 C        2.925    -0.035    28.870     8.811
    50   6 C        3.067     0.034    27.181     8.549
    51   6 C        3.060    -0.017    28.377     8.736
    52   6 C        2.913    -0.035    28.878     8.812
    53   6 C        2.920    -0.043    29.060     8.840
    54   6 C        2.924    -0.034    28.840     8.807
    55   6 C        2.910    -0.053    29.315     8.878
    56   6 C        3.077     0.048    26.848     8.495
    57   7 N        2.802    -0.050    22.209     6.999
    58   6 C        2.915     0.067    26.497     8.441
    59   6 C        2.923    -0.040    28.996     8.831
    60   6 C        2.920    -0.029    28.713     8.787
    61   6 C        2.920    -0.032    28.798     8.800
    62   6 C        2.920    -0.027    28.672     8.781
    63   6 C        2.923    -0.038    28.943     8.822
    64   6 C        2.916    -0.080    30.006     8.983
    65   6 C        2.875     0.141    24.930     8.185
    66   6 C        2.889    -0.125    31.182     9.155
    67   8 O        1.711    -0.222    17.683     5.678
    68   1 H        0.925     0.034     2.533     2.489
    69   1 H        0.925     0.034     2.531     2.488
    70   1 H        0.925     0.038     2.482     2.464
    71   1 H        0.925     0.037     2.495     2.470
    72   1 H        0.925     0.036     2.501     2.473
    73   1 H        0.925     0.036     2.502     2.474
    74   1 H        0.925     0.038     2.478     2.462
    75   1 H        0.925     0.036     2.497     2.471
    76   1 H        0.925     0.034     2.531     2.488
    77   1 H        0.926     0.042     2.419     2.432
    78   1 H        0.926     0.043     2.408     2.427
    79   1 H        0.926     0.037     2.484     2.465
    80   1 H        0.926     0.037     2.483     2.464
    81   1 H        0.925     0.038     2.477     2.461
    82   1 H        0.925     0.037     2.496     2.471
    83   1 H        0.925     0.034     2.531     2.488
    84   1 H        0.925     0.034     2.533     2.489
    85   1 H        0.925     0.038     2.482     2.464
    86   1 H        0.925     0.034     2.532     2.488
    87   1 H        0.925     0.036     2.502     2.474
    88   1 H        0.925     0.037     2.494     2.470
    89   1 H        0.925     0.036     2.501     2.473
    90   1 H        0.926     0.042     2.418     2.432
    91   1 H        0.926     0.043     2.411     2.428
    92   1 H        0.926     0.053     2.284     2.364
    93   1 H        0.926     0.026     2.648     2.545
    94   1 H        0.926     0.028     2.622     2.532
    95   1 H        0.926     0.025     2.652     2.547
    96   1 H        0.926     0.031     2.574     2.509
    97   1 H        0.926     0.027     2.635     2.539
    98   1 H        0.926     0.027     2.624     2.533
    99   1 H        0.926     0.028     2.620     2.531
   100   1 H        0.926     0.029     2.605     2.524
   101   1 H        0.926     0.031     2.571     2.507
   102   1 H        0.926     0.032     2.553     2.499
   103   1 H        0.926     0.030     2.580     2.512
   104   1 H        0.926     0.025     2.661     2.551
   105   1 H        0.926     0.025     2.651     2.546
   106   1 H        0.926     0.027     2.623     2.533
   107   1 H        0.926     0.031     2.575     2.509
   108   1 H        0.926     0.025     2.657     2.549
   109   1 H        0.926     0.027     2.634     2.538
   110   1 H        0.926     0.024     2.676     2.558
   111   1 H        0.926     0.040     2.444     2.445
   112   1 H        0.926     0.036     2.500     2.472
   113   1 H        0.926     0.035     2.514     2.479
   114   1 H        0.926     0.036     2.508     2.477
   115   1 H        0.926     0.038     2.469     2.457
   116   1 H        0.926     0.055     2.262     2.352

molecular dipole:
                 x           y           z       tot (Debye)
 q only:        0.856       0.297       0.001
   full:        0.738       0.256      -0.007       1.986

 projected vibrational frequencies (cm⁻¹)
eigval :       -0.00    -0.00    -0.00     0.00     0.00     0.00
eigval :        7.86    10.76    11.17    21.13    24.42    26.20
eigval :       28.69    37.36    43.65    44.93    52.94    54.95
eigval :       58.20    60.89    66.12    70.79    75.54    78.14
eigval :       90.19    91.70   103.13   108.45   112.50   117.49
eigval :      124.26   131.23   134.05   149.12   155.56   169.65
eigval :      172.96   190.38   195.44   198.96   208.31   212.37
eigval :      216.42   223.27   224.54   228.59   239.36   244.95
eigval :      248.27   250.03   257.28   271.00   271.10   279.58
eigval :      288.50   292.58   299.66   314.89   319.32   319.91
eigval :      323.70   347.66   350.62   360.87   361.29   371.20
eigval :      373.38   376.40   377.86   382.87   385.76   387.91
eigval :      394.00   402.56   410.46   416.55   424.73   435.44
eigval :      437.78   448.15   450.77   461.03   469.93   472.96
eigval :      476.69   487.97   504.53   516.91   517.07   518.49
eigval :      524.89   526.07   535.36   542.06   567.66   569.85
eigval :      581.49   583.07   587.67   588.76   591.61   591.93
eigval :      596.90   605.21   615.03   626.11   628.14   629.83
eigval :      644.88   647.95   650.05   657.32   665.12   668.85
eigval :      675.32   679.83   688.43   695.06   701.38   703.32
eigval :      709.19   714.70   717.74   720.14   730.95   749.53
eigval :      755.48   772.99   774.62   775.00   787.54   788.62
eigval :      824.29   827.15   827.88   832.05   839.28   862.67
eigval :      864.36   868.68   870.82   874.91   878.06   879.80
eigval :      880.81   883.79   884.27   884.75   896.83   899.61
eigval :      901.30   902.07   904.89   905.19   909.86   916.46
eigval :      916.68   921.34   921.45   928.93   929.61   930.58
eigval :      930.84   931.00   932.26   933.01   941.27   960.07
eigval :      960.14   961.79   962.09   963.12   963.27   966.52
eigval :      971.71   979.31   998.52  1024.69  1034.77  1035.08
eigval :     1035.37  1035.87  1037.36  1075.52  1077.19  1079.15
eigval :     1080.01  1083.09  1084.14  1086.35  1104.47  1110.15
eigval :     1117.08  1118.41  1120.87  1122.48  1134.26  1141.62
eigval :     1145.49  1164.15  1168.63  1179.66  1180.82  1181.06
eigval :     1182.64  1182.84  1183.21  1187.91  1191.25  1196.77
eigval :     1198.44  1209.14  1221.65  1223.94  1227.78  1228.00
eigval :     1230.89  1233.99  1237.68  1242.13  1243.56  1257.80
eigval :     1261.79  1272.20  1273.99  1278.07  1280.82  1281.50
eigval :     1286.20  1295.03  1299.68  1302.36  1308.79  1313.76
eigval :     1315.88  1318.63  1321.86  1323.89  1326.31  1331.94
eigval :     1346.99  1361.44  1363.25  1369.09  1385.50  1393.94
eigval :     1400.63  1402.24  1404.77  1405.79  1406.15  1411.20
eigval :     1413.13  1428.86  1429.34  1429.72  1431.10  1432.08
eigval :     1434.78  1436.98  1449.85  1455.97  1469.23  1475.06
eigval :     1477.83  1480.37  1482.93  1485.10  1491.75  1491.83
eigval :     1494.16  1494.49  1499.69  1501.12  1504.27  1506.26
eigval :     1514.65  1514.77  1519.43  1519.75  1531.62  1539.48
eigval :     1547.70  1552.59  1563.79  1570.89  1578.53  1581.54
eigval :     1582.51  1583.43  1585.47  1587.47  1594.61  1597.21
eigval :     1598.63  1600.22  1601.73  1604.38  1606.23  3022.57
eigval :     3022.61  3024.24  3024.30  3027.67  3027.76  3030.61
eigval :     3031.52  3031.86  3032.04  3036.39  3036.60  3039.07
eigval :     3039.42  3045.43  3045.64  3049.24  3049.36  3069.19
eigval :     3069.81  3071.84  3072.70  3074.34  3075.24  3077.27
eigval :     3078.84  3079.15  3081.23  3081.70  3082.78  3083.58
eigval :     3084.59  3088.32  3090.72  3091.08  3091.34  3091.41
eigval :     3091.47  3092.09  3093.80  3099.49  3105.86  3108.43
eigval :     3108.99  3109.64  3114.24  3115.37  3115.71  3116.22

   temp. (K)  partition function   enthalpy   heat capacity  entropy
                                   cal/mol     cal/K/mol   cal/K/mol   J/K/mol
 298.15  VIB  0.700E+26            33714.437    211.552    209.754
         ROT  0.195E+09              888.752      2.981     40.912
         INT  0.136E+35            34603.190    214.533    250.666
         TR   0.246E+29             1481.254      4.968     46.128
         TOT                       36084.4437   219.5010   296.7943  1241.7872

       T/K    H(0)-H(T)+PV         H(T)/Eh          T*S/Eh         G(T)/Eh
   ------------------------------------------------------------------------
    298.15    0.575042E-01    0.975013E+00    0.141017E+00    0.833996E+00
   ------------------------------------------------------------------------

         :::::::::::::::::::::::::::::::::::::::::::::::::::::
         ::                  THERMODYNAMIC                  ::
         :::::::::::::::::::::::::::::::::::::::::::::::::::::
         :: total free energy        -172.293402621930 Eh   ::
         ::.................................................::
         :: total energy             -173.127398733807 Eh   ::
         :: zero point energy           0.917508417959 Eh   ::
         :: G(RRHO) w/o ZPVE           -0.083512306083 Eh   ::
         :: G(RRHO) contrib.            0.833996111877 Eh   ::
         :::::::::::::::::::::::::::::::::::::::::::::::::::::

           -------------------------------------------------
          | TOTAL ENERGY             -173.127398733807 Eh   |
          | TOTAL ENTHALPY           -172.152386094491 Eh   |
          | TOTAL FREE ENERGY        -172.293402621930 Eh   |
          | GRADIENT NORM               0.000081140645 Eh/α |
          | HOMO-LUMO GAP               1.926753972199 eV   |
           -------------------------------------------------

 * finished run on 2025/07/18 at 01:12:50.006
