   * xtb version 6.7.1 (edcfbbe) compiled by 'albert@albert-system' on 2024-07-22

   ID    Z sym.   atoms
    1    6 C      1-8, 10-12, 14-31, 35-38, 40-56
    2    7 N      9, 13, 39
    3   16 S      32
    4    8 O      33, 34
    5    1 H      57-99

          program call               : xtb data2507/gas/NPE-AcDPS/NPE-AcDPS_gas_S0_finalOpt.xtbopt.xyz --gfn 2 --spinpol --tblite --uhf 2 --ohess vtight --parallel 40 --molden --ceasefiles --namespace data2507/gas/NPE-AcDPS/NPE-AcDPS_gas_T1_preOpt
 * total energy  :  -149.1154993 Eh     change        0.8081597E-07 Eh
 * total energy  :  -149.1181677 Eh     change       -0.2668404E-02 Eh
 * total energy  :  -149.1189005 Eh     change       -0.7328223E-03 Eh
 * total energy  :  -149.1190627 Eh     change       -0.1621527E-03 Eh
 * total energy  :  -149.1192067 Eh     change       -0.1439741E-03 Eh
 * total energy  :  -149.1192852 Eh     change       -0.7856257E-04 Eh
 * total energy  :  -149.1193666 Eh     change       -0.8140453E-04 Eh
 * total energy  :  -149.1194374 Eh     change       -0.7076326E-04 Eh
 * total energy  :  -149.1194848 Eh     change       -0.4735720E-04 Eh
 * total energy  :  -149.1195152 Eh     change       -0.3042136E-04 Eh
 * total energy  :  -149.1196266 Eh     change       -0.4104151E-05 Eh
 * total energy  :  -149.1196308 Eh     change       -0.4228650E-05 Eh
 * total energy  :  -149.1196344 Eh     change       -0.3585505E-05 Eh
 * total energy  :  -149.1196374 Eh     change       -0.3041639E-05 Eh
 * total energy  :  -149.1196400 Eh     change       -0.2549912E-05 Eh
 * total energy  :  -149.1196417 Eh     change       -0.1675242E-05 Eh
 * total energy  :  -149.1196426 Eh     change       -0.9281383E-06 Eh
 * total energy  :  -149.1196431 Eh     change       -0.4929238E-06 Eh
 * total energy  :  -149.1196432 Eh     change       -0.9029213E-07 Eh
   *** GEOMETRY OPTIMIZATION CONVERGED AFTER 44 ITERATIONS ***

 final structure:
================
99
 xtb: 6.7.1 (edcfbbe)
C            1.10526199051563        2.65118507835451        1.82698995190631
C            0.05010840595706        1.61003831117283        1.43068857563363
C           -1.31025942456865        2.18647170875210        1.75487011772050
C           -2.04853755169999        1.69746312533588        2.82344861320579
C           -3.26737850730056        2.26397628917243        3.15331271682851
C           -3.75557188999530        3.32899004806035        2.41829006443720
C           -3.02403221059413        3.81942487404658        1.34867592359492
C           -1.80539916734097        3.25624899897291        1.01685891038178
N            0.14436437994655        1.32989293906224        0.00825063857372
C           -0.99426260879064        0.99768008430501       -0.72750002459244
C           -1.97870644690537        0.17188345083681       -0.21676901360875
C           -3.09210080023258       -0.15233522350264       -1.01793566865164
N           -4.15059907614659       -0.90838656106547       -0.43774935565854
C           -5.20325604089261       -0.23581831758540        0.14782414835054
C           -5.22050525304776        1.16545857484177        0.12865933617300
C           -6.26601192373086        1.86412432687814        0.68690040784811
C           -7.31167745729705        1.18085623076849        1.28789484694286
C           -7.29409185422522       -0.20161721584906        1.31656223622468
C           -6.25873606322280       -0.93429458881195        0.75351090310799
C           -6.29686028694657       -2.44782186721630        0.80373693750310
C           -6.32750141881669       -2.89220837241007        2.27835932259443
C           -7.56455223302349       -2.93363271353945        0.07569556809058
C           -5.08760945889900       -3.06700709288364        0.13453231129116
C           -4.95845213348136       -4.44769933884271        0.08444593440715
C           -3.87529503252816       -5.06044103497246       -0.51929401535517
C           -2.88401268474204       -4.28123623983910       -1.09597090356844
C           -2.98492264452169       -2.90914817788779       -1.06215249040272
C           -4.08030152947960       -2.28380136680239       -0.44969326990574
C           -3.17376803005595        0.28758456048230       -2.33944756128849
C           -2.18228773590796        1.09231363827950       -2.85557875793347
C           -1.10925175871726        1.47404570173995       -2.04264392288279
S            0.15061390090254        2.60417541249449       -2.52366958410298
O            0.19661258857362        2.76846491349540       -3.95364697091545
O            0.01608840316189        3.80706465693959       -1.72325627743095
C            1.51752375459512        1.67461865498033       -1.94002087369133
C            2.69265273619060        1.44903018092830       -2.67303838282903
C            3.73990470584526        0.78153946213135       -2.09034189221325
C            3.62754267555691        0.31687767340811       -0.76898312150581
N            4.72687930714795       -0.31891451489624       -0.13491088651159
C            5.41322106040949        0.35830363217054        0.85299477628296
C            5.05586612199540        1.68099456160956        1.15987505062250
C            5.69719994837842        2.37285570270003        2.16063258004649
C            6.72073509274273        1.76571928290470        2.87406772532829
C            7.10445517553259        0.47683576791444        2.54809248112696
C            6.47715468728088       -0.24533766683559        1.54307376628975
C            6.97295897949973       -1.63281641593995        1.19589076479107
C            8.44338848306554       -1.52580960425438        0.74882664849551
C            6.86070468632327       -2.53096507496477        2.44257058193395
C            6.16590840539052       -2.25920238451282        0.07882335980714
C            6.48596092465887       -3.53204754655037       -0.36956512199370
C            5.75896208984892       -4.16413264387004       -1.36316273920937
C            4.66218717017494       -3.52121667782327       -1.91892860644298
C            4.32159992688580       -2.25751508657785       -1.49642933916283
C            5.07632685702855       -1.59812701292645       -0.51308933869174
C            2.42525716014152        0.49112421953539       -0.04817467540478
C            1.37664688343628        1.17507975245364       -0.62623302602286
H            2.10874777836750        2.23639291174601        1.81738150832807
H            0.88948903414026        3.01586764518014        2.82878894038710
H            1.06204098609365        3.48580583845159        1.13145926913874
H            0.20530601295986        0.69167323675533        2.02100245346152
H           -1.66775624340630        0.86804935769325        3.40490020629019
H           -3.83468048521449        1.87369333193401        3.98572409197187
H           -4.70278270008496        3.77538400024074        2.68198919000920
H           -3.40084967415620        4.64985091558241        0.77030507445432
H           -1.24149547189080        3.64212454520734        0.17942197421858
H           -1.92224970183982       -0.22333934640086        0.78439233334744
H           -4.40219814826989        1.69741590033233       -0.32929364944713
H           -6.26601321512826        2.94218607521389        0.65069187573841
H           -8.13582942924276        1.71933179642987        1.73012555266727
H           -8.11556214678542       -0.71810094154723        1.78947139062040
H           -6.36748821240922       -3.97501138926653        2.35581252354054
H           -5.43176984586663       -2.54315988775622        2.78845442876937
H           -7.19464024126540       -2.48196888377585        2.78789488632546
H           -7.63576707934007       -4.01721545447959        0.10298471762017
H           -7.53746716119433       -2.61667156301940       -0.96497265613143
H           -8.45761945689967       -2.52173870446770        0.53675487202027
H           -5.72172416334022       -5.06982429930841        0.52656099464098
H           -3.80669487109509       -6.13719244350529       -0.54078667157364
H           -2.03367441855323       -4.74468552141837       -1.57263419145384
H           -2.21855644707805       -2.29794424865770       -1.51221942336529
H           -4.03033289649117        0.01080026555825       -2.93584583516850
H           -2.21670328105029        1.47040298287232       -3.86371442728354
H            2.74504080507123        1.83776485379078       -3.67637858471838
H            4.66742393426246        0.62830970016668       -2.62171534518293
H            4.27759217711962        2.16111680263065        0.58858768889607
H            5.40368802238149        3.38747238835382        2.38276018511771
H            7.22625876189097        2.29672128250617        3.66567593385396
H            7.92084475883643        0.02928030736057        3.09414849254363
H            9.05664571443890       -1.09539618520806        1.53530859216723
H            8.51693080951694       -0.88982757482872       -0.13115853191531
H            8.84479167826668       -2.50408196009054        0.50037495905358
H            5.82057419617096       -2.60343312634655        2.75451502879397
H            7.22633931193513       -3.53196347182490        2.23235022341315
H            7.43913616135966       -2.12322116358063        3.26658840402069
H            7.32371856586881       -4.05459910754603        0.06644330709349
H            6.03816990239463       -5.15345061585626       -1.69108836635465
H            4.07176867978309       -4.00902302281243       -2.67946214183948
H            3.46144386311702       -1.76203644591270       -1.91749383410807
H            2.34589914421788        0.06745136552117        0.94126477146917

 projected vibrational frequencies (cm⁻¹)
eigval :       -0.00    -0.00    -0.00     0.00     0.00     0.00
eigval :        7.47    10.78    11.40    15.22    18.51    25.02
eigval :       36.51    41.22    46.39    52.88    59.07    66.16
eigval :       81.38    89.11    93.95    95.83    99.02   102.51
eigval :      107.68   120.32   125.82   130.18   130.25   140.63
eigval :      147.77   163.71   180.41   187.23   192.83   192.96
eigval :      200.10   216.02   218.12   220.76   228.33   230.77
eigval :      237.22   239.47   256.04   271.47   286.74   302.29
eigval :      303.71   310.09   316.47   321.29   327.00   327.65
eigval :      334.76   338.12   346.10   351.30   357.27   376.68
eigval :      377.14   379.18   383.96   391.05   397.65   406.88
eigval :      413.57   417.90   425.11   438.58   448.05   449.64
eigval :      462.55   480.03   500.09   504.10   507.31   509.23
eigval :      514.36   518.56   522.71   533.84   542.21   544.23
eigval :      552.15   556.03   566.27   573.70   581.62   584.88
eigval :      588.83   593.22   608.60   618.48   628.85   634.34
eigval :      637.13   658.17   671.77   676.97   682.23   685.60
eigval :      687.91   694.09   697.13   708.86   740.93   763.27
eigval :      770.64   773.24   774.62   776.68   778.32   782.14
eigval :      786.39   800.76   813.75   823.73   824.71   824.91
eigval :      866.17   869.09   869.65   870.05   872.77   879.77
eigval :      882.25   884.07   905.26   909.44   910.51   911.18
eigval :      912.05   913.85   914.88   919.01   920.84   921.28
eigval :      922.83   932.61   932.83   936.24   939.06   953.89
eigval :      957.68   957.77   968.31   975.30   984.08  1013.32
eigval :     1013.39  1015.16  1020.24  1039.43  1058.56  1071.17
eigval :     1075.02  1076.05  1083.36  1085.22  1085.81  1091.59
eigval :     1096.32  1108.71  1109.53  1112.22  1131.97  1136.94
eigval :     1137.86  1139.09  1145.88  1151.25  1151.72  1153.10
eigval :     1165.24  1174.38  1180.53  1181.50  1182.07  1182.20
eigval :     1184.10  1184.72  1186.48  1198.59  1202.55  1213.01
eigval :     1215.93  1219.71  1224.85  1232.74  1235.12  1240.99
eigval :     1241.80  1245.81  1256.67  1259.66  1273.30  1281.39
eigval :     1292.78  1294.04  1302.02  1303.78  1307.97  1312.95
eigval :     1316.20  1319.78  1330.80  1331.87  1332.09  1336.48
eigval :     1338.74  1352.56  1371.14  1387.36  1394.69  1400.92
eigval :     1401.16  1401.47  1403.54  1413.92  1418.79  1418.96
eigval :     1420.73  1422.72  1427.32  1436.85  1439.85  1441.80
eigval :     1443.16  1452.11  1458.23  1472.28  1475.03  1485.75
eigval :     1487.64  1487.74  1488.22  1488.32  1488.69  1489.34
eigval :     1497.89  1498.14  1498.26  1502.05  1502.62  1510.59
eigval :     1527.35  1543.28  1549.09  1564.27  1575.39  1582.12
eigval :     1590.76  1599.97  2823.99  3029.57  3029.86  3031.91
eigval :     3032.24  3037.59  3043.24  3043.43  3045.67  3045.76
eigval :     3048.59  3051.96  3052.08  3054.66  3055.03  3055.26
eigval :     3055.48  3075.31  3081.44  3082.80  3082.98  3083.24
eigval :     3083.92  3084.27  3084.40  3087.58  3088.18  3088.72
eigval :     3089.14  3089.39  3092.05  3094.58  3098.48  3099.60
eigval :     3100.14  3101.32  3106.73  3107.95  3110.24  3111.43
eigval :     3114.75  3115.11  3115.73

   temp. (K)  partition function   enthalpy   heat capacity  entropy
                                   cal/mol     cal/K/mol   cal/K/mol   J/K/mol
 298.15  VIB  0.449E+23            29268.569    183.356    182.098
         ROT  0.116E+09              888.752      2.981     39.885
         INT  0.521E+31            30157.321    186.337    221.983
         TR   0.199E+29             1481.254      4.968     45.703
         TOT                       31638.5754   191.3049   267.6864  1120.0001

       T/K    H(0)-H(T)+PV         H(T)/Eh          T*S/Eh         G(T)/Eh
   ------------------------------------------------------------------------
    298.15    0.504193E-01    0.827446E+00    0.127186E+00    0.700259E+00
   ------------------------------------------------------------------------

         :::::::::::::::::::::::::::::::::::::::::::::::::::::
         ::                  THERMODYNAMIC                  ::
         :::::::::::::::::::::::::::::::::::::::::::::::::::::
         :: total free energy        -148.419384037260 Eh   ::
         ::.................................................::
         :: total energy             -149.119643256492 Eh   ::
         :: zero point energy           0.777026409354 Eh   ::
         :: G(RRHO) w/o ZPVE           -0.076767190121 Eh   ::
         :: G(RRHO) contrib.            0.700259219232 Eh   ::
         :::::::::::::::::::::::::::::::::::::::::::::::::::::

           -------------------------------------------------
          | TOTAL ENERGY             -149.119643256492 Eh   |
          | TOTAL ENTHALPY           -148.292197567946 Eh   |
          | TOTAL FREE ENERGY        -148.419384037260 Eh   |
          | GRADIENT NORM               0.000137663401 Eh/α |
           -------------------------------------------------

 * finished run on 2025/09/13 at 15:05:52.047
