   * xtb version 6.7.1 (edcfbbe) compiled by 'albert@albert-system' on 2024-07-22

   ID    Z sym.   atoms
    1    6 C      1-8, 10-12, 14-31, 35-38, 40-56
    2    7 N      9, 13, 39
    3   16 S      32
    4    8 O      33, 34
    5    1 H      57-99

          program call               : xtb data2507/gas/NPE-AcDPS/NPE-AcDPS.xyz --gfn 2 --ohess vtight --parallel 40 --molden --ceasefiles --namespace data2507/gas/NPE-AcDPS/NPE-AcDPS_gas_S0_preOpt
          :  Hamiltonian                  GFN2-xTB          :
 * total energy  :  -149.1745839 Eh     change       -0.2922661E-08 Eh
 * total energy  :  -149.1965771 Eh     change       -0.2199323E-01 Eh
 * total energy  :  -149.2055955 Eh     change       -0.9018381E-02 Eh
 * total energy  :  -149.2080632 Eh     change       -0.2467783E-02 Eh
 * total energy  :  -149.2096348 Eh     change       -0.1571556E-02 Eh
 * total energy  :  -149.2105813 Eh     change       -0.9465138E-03 Eh
 * total energy  :  -149.2110653 Eh     change       -0.4839826E-03 Eh
 * total energy  :  -149.2113865 Eh     change       -0.3212399E-03 Eh
 * total energy  :  -149.2116701 Eh     change       -0.2835699E-03 Eh
 * total energy  :  -149.2119006 Eh     change       -0.2304625E-03 Eh
 * total energy  :  -149.2138830 Eh     change       -0.4542198E-06 Eh
 * total energy  :  -149.2138835 Eh     change       -0.4643397E-06 Eh
 * total energy  :  -149.2138840 Eh     change       -0.5666115E-06 Eh
 * total energy  :  -149.2138846 Eh     change       -0.5758600E-06 Eh
 * total energy  :  -149.2138851 Eh     change       -0.4701709E-06 Eh
 * total energy  :  -149.2138854 Eh     change       -0.3019030E-06 Eh
 * total energy  :  -149.2138856 Eh     change       -0.1924350E-06 Eh
 * total energy  :  -149.2138857 Eh     change       -0.1169239E-06 Eh
 * total energy  :  -149.2138857 Eh     change       -0.2781860E-08 Eh
   *** GEOMETRY OPTIMIZATION CONVERGED AFTER 122 ITERATIONS ***

 final structure:
================
99
 xtb: 6.7.1 (edcfbbe)
C            0.71347512831747        1.64223191993215        1.87143902300648
C           -0.23837464184157        1.86960681315442        0.70236063494978
C           -0.16330184760049        3.27733138361023        0.14904726387778
C           -1.33405577446440        3.99645205604982       -0.04909984874243
C           -1.30024419388355        5.25514875436549       -0.61922003861023
C           -0.09278271301126        5.80810814755433       -1.00450579599964
C            1.07839581051058        5.09742418482477       -0.81525173213376
C            1.04332826386676        3.83943965317816       -0.24421630559724
N           -0.08133348044504        0.92447175306290       -0.42368450068497
C           -1.26035305315447        0.65167135712362       -1.12388701647979
C           -2.32730096238333        0.05708788646390       -0.44452224538147
C           -3.50615880912120       -0.25279837535276       -1.10454250396047
N           -4.58711956970741       -0.79909451966564       -0.36928502387179
C           -5.29824670000042        0.03245946040326        0.48557036302129
C           -4.97172980360563        1.38975404430119        0.56499721580407
C           -5.64853173550465        2.23529654441321        1.41845561306490
C           -6.67494554745497        1.74317774237667        2.20398826599668
C           -7.02205505824700        0.40910495258199        2.10228345916253
C           -6.35818873773422       -0.46391682750961        1.25069930779520
C           -6.81550082936188       -1.90716552526743        1.15928750385915
C           -6.69275297088497       -2.55641640585241        2.54991679625438
C           -8.28137278086930       -1.92561062259307        0.68916068970972
C           -5.97794706994101       -2.70592049926045        0.17886421565846
C           -6.26066405863767       -4.05024777978106       -0.02291014739621
C           -5.51391571136888       -4.83706226066045       -0.87960877808760
C           -4.43906278311739       -4.27791340328039       -1.54661524769678
C           -4.13701819092286       -2.94460091338193       -1.36609830844667
C           -4.90885261014935       -2.14064055912267       -0.52281450476410
C           -3.63369860172143       -0.02159828140748       -2.47382021629195
C           -2.57748588038526        0.54580983943825       -3.15789431033267
C           -1.42131547718560        0.89329914411537       -2.48522301470265
S           -0.13040591032192        1.78301212616728       -3.32598593705419
O           -0.05943495517294        1.38026613988611       -4.70409393101151
O           -0.29832414576926        3.18633319008774       -3.05462536866019
C            1.29055040583603        1.17308064124269       -2.44590245648405
C            2.49195277666759        1.02044245042180       -3.11064041993901
C            3.60498184265669        0.55871243203250       -2.43646885663293
C            3.47851859997213        0.20325199712082       -1.09509049845727
N            4.59516426332337       -0.29604444751992       -0.37790751975246
C            5.03434001157665       -1.59204636016925       -0.61293670186643
C            4.37573211822418       -2.38661767043283       -1.55518916741029
C            4.79870963340752       -3.67251130731573       -1.81836280566387
C            5.88397516296839       -4.19354889195601       -1.13763794615099
C            6.51901281732359       -3.41882367733803       -0.18521202189289
C            6.11346724608562       -2.12212898517291        0.10114878831487
C            6.83189658131251       -1.33983274873169        1.18437080378702
C            6.68936742032213       -2.10210614135553        2.51437127432142
C            8.31712952603736       -1.20914360142014        0.80075982994876
C            6.25572584975755        0.05267067797453        1.35367096751352
C            6.80192435004318        0.90901394338050        2.30030272446565
C            6.34269273449317        2.20121603202907        2.47515519224766
C            5.32422477364207        2.67151746981687        1.66625043962567
C            4.76455227970022        1.84087544907037        0.71877961282305
C            5.19880355212558        0.52092805937414        0.56731366761901
C            2.25889354712560        0.31944439247720       -0.44439049179472
C            1.14164291520621        0.84380528154528       -1.09951007774265
H            0.66009431865401        0.61097592763160        2.21299505359379
H            0.40198732822752        2.28970347410216        2.68866555470996
H            1.74099948213825        1.88984382762275        1.62572618768709
H           -1.25425531369188        1.70895403849025        1.07519242742711
H           -2.28203745833745        3.56382157930684        0.24213056230927
H           -2.22020037665187        5.79945384258129       -0.77301531040550
H           -0.06532382400331        6.78585065875909       -1.46128384472727
H            2.02402302150446        5.51843305108026       -1.12350021989487
H            1.96475065031760        3.29065635874599       -0.11662546561403
H           -2.24417443301676       -0.16923222248705        0.60810753528278
H           -4.18781616927642        1.78685303760541       -0.06165059841077
H           -5.37574396510619        3.27920338235320        1.46400476967703
H           -7.20970585717516        2.39306094196044        2.87944689710885
H           -7.83863698647720        0.04259030232536        2.70559630497070
H           -7.03155515541168       -3.58835183602147        2.52792494475699
H           -5.65372128256058       -2.54337276545330        2.87391375427819
H           -7.28760049221464       -2.01914286484275        3.28326321756072
H           -8.65363362357619       -2.94379554818936        0.61870081010473
H           -8.36042054731175       -1.46227296873336       -0.29249971465091
H           -8.91768486071102       -1.37789266745239        1.37865689762030
H           -7.08669905171365       -4.50339464218572        0.50388127709143
H           -5.76380915454901       -5.87802774282603       -1.01599162369632
H           -3.83088487075173       -4.87796698126105       -2.20672036270577
H           -3.28928172554626       -2.51863560289217       -1.88034701749468
H           -4.55279009373672       -0.27847244538595       -2.97652932003295
H           -2.63053488515548        0.75417941004632       -4.21478118894564
H            2.52804650877408        1.28205548545473       -4.15632682009255
H            4.55750141435938        0.45495168948464       -2.93196524323209
H            3.52098702859678       -1.99212335994125       -2.08267161432883
H            4.27649784095621       -4.26551801693954       -2.55407124471215
H            6.22796797609544       -5.19666688420320       -1.33776670549783
H            7.35408555077015       -3.84380062499831        0.35070858629278
H            7.11014785836165       -3.10063766884918        2.43641730926965
H            5.63726665342852       -2.19293432120365        2.77818368940526
H            7.20070637145795       -1.57944865217007        3.31794669982079
H            8.77478184745572       -2.18695751627232        0.68003093548353
H            8.40975915031192       -0.66812653627200       -0.13908255334895
H            8.86926719607203       -0.66746961287721        1.56366456069958
H            7.61310781286656        0.56284918161993        2.92263051053082
H            6.78662050444377        2.83788230944984        3.22486099094387
H            4.96656261030223        3.68549651668356        1.76651648405253
H            3.99078176459442        2.22168429605899        0.07006590269279
H            2.18458723073381       -0.02090694506602        0.57454907123889

          :  Hamiltonian                  GFN2-xTB          :
         :: gradient norm              0.000035743594 Eh/a0 ::
         :: HOMO-LUMO gap              2.375870987410 eV    ::
         :: SCC energy              -151.759000935057 Eh    ::
         :: -> dispersion             -0.151888770360 Eh    ::
         :: repulsion energy           2.545115230197 Eh    ::

    * Orbital Energies and Occupations

         #    Occupation            Energy/Eh            Energy/eV
      -------------------------------------------------------------
         1        2.0000           -0.7679108             -20.8959
       ...           ...                  ...                  ...
       126        2.0000           -0.4108095             -11.1787
       127        2.0000           -0.4070073             -11.0752
       128        2.0000           -0.4064338             -11.0596
       129        2.0000           -0.4045936             -11.0096
       130        2.0000           -0.4014749             -10.9247
       131        2.0000           -0.4008842             -10.9086
       132        2.0000           -0.4004475             -10.8967
       133        2.0000           -0.3995354             -10.8719
       134        2.0000           -0.3959940             -10.7755
       135        2.0000           -0.3954130             -10.7597
       136        2.0000           -0.3783582             -10.2957
       137        2.0000           -0.3513222              -9.5600
       138        2.0000           -0.3506043              -9.5404 (HOMO)
       139                         -0.2632926              -7.1646 (LUMO)
       140                         -0.2572137              -6.9991
       141                         -0.2524816              -6.8704
       142                         -0.2482030              -6.7539
       143                         -0.2277330              -6.1969
       144                         -0.2271009              -6.1797
       145                         -0.2229924              -6.0679
       146                         -0.2221377              -6.0447
       147                         -0.2212908              -6.0216
       148                         -0.2208058              -6.0084
       149                         -0.2195030              -5.9730
       ...                                ...                  ...
       272                          1.2238863              33.3036
      -------------------------------------------------------------
                  HL-Gap            0.0873117 Eh            2.3759 eV

     #   Z          covCN         q      C6AA      α(0)
     1   6 C        3.753    -0.112    22.697     6.794
     2   6 C        3.803     0.040    19.894     6.350
     3   6 C        2.974    -0.004    28.125     8.699
     4   6 C        2.926    -0.032    28.796     8.800
     5   6 C        2.920    -0.021    28.533     8.759
     6   6 C        2.921    -0.021    28.522     8.758
     7   6 C        2.920    -0.022    28.544     8.761
     8   6 C        2.925    -0.029    28.728     8.790
     9   7 N        2.744    -0.118    23.566     7.210
    10   6 C        2.972     0.067    26.506     8.445
    11   6 C        2.930    -0.058    29.435     8.898
    12   6 C        2.927     0.076    26.304     8.411
    13   7 N        2.755    -0.068    22.565     7.055
    14   6 C        2.928     0.057    26.724     8.478
    15   6 C        2.924    -0.060    29.484     8.905
    16   6 C        2.920    -0.033    28.816     8.803
    17   6 C        2.917    -0.044    29.098     8.846
    18   6 C        2.928    -0.036    28.891     8.815
    19   6 C        2.980    -0.013    28.328     8.731
    20   6 C        3.909     0.021    20.160     6.382
    21   6 C        3.761    -0.104    22.529     6.766
    22   6 C        3.761    -0.104    22.530     6.766
    23   6 C        2.979    -0.013    28.334     8.731
    24   6 C        2.928    -0.036    28.894     8.815
    25   6 C        2.917    -0.044    29.090     8.845
    26   6 C        2.920    -0.032    28.808     8.802
    27   6 C        2.924    -0.059    29.473     8.903
    28   6 C        2.927     0.057    26.720     8.477
    29   6 C        2.921    -0.043    29.071     8.842
    30   6 C        2.957    -0.022    28.561     8.766
    31   6 C        2.973    -0.102    30.567     9.069
    32  16 S        3.844     0.973   107.432    17.445
    33   8 O        0.860    -0.543    24.767     6.672
    34   8 O        0.860    -0.552    24.973     6.700
    35   6 C        2.974    -0.100    30.524     9.063
    36   6 C        2.960    -0.023    28.573     8.768
    37   6 C        2.921    -0.042    29.045     8.838
    38   6 C        2.927     0.075    26.327     8.415
    39   7 N        2.755    -0.069    22.579     7.057
    40   6 C        2.927     0.057    26.722     8.477
    41   6 C        2.924    -0.059    29.475     8.903
    42   6 C        2.920    -0.032    28.806     8.801
    43   6 C        2.917    -0.044    29.088     8.844
    44   6 C        2.928    -0.036    28.894     8.815
    45   6 C        2.979    -0.013    28.336     8.732
    46   6 C        3.909     0.021    20.160     6.382
    47   6 C        3.761    -0.104    22.528     6.766
    48   6 C        3.761    -0.104    22.532     6.767
    49   6 C        2.980    -0.013    28.331     8.731
    50   6 C        2.928    -0.036    28.889     8.815
    51   6 C        2.918    -0.044    29.099     8.846
    52   6 C        2.919    -0.033    28.827     8.805
    53   6 C        2.925    -0.059    29.478     8.904
    54   6 C        2.929     0.057    26.724     8.478
    55   6 C        2.930    -0.057    29.423     8.896
    56   6 C        2.959     0.071    26.411     8.429
    57   1 H        0.925     0.047     2.360     2.403
    58   1 H        0.925     0.051     2.304     2.374
    59   1 H        0.925     0.053     2.279     2.361
    60   1 H        0.924     0.052     2.300     2.372
    61   1 H        0.925     0.023     2.681     2.560
    62   1 H        0.926     0.036     2.498     2.471
    63   1 H        0.926     0.038     2.472     2.459
    64   1 H        0.926     0.035     2.522     2.483
    65   1 H        0.926     0.023     2.693     2.566
    66   1 H        0.926     0.058     2.227     2.334
    67   1 H        0.926     0.020     2.727     2.583
    68   1 H        0.926     0.028     2.610     2.526
    69   1 H        0.926     0.028     2.613     2.528
    70   1 H        0.926     0.032     2.561     2.502
    71   1 H        0.925     0.040     2.446     2.446
    72   1 H        0.925     0.031     2.570     2.507
    73   1 H        0.925     0.040     2.448     2.447
    74   1 H        0.925     0.040     2.445     2.445
    75   1 H        0.925     0.032     2.554     2.499
    76   1 H        0.925     0.040     2.448     2.446
    77   1 H        0.926     0.032     2.563     2.504
    78   1 H        0.926     0.028     2.613     2.528
    79   1 H        0.926     0.029     2.597     2.520
    80   1 H        0.926     0.023     2.684     2.562
    81   1 H        0.926     0.059     2.205     2.322
    82   1 H        0.926     0.066     2.129     2.282
    83   1 H        0.926     0.066     2.127     2.280
    84   1 H        0.926     0.059     2.208     2.323
    85   1 H        0.926     0.023     2.688     2.564
    86   1 H        0.926     0.029     2.594     2.519
    87   1 H        0.926     0.028     2.611     2.527
    88   1 H        0.926     0.032     2.562     2.503
    89   1 H        0.925     0.040     2.445     2.445
    90   1 H        0.925     0.031     2.572     2.508
    91   1 H        0.925     0.040     2.448     2.447
    92   1 H        0.925     0.040     2.445     2.445
    93   1 H        0.925     0.032     2.554     2.499
    94   1 H        0.925     0.040     2.448     2.447
    95   1 H        0.926     0.032     2.561     2.502
    96   1 H        0.926     0.028     2.614     2.528
    97   1 H        0.926     0.029     2.602     2.523
    98   1 H        0.926     0.019     2.755     2.595
    99   1 H        0.926     0.066     2.125     2.280

molecular dipole:
                 x           y           z       tot (Debye)
 q only:        0.160      -1.032       2.142
   full:        0.132      -0.905       1.866       5.281

 projected vibrational frequencies (cm⁻¹)
eigval :       -0.00    -0.00    -0.00     0.00     0.00     0.00
eigval :        8.76     9.36    11.86    17.94    18.71    21.81
eigval :       26.17    32.02    41.27    48.08    50.11    60.43
eigval :       87.82    91.13    94.03    96.90    98.66   100.93
eigval :      105.04   120.61   128.24   128.36   128.72   137.57
eigval :      151.39   170.60   184.25   189.04   190.20   190.74
eigval :      217.09   218.81   219.17   229.46   233.22   238.44
eigval :      241.57   247.41   258.22   276.89   305.14   305.25
eigval :      306.82   316.81   323.26   330.51   331.60   332.62
eigval :      345.94   346.88   357.63   364.38   370.75   376.52
eigval :      378.33   389.96   393.94   396.04   412.82   414.98
eigval :      426.56   441.75   449.84   451.91   452.91   461.87
eigval :      468.26   489.37   494.26   506.00   514.98   515.33
eigval :      518.55   528.79   543.23   547.69   547.71   551.16
eigval :      556.57   560.86   577.05   586.10   587.59   590.76
eigval :      596.15   612.95   637.13   642.90   648.97   659.48
eigval :      671.27   677.74   682.69   682.82   685.49   693.55
eigval :      693.69   697.78   703.25   708.33   751.25   760.31
eigval :      777.22   777.61   778.42   778.77   782.11   795.75
eigval :      822.00   822.66   830.88   832.37   866.18   867.87
eigval :      868.25   868.55   871.60   877.18   883.33   888.41
eigval :      899.45   913.31   913.40   914.14   914.16   915.30
eigval :      916.00   916.61   917.27   921.46   921.53   921.98
eigval :      922.07   925.71   931.59   936.64   938.87   940.50
eigval :      957.36   957.38   978.57  1002.37  1013.04  1014.44
eigval :     1014.48  1029.03  1044.82  1067.87  1077.21  1077.41
eigval :     1085.74  1086.39  1090.67  1097.80  1107.27  1113.36
eigval :     1114.22  1119.68  1120.35  1127.04  1139.91  1140.91
eigval :     1141.39  1149.60  1150.35  1160.76  1160.77  1162.08
eigval :     1169.45  1182.23  1183.52  1186.68  1187.41  1188.17
eigval :     1188.74  1194.18  1202.55  1212.30  1216.58  1222.89
eigval :     1233.47  1239.89  1242.39  1249.40  1250.84  1255.86
eigval :     1262.18  1267.88  1269.96  1278.15  1294.67  1294.84
eigval :     1307.19  1309.26  1313.80  1320.08  1325.00  1325.25
eigval :     1326.55  1334.51  1335.15  1336.82  1337.97  1342.51
eigval :     1344.49  1400.69  1402.97  1403.01  1403.80  1420.68
eigval :     1421.07  1423.19  1435.51  1436.36  1442.69  1443.54
eigval :     1443.79  1446.97  1458.39  1479.48  1480.51  1481.02
eigval :     1489.68  1489.72  1490.68  1490.69  1495.18  1495.67
eigval :     1496.28  1500.29  1500.31  1503.73  1505.11  1505.19
eigval :     1548.35  1556.40  1570.04  1575.94  1576.20  1582.94
eigval :     1591.29  1591.37  1593.25  1593.56  1598.00  1602.44
eigval :     1602.76  1607.30  2953.66  3027.00  3027.18  3029.57
eigval :     3029.60  3031.16  3037.55  3040.55  3040.56  3043.29
eigval :     3043.33  3049.46  3049.46  3053.52  3053.59  3057.48
eigval :     3064.44  3076.11  3078.36  3079.20  3080.09  3080.40
eigval :     3081.75  3084.05  3084.29  3084.58  3084.91  3087.78
eigval :     3091.13  3093.92  3094.07  3094.99  3095.43  3096.91
eigval :     3099.59  3100.03  3100.79  3100.92  3101.70  3102.06
eigval :     3110.12  3110.32  3131.00

   temp. (K)  partition function   enthalpy   heat capacity  entropy
                                   cal/mol     cal/K/mol   cal/K/mol   J/K/mol
 298.15  VIB  0.566E+23            28864.036    179.845    179.545
         ROT  0.124E+09              888.752      2.981     40.010
         INT  0.700E+31            29752.789    182.826    219.555
         TR   0.199E+29             1481.254      4.968     45.703
         TOT                       31234.0424   187.7944   265.2581  1109.8399

       T/K    H(0)-H(T)+PV         H(T)/Eh          T*S/Eh         G(T)/Eh
   ------------------------------------------------------------------------
    298.15    0.497746E-01    0.833993E+00    0.126033E+00    0.707961E+00
   ------------------------------------------------------------------------

         :::::::::::::::::::::::::::::::::::::::::::::::::::::
         ::                  THERMODYNAMIC                  ::
         :::::::::::::::::::::::::::::::::::::::::::::::::::::
         :: total free energy        -148.505924990641 Eh   ::
         ::.................................................::
         :: total energy             -149.213885704861 Eh   ::
         :: zero point energy           0.784218786664 Eh   ::
         :: G(RRHO) w/o ZPVE           -0.076258072445 Eh   ::
         :: G(RRHO) contrib.            0.707960714219 Eh   ::
         :::::::::::::::::::::::::::::::::::::::::::::::::::::

           -------------------------------------------------
          | TOTAL ENERGY             -149.213885704861 Eh   |
          | TOTAL ENTHALPY           -148.379892303267 Eh   |
          | TOTAL FREE ENERGY        -148.505924990641 Eh   |
          | GRADIENT NORM               0.000035760239 Eh/α |
          | HOMO-LUMO GAP               2.375872375785 eV   |
           -------------------------------------------------

 * finished run on 2025/09/13 at 14:54:03.424
