   * xtb version 6.7.1 (edcfbbe) compiled by 'albert@albert-system' on 2024-07-22

   ID    Z sym.   atoms
    1    6 C      1-8, 10-12, 14-31, 35-38, 40-56
    2    7 N      9, 13, 39
    3   16 S      32
    4    8 O      33, 34
    5    1 H      57-99

          program call               : xtb data2507/gas/NPE-AcDPS/NPE-AcDPS_gas_T1_crest.xyz --gfn 2 --spinpol --tblite --uhf 2 --ohess vtight --parallel 40 --molden --ceasefiles --namespace data2507/gas/NPE-AcDPS/NPE-AcDPS_gas_T1_finalOpt
 * total energy  :  -149.1195965 Eh     change       -0.7017374E-07 Eh
 * total energy  :  -149.1196164 Eh     change       -0.1990131E-04 Eh
 * total energy  :  -149.1196279 Eh     change       -0.1151245E-04 Eh
 * total energy  :  -149.1196303 Eh     change       -0.2444209E-05 Eh
 * total energy  :  -149.1196328 Eh     change       -0.2522635E-05 Eh
 * total energy  :  -149.1196345 Eh     change       -0.1666123E-05 Eh
 * total energy  :  -149.1196363 Eh     change       -0.1758534E-05 Eh
 * total energy  :  -149.1196374 Eh     change       -0.1169251E-05 Eh
 * total energy  :  -149.1196383 Eh     change       -0.8287120E-06 Eh
 * total energy  :  -149.1196390 Eh     change       -0.7524244E-06 Eh
 * total energy  :  -149.1196464 Eh     change       -0.1592117E-06 Eh
 * total energy  :  -149.1196468 Eh     change       -0.3959867E-06 Eh
 * total energy  :  -149.1196462 Eh     change        0.6609534E-06 Eh
 * total energy  :  -149.1196470 Eh     change       -0.7839512E-06 Eh
 * total energy  :  -149.1196471 Eh     change       -0.1131763E-06 Eh
 * total energy  :  -149.1196473 Eh     change       -0.1996181E-06 Eh
 * total energy  :  -149.1196473 Eh     change       -0.6222061E-07 Eh
 * total energy  :  -149.1196475 Eh     change       -0.2055304E-06 Eh
 * total energy  :  -149.1196476 Eh     change       -0.7903091E-07 Eh
   *** GEOMETRY OPTIMIZATION CONVERGED AFTER 30 ITERATIONS ***

 final structure:
================
99
 xtb: 6.7.1 (edcfbbe)
C            1.11419463430721        2.73836792130969        1.67885990841863
C            0.05790428817575        1.67812301918021        1.34046746038135
C           -1.30236885526358        2.26772026134780        1.64005297073591
C           -2.04007809935910        1.82607544994737        2.72944301885673
C           -3.26084837874498        2.40351724741628        3.03211606025145
C           -3.75139380194682        3.43243835564408        2.24884001833541
C           -3.02011081929639        3.87591546391760        1.15872305943746
C           -1.79972864816801        3.30150214539657        0.85378710464149
N            0.14687681840622        1.32714632486559       -0.06649481714360
C           -0.99479383378303        0.96333727688473       -0.78251927634932
C           -1.97814528141669        0.16315256172941       -0.23107780845290
C           -3.09478110121431       -0.19600220962292       -1.01265367634760
N           -4.14977989198500       -0.92652118825130       -0.39480656802209
C           -5.20332062159806       -0.23059791878255        0.16082027719980
C           -5.22725458611672        1.16798516032851        0.07227531844994
C           -6.27387574983307        1.88869308547778        0.59941119604007
C           -7.31416313945811        1.23126805095438        1.23763725158093
C           -7.28977487684634       -0.14799691666649        1.33504150634425
C           -6.25301207017068       -0.90298545008487        0.80513310472662
C           -6.28255048834250       -2.41214267355672        0.93250757319982
C           -6.30377962812065       -2.78059521341343        2.42811699449582
C           -7.55080105449481       -2.94152889327396        0.23658846070566
C           -5.07285375020267       -3.05824764084580        0.29019619970828
C           -4.93623449264877       -4.43895406164779        0.30993231401238
C           -3.85204764682345       -5.07589698202630       -0.26638074748918
C           -2.86753158844749       -4.32178568736494       -0.88655161093449
C           -2.97597797296845       -2.95038817701208       -0.92240665304187
C           -4.07214947751029       -2.30038860422804       -0.33741723890117
C           -3.18102036605647        0.18401529642770       -2.35243657688407
C           -2.19007149453129        0.96218448836518       -2.90853608119177
C           -1.11289978873664        1.37833682247091       -2.11805076765581
S            0.15093398433383        2.47796713634578       -2.65559610971051
O            0.19252321603624        2.57493133968884       -4.09182311774962
O            0.02645128159883        3.71748094674483       -1.91138890243942
C            1.51503676222630        1.56904596211853       -2.03329104258761
C            2.68597941996110        1.30002842509293       -2.75826109284595
C            3.73240745506295        0.65767890291215       -2.14589539895179
C            3.62306750710622        0.26281793278309       -0.80231176522928
N            4.72328003539980       -0.34002594959893       -0.13712008105189
C            5.42619937115293        0.39709447272947        0.79440125378028
C            5.08396466770215        1.74117661065451        1.01217488890598
C            5.74529220160708        2.49569203429436        1.95286305340365
C            6.77326511955500        1.93045853742250        2.69377609317996
C            7.13913823365688        0.61720499378152        2.45703023877132
C            6.49135161801269       -0.16817769288064        1.51431597472831
C            6.96450950736167       -1.58448399366188        1.26555158886074
C            8.43155482936286       -1.53284927985594        0.79807714134633
C            6.85253506178246       -2.38607220606982        2.57644262773460
C            6.13766362863389       -2.27957254760735        0.20494209978727
C            6.43471646792251       -3.58680363457736       -0.15092876616421
C            5.69099845215841       -4.27795974219675       -1.09131154584894
C            4.60194592303356       -3.65920870456791       -1.68812917460983
C            4.28375541686992       -2.36280760618153       -1.35698219122790
C            5.05336214662896       -1.64699879611639       -0.42627122929075
C            2.42444249251337        0.47861911510349       -0.08702059736843
C            1.37651872551197        1.13659847972909       -0.69593129423707
H            2.11812447341419        2.32434289120432        1.68239503028713
H            0.90468632186309        3.15122041920448        2.66312353740220
H            1.06560574621072        3.53793742410789        0.94365080012153
H            0.21656981336254        0.79059389718498        1.97535180853989
H           -1.65770386342480        1.02482886383812        3.34815891351858
H           -3.82806384411871        2.04968429512604        3.88072375955066
H           -4.70032765858694        3.88733661969604        2.49086483085075
H           -3.39873660618712        4.67812703469374        0.54292716187157
H           -1.23628477223583        3.64984987090557       -0.00024367054133
H           -1.91817002249946       -0.18632779281063        0.78676018038826
H           -4.41295249397942        1.68007546295356       -0.41457598728017
H           -6.27914281632514        2.96365832809309        0.51006702505266
H           -8.13918079950948        1.78727314074580        1.65589919639127
H           -8.10685698355619       -0.64404078994596        1.83658166837858
H           -6.33737074408181       -3.85821285704583        2.56106765669887
H           -5.40757473057790       -2.40114376003135        2.91515746101642
H           -7.17074257470206       -2.34936879310735        2.92031938353282
H           -8.44402542944601       -2.51087827672352        0.67984906525556
H           -7.61607928608624       -4.02258554747807        0.32041966510202
H           -7.53001598696617       -2.67890366073138       -0.81924298721691
H           -5.69420748324871       -5.04184294856376        0.78646774508357
H           -3.77740063724786       -6.15193906231292       -0.23307024738340
H           -2.01662537351603       -4.80440953093003       -1.34273348732176
H           -2.21507695697951       -2.35894630950703       -1.40679723727889
H           -4.04032555233587       -0.11806832995433       -2.93239590327633
H           -2.22752968146292        1.29351934474732       -3.93288410599669
H            2.73651402261106        1.63670018609551       -3.78033217559847
H            4.65683195557018        0.47220651080165       -2.67233343221153
H            4.30098950420454        2.18689175796404        0.41974165568406
H            5.46375710538794        3.52622681757641        2.10661446081758
H            7.29501863618346        2.51143681993348        3.43836757523604
H            7.95743782716249        0.20064830457585        3.02435796893726
H            8.50486294856785       -0.96550399214458       -0.12766697640178
H            8.81648063016872       -2.53280412019192        0.61972195055369
H            9.05900356862511       -1.05411537943200        1.54440214865403
H            7.20275909369102       -3.40492963304339        2.43806021444430
H            7.44437201300831       -1.92637555523407        3.36273715010107
H            5.81465188394016       -2.42059001544129        2.90209770098804
H            7.26738045010168       -4.08940522062688        0.31712317058378
H            5.95207159843169       -5.29320346584271       -1.34704815678987
H            4.00018546815721       -4.19112003496018       -2.40919110234088
H            3.43020174787137       -1.88423600234081       -1.80996517679470
H            2.34724643794238        0.10688780198450        0.92322645199435

 projected vibrational frequencies (cm⁻¹)
eigval :       -0.00    -0.00    -0.00    -0.00     0.00     0.00
eigval :        7.17    10.45    11.28    15.12    18.43    25.05
eigval :       36.24    41.30    46.18    52.55    58.60    66.16
eigval :       81.27    89.02    93.86    95.67    98.33   101.92
eigval :      107.55   120.49   125.43   130.22   130.27   140.78
eigval :      147.19   163.48   180.23   187.47   192.88   192.99
eigval :      200.63   216.21   218.03   220.24   228.61   230.58
eigval :      237.27   239.40   256.17   271.27   286.05   302.22
eigval :      303.66   310.02   316.36   321.15   326.91   327.59
eigval :      334.83   337.88   345.90   351.29   357.62   376.34
eigval :      377.10   379.11   384.02   391.06   397.76   406.59
eigval :      413.25   417.64   425.13   438.92   447.98   449.44
eigval :      462.62   479.68   500.36   504.16   507.14   508.68
eigval :      514.26   518.40   522.67   533.64   542.22   544.12
eigval :      552.22   555.96   566.15   573.63   581.61   584.94
eigval :      588.82   593.13   608.64   618.66   628.27   633.92
eigval :      636.70   657.79   671.79   676.90   682.38   685.44
eigval :      687.94   694.17   696.95   708.58   740.79   763.22
eigval :      770.77   773.30   774.41   776.54   778.31   781.82
eigval :      786.28   800.96   813.65   823.14   824.43   824.82
eigval :      866.35   868.92   869.71   869.90   872.91   879.60
eigval :      881.98   883.99   905.52   909.22   910.44   911.32
eigval :      912.19   913.68   914.74   919.00   920.86   921.10
eigval :      922.71   932.05   932.48   936.19   939.14   953.65
eigval :      957.66   957.75   968.54   974.96   984.04  1013.25
eigval :     1013.37  1015.08  1019.73  1038.91  1057.74  1071.39
eigval :     1074.51  1075.33  1083.18  1085.11  1085.58  1091.58
eigval :     1095.06  1108.68  1109.65  1112.05  1131.88  1136.92
eigval :     1137.68  1138.76  1146.26  1150.42  1151.62  1153.01
eigval :     1165.13  1175.13  1180.63  1181.20  1181.82  1182.31
eigval :     1184.01  1184.55  1186.37  1198.66  1202.45  1213.03
eigval :     1216.00  1219.30  1223.71  1232.35  1235.52  1240.67
eigval :     1241.81  1245.33  1256.31  1259.53  1273.01  1281.29
eigval :     1292.79  1293.92  1301.75  1303.80  1308.19  1312.96
eigval :     1316.02  1319.49  1330.84  1331.86  1332.09  1336.57
eigval :     1338.61  1352.47  1371.30  1386.55  1393.77  1400.71
eigval :     1401.06  1401.16  1403.39  1414.41  1418.52  1418.71
eigval :     1420.30  1422.36  1427.21  1436.80  1439.51  1441.58
eigval :     1444.42  1452.49  1457.88  1470.52  1474.78  1485.44
eigval :     1487.59  1487.71  1488.17  1488.26  1489.01  1489.95
eigval :     1497.96  1498.19  1499.13  1501.96  1503.09  1507.29
eigval :     1528.45  1540.64  1551.04  1562.11  1574.59  1581.55
eigval :     1590.54  1599.68  2823.64  3029.33  3029.67  3031.73
eigval :     3032.09  3037.53  3043.18  3043.36  3045.59  3045.67
eigval :     3048.59  3051.64  3051.74  3054.00  3054.38  3055.06
eigval :     3055.19  3075.16  3081.22  3082.78  3082.89  3083.10
eigval :     3083.67  3084.05  3084.22  3087.75  3088.02  3088.43
eigval :     3088.91  3089.29  3091.80  3094.48  3098.33  3099.25
eigval :     3100.01  3101.08  3106.73  3108.00  3109.59  3111.05
eigval :     3114.42  3115.19  3115.91

   temp. (K)  partition function   enthalpy   heat capacity  entropy
                                   cal/mol     cal/K/mol   cal/K/mol   J/K/mol
 298.15  VIB  0.512E+23            29278.380    183.360    182.258
         ROT  0.116E+09              888.752      2.981     39.882
         INT  0.594E+31            30167.132    186.341    222.140
         TR   0.199E+29             1481.254      4.968     45.703
         TOT                       31648.3858   191.3091   267.8432  1120.6561

       T/K    H(0)-H(T)+PV         H(T)/Eh          T*S/Eh         G(T)/Eh
   ------------------------------------------------------------------------
    298.15    0.504349E-01    0.827365E+00    0.127261E+00    0.700104E+00
   ------------------------------------------------------------------------

         :::::::::::::::::::::::::::::::::::::::::::::::::::::
         ::                  THERMODYNAMIC                  ::
         :::::::::::::::::::::::::::::::::::::::::::::::::::::
         :: total free energy        -148.419543178517 Eh   ::
         ::.................................................::
         :: total energy             -149.119647647008 Eh   ::
         :: zero point energy           0.776930521302 Eh   ::
         :: G(RRHO) w/o ZPVE           -0.076826052811 Eh   ::
         :: G(RRHO) contrib.            0.700104468491 Eh   ::
         :::::::::::::::::::::::::::::::::::::::::::::::::::::

           -------------------------------------------------
          | TOTAL ENERGY             -149.119647647008 Eh   |
          | TOTAL ENTHALPY           -148.292282212555 Eh   |
          | TOTAL FREE ENERGY        -148.419543178517 Eh   |
          | GRADIENT NORM               0.000174727592 Eh/α |
           -------------------------------------------------

 * finished run on 2025/09/13 at 15:27:17.973
