   * xtb version 6.7.1 (edcfbbe) compiled by 'albert@albert-system' on 2024-07-22

   ID    Z sym.   atoms
    1    6 C      1-8, 10-12, 14-31, 35-38, 40-56
    2    7 N      9, 13, 39
    3   16 S      32
    4    8 O      33, 34
    5    1 H      57-99

          program call               : xtb data2507/gas/NPE-AcDPS/NPE-AcDPS_gas_S0_crest.xyz --gfn 2 --ohess vtight --parallel 40 --molden --ceasefiles --namespace data2507/gas/NPE-AcDPS/NPE-AcDPS_gas_S0_finalOpt
          :  Hamiltonian                  GFN2-xTB          :
 * total energy  :  -149.2219729 Eh     change       -0.2429175E-08 Eh
 * total energy  :  -149.2219741 Eh     change       -0.1243640E-05 Eh
 * total energy  :  -149.2219764 Eh     change       -0.2258088E-05 Eh
 * total energy  :  -149.2219802 Eh     change       -0.3791166E-05 Eh
 * total energy  :  -149.2219847 Eh     change       -0.4550814E-05 Eh
 * total energy  :  -149.2219883 Eh     change       -0.3586001E-05 Eh
 * total energy  :  -149.2219908 Eh     change       -0.2469511E-05 Eh
 * total energy  :  -149.2219928 Eh     change       -0.2059035E-05 Eh
 * total energy  :  -149.2219951 Eh     change       -0.2244824E-05 Eh
 * total energy  :  -149.2219974 Eh     change       -0.2366541E-05 Eh
 * total energy  :  -149.2220013 Eh     change       -0.5186443E-06 Eh
 * total energy  :  -149.2220019 Eh     change       -0.6231987E-06 Eh
 * total energy  :  -149.2220026 Eh     change       -0.7332846E-06 Eh
 * total energy  :  -149.2220034 Eh     change       -0.7727295E-06 Eh
 * total energy  :  -149.2220042 Eh     change       -0.7920748E-06 Eh
 * total energy  :  -149.2220050 Eh     change       -0.8306816E-06 Eh
 * total energy  :  -149.2220059 Eh     change       -0.8785202E-06 Eh
 * total energy  :  -149.2220069 Eh     change       -0.1003049E-05 Eh
 * total energy  :  -149.2220069 Eh     change       -0.1713920E-07 Eh
   *** GEOMETRY OPTIMIZATION CONVERGED AFTER 22 ITERATIONS ***

 final structure:
================
99
 xtb: 6.7.1 (edcfbbe)
C            1.10891391310870        2.46476435783713        1.81893168937428
C            0.06251670679820        1.42803906984340        1.39190192650242
C           -1.29691860669575        2.00203750073983        1.72829647119032
C           -2.05121363960748        1.47017335465214        2.76487668648704
C           -3.28069148169489        2.01504459410871        3.09129023751097
C           -3.76385097019438        3.10288387740177        2.38688034681600
C           -3.01262197276277        3.64259637608420        1.35598646614657
C           -1.78414456979352        3.09951950699728        1.02662560749192
N            0.15549499426622        1.17963638347537       -0.04871373962043
C           -0.99316400820706        0.92018021603350       -0.78506707901531
C           -2.02938494596433        0.13975598182335       -0.26759978901007
C           -3.16374186834977       -0.10653558673263       -1.02411933200082
N           -4.22279084405619       -0.85603966434916       -0.44829092354103
C           -5.30249682257898       -0.17058113016164        0.08942523748092
C           -5.34124889772978        1.22419732070318        0.01692430493399
C           -6.40886232925438        1.92968687744343        0.53023667205668
C           -7.45403324862326        1.25588266448282        1.13506225782179
C           -7.40920003078779       -0.12318204600294        1.22129013383914
C           -6.34924577246869       -0.85942178447739        0.70987374007577
C           -6.35499115658706       -2.37052799100744        0.84641345359485
C           -6.40696184434632       -2.72760418045772        2.34314634621749
C           -7.59367165601594       -2.92786941770142        0.12178540133604
C           -5.11578441993449       -2.99954425430283        0.23805059162489
C           -4.95855891700905       -4.37827551776102        0.27631249592061
C           -3.85735202079954       -5.00747855617313       -0.27426204586514
C           -2.88204928403335       -4.24626671390313       -0.89257397617920
C           -3.01307312535055       -2.87448703605380       -0.94563051546460
C           -4.11860139822147       -2.23577874648461       -0.37685865958450
C           -3.27421157289635        0.37219430811067       -2.32839105859852
C           -2.24392206986141        1.12687985427652       -2.85626036672066
C           -1.13581168353099        1.40720427965128       -2.08303268283103
S            0.15827295122854        2.50373596230744       -2.61608834902944
O            0.21772119508801        2.59659445863024       -4.04717708298456
O            0.02140390008315        3.72763689520657       -1.86574378609095
C            1.56090128602133        1.62644953192479       -1.96430133007380
C            2.74992816053450        1.50554684508366       -2.65363697986372
C            3.82947735223280        0.88522899120897       -2.05423473290418
C            3.68755051770870        0.37168764556133       -0.76615855798748
N            4.78435428632164       -0.26794824978228       -0.13326808512328
C            5.49093105562801        0.42389737925324        0.83992386320271
C            5.14166867960097        1.74343089387634        1.14151007534609
C            5.81398660973436        2.45036351424629        2.11628758560338
C            6.85704861997143        1.85504995677822        2.80205158820900
C            7.22288455525378        0.56016741529523        2.48451342562964
C            6.56299140985543       -0.17481027285922        1.50891603779838
C            7.03397821131469       -1.58017389519332        1.18607884854480
C            8.49518742793767       -1.50739764430861        0.70688462220113
C            6.93196598888205       -2.44255365614297        2.45740178130069
C            6.19520900116140       -2.22317826470968        0.09781071392338
C            6.48761814933252       -3.51566478172850       -0.31626109624782
C            5.74380862383917       -4.16221875909287       -1.28571268367387
C            4.66482009420412       -3.51164544518228       -1.85599629617483
C            4.35290733755539       -2.22657148189529       -1.46481936773837
C            5.11765497866840       -1.56341103571813       -0.50118705272480
C            2.47956958940128        0.46468826606307       -0.09084405552280
C            1.38935578961616        1.10935023412895       -0.68041420427497
H            2.11783009854295        2.06338490700514        1.82026587119791
H            0.87615237431816        2.80685406051235        2.82491070178721
H            1.07093492803460        3.31732817140668        1.14495363198443
H            0.21558716097760        0.49540250448632        1.95636711885812
H           -1.67630644781802        0.62090865638428        3.32044534486533
H           -3.86231165354988        1.58740887347363        3.89430752568712
H           -4.72354657094047        3.52610457700307        2.64110113207048
H           -3.38322951465889        4.49305044707450        0.80357152748384
H           -1.20963168392422        3.52351241319326        0.21535825058847
H           -1.96324085050039       -0.28196295095982        0.72196938799524
H           -4.52410597996193        1.75890926198760       -0.44152939995325
H           -6.42073879955490        3.00640040837138        0.45414037703077
H           -8.29624013320906        1.79650217344726        1.53935002063938
H           -8.22864107138730       -0.63601830212354        1.70187280882191
H           -6.41698519982993       -3.80462130470193        2.48561167470526
H           -5.53335419937954       -2.32177176661319        2.84997361611356
H           -7.29678130581383       -2.31489158491897        2.81014367890238
H           -7.64520137700739       -4.00900339111079        0.21609555938890
H           -7.54621965631366       -2.67736562491908       -0.93626828445456
H           -8.50653296740829       -2.50630012111262        0.53320397003722
H           -5.71615968596810       -4.98593198857125        0.74761361058225
H           -3.76643077122291       -6.08177829521974       -0.22547674254028
H           -2.01867644047933       -4.71796755174757       -1.33761282068634
H           -2.25466272156539       -2.28520095439351       -1.43851436133008
H           -4.16339706822452        0.16161859876578       -2.90123126938424
H           -2.28496581344779        1.52807301564783       -3.85662226369437
H            2.81025189791653        1.92132774446502       -3.64696824872251
H            4.77550096478025        0.79305469353811       -2.56388428233467
H            4.34394563612488        2.22303782641832        0.59507104349519
H            5.52326540232161        3.46718390655142        2.33375141936696
H            7.38972942256223        2.39619997942998        3.56885613001128
H            8.05065785178654        0.11447716105026        3.01493152866558
H            9.13296928293555       -1.07035499353469        1.47012314622199
H            8.56029944987492       -0.89194667291839       -0.18841783621861
H            8.87607563086449       -2.49713874397413        0.47098762450426
H            5.89595008190259       -2.49490285068789        2.78706026398978
H            7.28320588738623       -3.45337677403066        2.27019836223433
H            7.52696975437715       -2.01983574076777        3.26209322358924
H            7.31941704005781       -4.03993166563071        0.12919539960108
H            6.00078817324633       -5.16644105161514       -1.58595484744918
H            4.06166483871190       -4.00260752499560       -2.60495085189309
H            3.50435532929522       -1.72799178659864       -1.90788021032741
H            2.39244980375866        0.01320326619027        0.88523472423685

          :  Hamiltonian                  GFN2-xTB          :
         :: gradient norm              0.000086058717 Eh/a0 ::
         :: HOMO-LUMO gap              2.285472158362 eV    ::
         :: SCC energy              -151.767921481659 Eh    ::
         :: -> dispersion             -0.153095554367 Eh    ::
         :: repulsion energy           2.545914573931 Eh    ::

    * Orbital Energies and Occupations

         #    Occupation            Energy/Eh            Energy/eV
      -------------------------------------------------------------
         1        2.0000           -0.7703417             -20.9621
       ...           ...                  ...                  ...
       126        2.0000           -0.4106776             -11.1751
       127        2.0000           -0.4088926             -11.1265
       128        2.0000           -0.4067524             -11.0683
       129        2.0000           -0.4055302             -11.0350
       130        2.0000           -0.4053275             -11.0295
       131        2.0000           -0.4044862             -11.0066
       132        2.0000           -0.4011456             -10.9157
       133        2.0000           -0.3989918             -10.8571
       134        2.0000           -0.3958339             -10.7712
       135        2.0000           -0.3936019             -10.7105
       136        2.0000           -0.3817934             -10.3891
       137        2.0000           -0.3509337              -9.5494
       138        2.0000           -0.3486981              -9.4886 (HOMO)
       139                         -0.2647085              -7.2031 (LUMO)
       140                         -0.2571947              -6.9986
       141                         -0.2528784              -6.8812
       142                         -0.2430466              -6.6136
       143                         -0.2308766              -6.2825
       144                         -0.2283919              -6.2149
       145                         -0.2273694              -6.1870
       146                         -0.2251328              -6.1262
       147                         -0.2223282              -6.0499
       148                         -0.2212632              -6.0209
       149                         -0.2206203              -6.0034
       ...                                ...                  ...
       272                          1.2190206              33.1712
      -------------------------------------------------------------
                  HL-Gap            0.0839895 Eh            2.2855 eV

     #   Z          covCN         q      C6AA      α(0)
     1   6 C        3.759    -0.112    22.694     6.791
     2   6 C        3.797     0.044    19.839     6.342
     3   6 C        2.979     0.003    27.947     8.672
     4   6 C        2.924    -0.038    28.946     8.823
     5   6 C        2.919    -0.029    28.725     8.789
     6   6 C        2.920    -0.028    28.698     8.785
     7   6 C        2.920    -0.026    28.655     8.778
     8   6 C        2.923    -0.038    28.934     8.821
     9   7 N        2.751    -0.089    22.982     7.120
    10   6 C        2.993     0.067    26.481     8.441
    11   6 C        2.928    -0.058    29.443     8.899
    12   6 C        2.928     0.077    26.291     8.409
    13   7 N        2.756    -0.071    22.610     7.062
    14   6 C        2.930     0.057    26.715     8.476
    15   6 C        2.924    -0.058    29.452     8.900
    16   6 C        2.920    -0.032    28.793     8.799
    17   6 C        2.917    -0.045    29.108     8.847
    18   6 C        2.928    -0.036    28.907     8.817
    19   6 C        2.979    -0.013    28.344     8.733
    20   6 C        3.909     0.021    20.161     6.382
    21   6 C        3.761    -0.103    22.523     6.765
    22   6 C        3.761    -0.104    22.531     6.767
    23   6 C        2.979    -0.014    28.344     8.733
    24   6 C        2.928    -0.036    28.896     8.816
    25   6 C        2.917    -0.045    29.114     8.848
    26   6 C        2.920    -0.033    28.819     8.803
    27   6 C        2.924    -0.060    29.488     8.905
    28   6 C        2.928     0.057    26.711     8.476
    29   6 C        2.922    -0.044    29.101     8.846
    30   6 C        2.945    -0.023    28.589     8.770
    31   6 C        2.976    -0.104    30.623     9.077
    32  16 S        3.869     0.976   107.355    17.439
    33   8 O        0.860    -0.537    24.625     6.653
    34   8 O        0.860    -0.556    25.050     6.710
    35   6 C        2.976    -0.103    30.603     9.074
    36   6 C        2.945    -0.023    28.576     8.768
    37   6 C        2.922    -0.044    29.098     8.846
    38   6 C        2.927     0.076    26.301     8.410
    39   7 N        2.755    -0.070    22.603     7.061
    40   6 C        2.928     0.057    26.724     8.478
    41   6 C        2.924    -0.061    29.515     8.909
    42   6 C        2.920    -0.033    28.825     8.804
    43   6 C        2.917    -0.044    29.099     8.846
    44   6 C        2.928    -0.036    28.892     8.815
    45   6 C        2.979    -0.013    28.339     8.732
    46   6 C        3.909     0.021    20.160     6.382
    47   6 C        3.761    -0.104    22.529     6.766
    48   6 C        3.761    -0.104    22.527     6.766
    49   6 C        2.979    -0.013    28.338     8.732
    50   6 C        2.928    -0.036    28.892     8.815
    51   6 C        2.917    -0.044    29.095     8.845
    52   6 C        2.920    -0.033    28.811     8.802
    53   6 C        2.924    -0.060    29.481     8.904
    54   6 C        2.928     0.057    26.719     8.477
    55   6 C        2.927    -0.058    29.442     8.898
    56   6 C        2.989     0.067    26.481     8.441
    57   1 H        0.925     0.049     2.334     2.389
    58   1 H        0.925     0.052     2.297     2.370
    59   1 H        0.925     0.058     2.219     2.329
    60   1 H        0.923     0.034     2.526     2.486
    61   1 H        0.925     0.026     2.637     2.539
    62   1 H        0.926     0.034     2.528     2.486
    63   1 H        0.926     0.037     2.491     2.468
    64   1 H        0.926     0.039     2.468     2.457
    65   1 H        0.926     0.055     2.255     2.348
    66   1 H        0.926     0.056     2.244     2.343
    67   1 H        0.926     0.021     2.711     2.575
    68   1 H        0.926     0.029     2.598     2.520
    69   1 H        0.926     0.028     2.618     2.530
    70   1 H        0.926     0.031     2.566     2.505
    71   1 H        0.925     0.040     2.450     2.448
    72   1 H        0.925     0.031     2.579     2.511
    73   1 H        0.925     0.040     2.448     2.447
    74   1 H        0.925     0.040     2.449     2.447
    75   1 H        0.925     0.032     2.555     2.500
    76   1 H        0.925     0.040     2.447     2.446
    77   1 H        0.926     0.031     2.567     2.506
    78   1 H        0.926     0.027     2.622     2.532
    79   1 H        0.926     0.028     2.617     2.530
    80   1 H        0.926     0.019     2.742     2.589
    81   1 H        0.926     0.059     2.206     2.323
    82   1 H        0.926     0.066     2.126     2.280
    83   1 H        0.926     0.067     2.123     2.279
    84   1 H        0.926     0.059     2.213     2.326
    85   1 H        0.926     0.022     2.702     2.571
    86   1 H        0.926     0.029     2.594     2.519
    87   1 H        0.926     0.028     2.614     2.528
    88   1 H        0.926     0.032     2.563     2.504
    89   1 H        0.925     0.040     2.447     2.446
    90   1 H        0.925     0.032     2.555     2.500
    91   1 H        0.925     0.040     2.447     2.446
    92   1 H        0.925     0.031     2.575     2.509
    93   1 H        0.925     0.040     2.447     2.446
    94   1 H        0.925     0.040     2.447     2.446
    95   1 H        0.926     0.032     2.563     2.503
    96   1 H        0.926     0.028     2.614     2.528
    97   1 H        0.926     0.029     2.605     2.524
    98   1 H        0.926     0.021     2.717     2.578
    99   1 H        0.926     0.055     2.256     2.349

molecular dipole:
                 x           y           z       tot (Debye)
 q only:        0.025      -1.494       1.655
   full:        0.071      -1.460       1.554       5.423

 projected vibrational frequencies (cm⁻¹)
eigval :       -0.00    -0.00    -0.00     0.00     0.00     0.00
eigval :        8.18    10.81    12.03    14.44    18.91    26.67
eigval :       34.08    40.38    47.66    47.82    57.82    67.49
eigval :       85.51    95.47    97.97    99.12   102.27   107.66
eigval :      109.58   120.61   124.18   128.54   129.29   141.80
eigval :      150.12   167.27   185.26   189.69   190.26   190.99
eigval :      201.50   219.63   220.25   220.34   228.99   232.18
eigval :      239.15   240.86   260.89   279.98   297.10   305.66
eigval :      307.22   311.05   318.48   325.90   330.81   331.59
eigval :      333.82   345.72   347.45   361.51   376.26   377.15
eigval :      378.16   382.47   391.50   396.46   412.65   413.66
eigval :      424.16   437.44   449.81   450.57   452.33   453.20
eigval :      469.77   489.73   496.96   503.15   515.49   516.13
eigval :      524.31   527.51   541.73   545.64   547.96   548.26
eigval :      556.42   562.88   570.59   584.77   586.49   587.53
eigval :      599.24   610.45   634.88   640.62   648.47   663.00
eigval :      671.28   682.07   682.25   682.66   684.25   693.22
eigval :      693.40   697.01   703.12   713.30   752.47   765.48
eigval :      777.31   777.66   779.31   779.75   789.64   805.25
eigval :      818.61   821.13   828.46   830.24   866.26   866.82
eigval :      866.96   870.75   871.02   880.86   884.99   886.15
eigval :      911.45   912.87   913.39   913.46   914.41   914.58
eigval :      914.69   916.75   916.97   921.14   921.54   922.51
eigval :      922.85   931.65   938.31   938.78   946.63   949.71
eigval :      957.18   957.33   979.19   998.26  1014.25  1014.37
eigval :     1015.55  1027.85  1049.05  1070.01  1077.31  1077.47
eigval :     1085.31  1086.12  1087.49  1091.34  1104.02  1113.43
eigval :     1113.64  1119.42  1119.45  1124.03  1135.62  1140.89
eigval :     1141.16  1149.34  1150.60  1160.81  1161.04  1168.67
eigval :     1168.92  1182.64  1186.37  1186.81  1187.60  1187.92
eigval :     1189.24  1193.85  1202.08  1210.51  1221.46  1223.10
eigval :     1239.48  1240.76  1242.90  1249.78  1250.41  1263.71
eigval :     1267.26  1269.92  1272.43  1285.22  1289.66  1294.61
eigval :     1294.63  1305.00  1313.90  1316.09  1324.21  1325.53
eigval :     1328.66  1330.57  1333.14  1335.36  1337.83  1344.16
eigval :     1346.77  1402.35  1402.91  1407.64  1410.92  1420.33
eigval :     1420.99  1434.63  1435.91  1436.73  1441.41  1442.01
eigval :     1444.01  1445.06  1460.27  1475.83  1481.02  1481.92
eigval :     1488.09  1489.73  1489.87  1490.63  1490.66  1490.70
eigval :     1496.00  1496.85  1500.17  1500.30  1505.17  1505.31
eigval :     1549.92  1556.20  1572.80  1576.14  1576.36  1587.57
eigval :     1591.48  1591.74  1593.07  1593.25  1593.58  1602.49
eigval :     1602.77  1603.14  2851.92  3026.77  3026.99  3029.51
eigval :     3029.89  3039.82  3040.21  3040.52  3042.88  3043.28
eigval :     3046.40  3048.94  3049.34  3052.70  3053.48  3056.72
eigval :     3059.36  3078.37  3079.25  3079.68  3080.21  3081.86
eigval :     3082.99  3084.21  3084.50  3084.57  3085.31  3092.03
eigval :     3092.46  3093.93  3094.25  3094.86  3098.82  3099.94
eigval :     3100.24  3100.77  3101.31  3101.43  3102.25  3104.41
eigval :     3110.35  3110.81  3119.02

   temp. (K)  partition function   enthalpy   heat capacity  entropy
                                   cal/mol     cal/K/mol   cal/K/mol   J/K/mol
 298.15  VIB  0.235E+23            28862.358    180.638    179.428
         ROT  0.116E+09              888.752      2.981     39.878
         INT  0.272E+31            29751.111    183.619    219.307
         TR   0.199E+29             1481.254      4.968     45.703
         TOT                       31232.3644   188.5870   265.0100  1108.8019

       T/K    H(0)-H(T)+PV         H(T)/Eh          T*S/Eh         G(T)/Eh
   ------------------------------------------------------------------------
    298.15    0.497719E-01    0.833827E+00    0.125915E+00    0.707912E+00
   ------------------------------------------------------------------------

         :::::::::::::::::::::::::::::::::::::::::::::::::::::
         ::                  THERMODYNAMIC                  ::
         :::::::::::::::::::::::::::::::::::::::::::::::::::::
         :: total free energy        -148.514095081900 Eh   ::
         ::.................................................::
         :: total energy             -149.222006907722 Eh   ::
         :: zero point energy           0.784054696578 Eh   ::
         :: G(RRHO) w/o ZPVE           -0.076142870756 Eh   ::
         :: G(RRHO) contrib.            0.707911825823 Eh   ::
         :::::::::::::::::::::::::::::::::::::::::::::::::::::

           -------------------------------------------------
          | TOTAL ENERGY             -149.222006907722 Eh   |
          | TOTAL ENTHALPY           -148.388180270291 Eh   |
          | TOTAL FREE ENERGY        -148.514095081900 Eh   |
          | GRADIENT NORM               0.000086001580 Eh/α |
          | HOMO-LUMO GAP               2.285471196588 eV   |
           -------------------------------------------------

 * finished run on 2025/09/13 at 15:05:30.125
