   * xtb version 6.7.1 (edcfbbe) compiled by 'albert@albert-system' on 2024-07-22

   ID    Z sym.   atoms
    1    6 C      1-20, 22-25, 27, 28, 30, 32-34, 36-56
    2    7 N      21, 29, 31, 35
    3    8 O      26
    4    1 H      57-110

          program call               : xtb data2507/toluene/35tCzBPym/35tCzBPym_toluene_T1_crest.xyz --gfn 2 --uhf 2 --gbsa toluene --ohess vtight --parallel 40 --molden --ceasefiles --namespace data2507/toluene/35tCzBPym/35tCzBPym_toluene_T1_finalOpt
      * Solvation model:               GBSA
        Solvent                        toluene
        Solvent mass                       9.2140E+01 g/mol
          :  Hamiltonian                  GFN2-xTB          :
 * total energy  :  -152.6306426 Eh     change       -0.2958814E-08 Eh
 * total energy  :  -152.6308998 Eh     change       -0.2571750E-03 Eh
 * total energy  :  -152.6310153 Eh     change       -0.1155023E-03 Eh
 * total energy  :  -152.6310313 Eh     change       -0.1603735E-04 Eh
 * total energy  :  -152.6310461 Eh     change       -0.1477974E-04 Eh
 * total energy  :  -152.6310560 Eh     change       -0.9959187E-05 Eh
 * total energy  :  -152.6310652 Eh     change       -0.9121648E-05 Eh
 * total energy  :  -152.6310714 Eh     change       -0.6198411E-05 Eh
 * total energy  :  -152.6310740 Eh     change       -0.2662525E-05 Eh
 * total energy  :  -152.6310778 Eh     change       -0.3745514E-05 Eh
 * total energy  :  -152.6311231 Eh     change       -0.7129636E-06 Eh
 * total energy  :  -152.6311238 Eh     change       -0.6527395E-06 Eh
 * total energy  :  -152.6311245 Eh     change       -0.7053538E-06 Eh
 * total energy  :  -152.6311252 Eh     change       -0.7095323E-06 Eh
 * total energy  :  -152.6311258 Eh     change       -0.6398551E-06 Eh
 * total energy  :  -152.6311267 Eh     change       -0.8618729E-06 Eh
 * total energy  :  -152.6311273 Eh     change       -0.6562680E-06 Eh
 * total energy  :  -152.6311276 Eh     change       -0.2941191E-06 Eh
 * total energy  :  -152.6311276 Eh     change       -0.7574101E-09 Eh
   *** GEOMETRY OPTIMIZATION CONVERGED AFTER 44 ITERATIONS ***

 final structure:
================
110
 xtb: 6.7.1 (edcfbbe)
C           -4.69703043392757       -5.38962377261381       -3.19278655155588
C           -3.27828103678668       -4.86053477988968       -3.42397754901740
C           -3.12897995517077       -4.52988363898069       -4.91699011054893
C           -2.28633709217188       -5.96753565934973       -3.03453882556859
C           -2.97706841707676       -3.61522505727812       -2.60485831629232
C           -1.71332657070722       -3.01949740067791       -2.71347607953573
C           -1.34922910522907       -1.89488825577403       -1.99992197730523
C           -2.28188755585546       -1.34456281390855       -1.13144545496202
C           -3.57214700317053       -1.90849678634132       -1.02464997472039
C           -3.91219698314506       -3.03627990346472       -1.75379252611111
C           -4.30155571386328       -1.08341155876552       -0.09427443267409
C           -5.58924798859341       -1.14049616073694        0.41354791446522
C           -6.01145799748071       -0.18646389506703        1.33346564390890
C           -7.41591287638281       -0.17774203746725        1.91579395107850
C           -8.28931102056325       -1.31056716929692        1.36774033134746
C           -8.09143268107448        1.15783331026910        1.56797333687296
C           -7.33030205544843       -0.33492589950297        3.44174571495157
C           -5.10138303656140        0.79819225484077        1.74188628132778
C           -3.81240786437055        0.87352436097082        1.25495360579843
C           -3.41454358251516       -0.06187025059181        0.31044496170646
N           -2.19745971236088       -0.23224417447689       -0.31661738056736
C           -1.08444746764366        0.61025888171063       -0.20205228966518
C           -1.23537428401553        1.98035831684634       -0.38333659564865
C           -0.12186165221215        2.82640232546024       -0.32303472247471
C           -0.19744002116336        4.27520480613482       -0.58143768903250
O            0.77677757498585        4.85534230171943       -1.14064018960358
C           -1.37048942720797        4.99349888045341       -0.18289886348636
C           -1.58400980875892        6.32535105278129       -0.63903000717423
N           -2.62676281941352        7.02663297624077       -0.29916576321287
C           -3.51975182210442        6.49506459157165        0.53300714858725
N           -3.37890169574311        5.29756454367916        1.09600331424443
C           -2.33936545443712        4.57706330143466        0.76301405911451
C            1.14108456839317        2.26078260540588       -0.11613772592726
C            1.29036941933316        0.89248527380975        0.05376355932221
N            2.56259319787316        0.35386070644414        0.27116901360723
C            2.90847179784849       -0.53302195717175        1.27090867136516
C            2.14395202705682       -1.07470079995649        2.29542128867056
C            2.76343306770705       -1.93394853849338        3.18097106891484
C            4.12087751216064       -2.27064562537647        3.09290935544344
C            4.70940162325328       -3.23251414350651        4.11297154249893
C            6.19635634418492       -3.51060636185140        3.87223236571046
C            4.55684910785989       -2.62902108698003        5.51773223734217
C            3.95534909736405       -4.56911660355470        4.03651581160195
C            4.88182743456153       -1.69942526460144        2.07834956769052
C            4.28527382375049       -0.83320862903547        1.17689346480399
C            4.79017541727075       -0.07996175969458        0.05569520112313
C            6.04262402851856        0.02099069958467       -0.52733917158261
C            6.22132524185523        0.83685388588591       -1.63962642695063
C            7.56971629062155        1.00319529072101       -2.32253618796082
C            7.45607184206537        0.53818521205057       -3.78251612038968
C            7.97207020388905        2.48548664328808       -2.27927657104302
C            8.67814261743026        0.18905844450595       -1.64785602338476
C            5.11168561785379        1.52392612638936       -2.15065948951471
C            3.85224954467798        1.43892265700095       -1.59148161616186
C            3.69420778124374        0.64257145413667       -0.46502040098218
C            0.17417611064250        0.05740261669579        0.02677782640916
H           -4.85229144412056       -6.28144157078454       -3.79657781578933
H           -4.84936208375998       -5.66039563073046       -2.15052246360582
H           -5.44264314928125       -4.65403449301586       -3.48587096575711
H           -3.80843371625673       -3.72633884389897       -5.19478455356788
H           -3.36643922358252       -5.40526938937589       -5.51775162709776
H           -2.11653128133960       -4.21779389348338       -5.15748900637278
H           -1.26067556877867       -5.67374101073143       -3.23923748659661
H           -2.49942292314220       -6.87318802829012       -3.59826508779477
H           -2.37185377116558       -6.19344136278868       -1.97340311026319
H           -0.98361647970735       -3.44560425002259       -3.38409538743831
H           -0.37228495386553       -1.45496431788460       -2.12973124783652
H           -4.90374449842221       -3.44205342040503       -1.64836497656687
H           -6.24221106981303       -1.93098969899310        0.08506116956416
H           -8.40024050806769       -1.23257440256676        0.28860108861105
H           -9.28088104270119       -1.24769443591142        1.81129693372858
H           -7.87236477035266       -2.28351178962630        1.61748372541326
H           -7.54952777370791        2.00074345394051        1.98775599758926
H           -9.10575932250295        1.17591512015807        1.96091399366170
H           -8.13726590447125        1.28714376937324        0.48825824442812
H           -6.82742464197789       -1.26566095601844        3.69714005161971
H           -8.33008613812220       -0.35380269582619        3.87013422566353
H           -6.78214399010136        0.48542177765798        3.89645947037923
H           -5.40562816931443        1.53589615189584        2.46761174565597
H           -3.13723001118133        1.63651471235503        1.60907356090801
H           -2.20571605566821        2.37328579376721       -0.64550888903805
H           -0.85231926145470        6.77773242740016       -1.29683530380722
H           -4.39000000379021        7.07879571702781        0.78557090943426
H           -2.22344212419167        3.63982395633150        1.29259714226459
H            1.99515234191671        2.91881895078778       -0.06783126095807
H            1.10070080726707       -0.82459216395757        2.41205677309175
H            2.16497122565176       -2.35346848818942        3.97441217687990
H            6.55872863216756       -4.20981073597246        4.62310752661200
H            6.35812890774258       -3.95651541999638        2.89348658764026
H            6.78434947220703       -2.59929885183734        3.95380948333650
H            3.51266838679391       -2.47185878950699        5.77331014266293
H            5.06958724344955       -1.67068370282877        5.57378020904987
H            4.99162614868660       -3.29655270380317        6.25859868826432
H            4.38025694133565       -5.27661212080347        4.74527936163843
H            2.90153236962723       -4.44681167734512        4.27008655921686
H            4.03743448372913       -4.99077834416917        3.03663355770215
H            5.93266379957346       -1.91024200942879        1.97719688658901
H            6.85865914912840       -0.54104279274836       -0.10630227244243
H            7.14739319920345       -0.50460342631887       -3.82313708723755
H            8.41944811055784        0.63309609479158       -4.27883171265307
H            6.73092920398216        1.13041823963007       -4.33357221509485
H            8.94179139079032        2.62234541680592       -2.75310059897814
H            7.24967210421492        3.11047390332439       -2.79700818427269
H            8.04019561815715        2.82754055353556       -1.24828531771547
H            8.81704595267945        0.49794082910312       -0.61434822591267
H            8.45740694700617       -0.87538592610460       -1.67918718272294
H            9.61605426145817        0.35212728504951       -2.17476410058481
H            5.23054357274256        2.15023606028564       -3.02104148912053
H            3.02267117150834        1.97868915040430       -2.02264669386738
H            0.28443259312420       -1.00694483876131        0.15752621003854

          :  Hamiltonian                  GFN2-xTB          :
         :: gradient norm              0.000040130475 Eh/a0 ::
         :: HOMO-LUMO gap              0.887879345057 eV    ::
         :: SCC energy              -155.185454290950 Eh    ::
         :: -> dispersion             -0.138075552871 Eh    ::
         :: -> Gsolv                  -0.073296964575 Eh    ::
         :: repulsion energy           2.554326669355 Eh    ::

    * Orbital Energies and Occupations

         #    Occupation            Energy/Eh            Energy/eV
      -------------------------------------------------------------
         1        2.0000           -0.6894113             -18.7598
       ...           ...                  ...                  ...
       131        2.0000           -0.4175017             -11.3608
       132        2.0000           -0.4148874             -11.2897
       133        2.0000           -0.4145625             -11.2808
       134        2.0000           -0.4134028             -11.2493
       135        2.0000           -0.4074723             -11.0879
       136        2.0000           -0.4074273             -11.0867
       137        2.0000           -0.3855936             -10.4925
       138        2.0000           -0.3855365             -10.4910
       139        1.9995           -0.3761097             -10.2345
       140        1.9273           -0.3713530             -10.1050
       141        1.8773           -0.3708027             -10.0901
       142        1.1958           -0.3675917             -10.0027
       143        1.0000           -0.2939388              -7.9985 (HOMO)
       144                         -0.2613101              -7.1106 (LUMO)
       145                         -0.2549114              -6.9365
       146                         -0.2537283              -6.9043
       147                         -0.2488151              -6.7706
       148                         -0.2444463              -6.6517
       149                         -0.2306497              -6.2763
       150                         -0.2306023              -6.2750
       151                         -0.2094203              -5.6986
       152                         -0.1983914              -5.3985
       153                         -0.1951917              -5.3114
       154                         -0.1951591              -5.3105
       ...                                ...                  ...
       278                          0.7299840              19.8639
      -------------------------------------------------------------
                  HL-Gap            0.0326287 Eh            0.8879 eV

     #   Z          covCN         q      C6AA      α(0)
     1   6 C        3.761    -0.110    22.647     6.784
     2   6 C        3.903     0.027    20.068     6.368
     3   6 C        3.761    -0.107    22.582     6.774
     4   6 C        3.761    -0.107    22.591     6.776
     5   6 C        2.973     0.010    27.789     8.647
     6   6 C        2.929    -0.037    28.909     8.818
     7   6 C        2.908    -0.046    29.145     8.852
     8   6 C        3.076     0.044    26.944     8.510
     9   6 C        3.064    -0.013    28.281     8.720
    10   6 C        2.917    -0.039    28.967     8.826
    11   6 C        3.064    -0.014    28.294     8.723
    12   6 C        2.917    -0.039    28.973     8.827
    13   6 C        2.973     0.010    27.779     8.645
    14   6 C        3.903     0.027    20.067     6.368
    15   6 C        3.761    -0.110    22.649     6.784
    16   6 C        3.761    -0.106    22.581     6.774
    17   6 C        3.761    -0.107    22.589     6.775
    18   6 C        2.929    -0.036    28.889     8.815
    19   6 C        2.908    -0.045    29.107     8.847
    20   6 C        3.076     0.044    26.942     8.510
    21   7 N        2.803    -0.020    21.634     6.908
    22   6 C        2.909     0.064    26.558     8.450
    23   6 C        2.922    -0.051    29.271     8.872
    24   6 C        2.968    -0.011    28.287     8.724
    25   6 C        2.830     0.166    24.416     8.097
    26   8 O        0.858    -0.535    24.564     6.645
    27   6 C        2.957    -0.045    29.116     8.850
    28   6 C        2.922     0.078    26.268     8.405
    29   7 N        1.833    -0.219    26.624     7.646
    30   6 C        2.901     0.117    25.426     8.268
    31   7 N        1.832    -0.233    26.954     7.694
    32   6 C        2.923     0.062    26.607     8.459
    33   6 C        2.928    -0.038    28.946     8.823
    34   6 C        2.909     0.064    26.563     8.451
    35   7 N        2.803    -0.018    21.593     6.901
    36   6 C        3.074     0.044    26.939     8.510
    37   6 C        2.908    -0.046    29.142     8.852
    38   6 C        2.929    -0.037    28.909     8.818
    39   6 C        2.973     0.010    27.778     8.645
    40   6 C        3.903     0.027    20.067     6.368
    41   6 C        3.761    -0.110    22.648     6.784
    42   6 C        3.761    -0.107    22.585     6.775
    43   6 C        3.761    -0.107    22.595     6.776
    44   6 C        2.917    -0.039    28.962     8.825
    45   6 C        3.064    -0.013    28.273     8.719
    46   6 C        3.064    -0.014    28.291     8.722
    47   6 C        2.917    -0.039    28.975     8.827
    48   6 C        2.973     0.010    27.779     8.645
    49   6 C        3.903     0.027    20.067     6.368
    50   6 C        3.761    -0.107    22.584     6.775
    51   6 C        3.761    -0.106    22.572     6.773
    52   6 C        3.761    -0.110    22.653     6.785
    53   6 C        2.930    -0.036    28.887     8.814
    54   6 C        2.907    -0.043    29.077     8.842
    55   6 C        3.075     0.045    26.915     8.506
    56   6 C        2.923    -0.069    29.714     8.939
    57   1 H        0.925     0.040     2.448     2.447
    58   1 H        0.925     0.039     2.459     2.452
    59   1 H        0.925     0.038     2.473     2.459
    60   1 H        0.925     0.034     2.529     2.487
    61   1 H        0.925     0.042     2.424     2.435
    62   1 H        0.925     0.038     2.476     2.461
    63   1 H        0.925     0.039     2.467     2.456
    64   1 H        0.925     0.042     2.424     2.435
    65   1 H        0.925     0.036     2.505     2.475
    66   1 H        0.926     0.042     2.418     2.432
    67   1 H        0.926     0.036     2.501     2.473
    68   1 H        0.926     0.053     2.282     2.362
    69   1 H        0.926     0.054     2.274     2.358
    70   1 H        0.925     0.039     2.468     2.457
    71   1 H        0.925     0.040     2.444     2.445
    72   1 H        0.925     0.040     2.453     2.449
    73   1 H        0.925     0.038     2.476     2.461
    74   1 H        0.925     0.042     2.421     2.433
    75   1 H        0.925     0.034     2.533     2.489
    76   1 H        0.925     0.036     2.505     2.475
    77   1 H        0.925     0.042     2.419     2.432
    78   1 H        0.925     0.038     2.473     2.459
    79   1 H        0.926     0.042     2.416     2.431
    80   1 H        0.926     0.030     2.583     2.513
    81   1 H        0.926     0.042     2.422     2.434
    82   1 H        0.925     0.045     2.378     2.411
    83   1 H        0.926     0.040     2.454     2.449
    84   1 H        0.925     0.039     2.458     2.452
    85   1 H        0.926     0.051     2.307     2.375
    86   1 H        0.926     0.038     2.480     2.462
    87   1 H        0.926     0.043     2.406     2.426
    88   1 H        0.925     0.040     2.447     2.446
    89   1 H        0.925     0.039     2.460     2.453
    90   1 H        0.925     0.038     2.472     2.459
    91   1 H        0.925     0.038     2.472     2.459
    92   1 H        0.925     0.034     2.526     2.485
    93   1 H        0.925     0.042     2.421     2.433
    94   1 H        0.925     0.042     2.423     2.434
    95   1 H        0.925     0.039     2.462     2.454
    96   1 H        0.925     0.036     2.505     2.475
    97   1 H        0.926     0.053     2.279     2.361
    98   1 H        0.926     0.054     2.265     2.354
    99   1 H        0.925     0.036     2.502     2.474
   100   1 H        0.925     0.042     2.418     2.432
   101   1 H        0.925     0.037     2.485     2.465
   102   1 H        0.925     0.042     2.420     2.433
   103   1 H        0.925     0.037     2.496     2.471
   104   1 H        0.925     0.034     2.527     2.486
   105   1 H        0.925     0.039     2.462     2.454
   106   1 H        0.925     0.040     2.448     2.447
   107   1 H        0.925     0.041     2.440     2.443
   108   1 H        0.926     0.040     2.454     2.450
   109   1 H        0.926     0.034     2.524     2.484
   110   1 H        0.926     0.059     2.213     2.326

molecular dipole:
                 x           y           z       tot (Debye)
 q only:        0.423      -6.082       0.857
   full:        0.556      -5.872       0.748      15.113

 projected vibrational frequencies (cm⁻¹)
eigval :       -0.00    -0.00    -0.00     0.00     0.00     0.00
eigval :        9.73    10.52    13.05    14.50    23.31    24.40
eigval :       31.12    32.73    33.05    36.68    44.42    48.11
eigval :       60.61    62.52    67.52    72.96    78.81    85.79
eigval :       87.75   106.84   112.18   124.98   145.21   152.78
eigval :      156.30   160.62   172.22   172.48   183.06   185.14
eigval :      192.40   198.36   202.11   206.86   215.58   217.86
eigval :      221.27   226.09   228.71   231.63   234.36   242.43
eigval :      249.99   256.88   256.95   272.71   282.22   286.47
eigval :      293.20   314.59   316.35   316.44   324.44   325.33
eigval :      325.80   334.26   336.63   340.61   347.13   351.13
eigval :      356.13   356.42   365.37   369.94   382.16   392.69
eigval :      393.92   397.48   402.94   404.31   405.53   423.05
eigval :      439.32   440.45   441.64   442.04   455.97   461.24
eigval :      461.53   463.28   465.01   465.20   498.12   510.11
eigval :      517.45   534.72   544.00   574.44   576.93   583.56
eigval :      585.39   590.46   593.94   597.52   616.84   625.93
eigval :      636.15   640.99   642.77   643.29   659.23   666.61
eigval :      670.35   691.39   692.81   699.50   708.85   709.61
eigval :      715.69   718.57   758.16   764.83   781.01   813.86
eigval :      818.47   823.37   825.80   826.42   829.92   831.49
eigval :      839.15   859.23   864.71   865.19   867.52   870.89
eigval :      871.89   872.33   878.49   886.13   900.14   917.29
eigval :      917.45   919.89   921.04   923.36   925.45   929.60
eigval :      931.54   958.24   958.71   958.81   959.01   960.58
eigval :      961.48   961.86   962.20   962.55   963.22   963.35
eigval :      963.78   964.54   984.32  1023.65  1027.82  1031.54
eigval :     1032.46  1032.84  1033.00  1034.11  1034.14  1035.57
eigval :     1037.76  1041.35  1043.64  1106.92  1108.98  1113.82
eigval :     1125.53  1126.10  1135.11  1135.53  1144.42  1156.68
eigval :     1158.96  1159.99  1186.04  1211.81  1218.52  1220.52
eigval :     1222.17  1222.27  1222.36  1222.56  1225.16  1226.51
eigval :     1226.82  1227.07  1227.53  1227.86  1230.35  1231.54
eigval :     1240.06  1249.55  1255.72  1265.72  1276.52  1278.24
eigval :     1286.12  1287.16  1287.53  1292.80  1300.49  1328.70
eigval :     1329.77  1330.86  1336.09  1346.88  1347.70  1352.21
eigval :     1371.10  1398.02  1398.61  1400.55  1401.16  1401.84
eigval :     1401.97  1402.46  1403.35  1405.45  1406.51  1416.99
eigval :     1422.20  1425.11  1425.95  1426.18  1426.96  1436.72
eigval :     1441.28  1443.99  1457.74  1458.32  1461.40  1473.05
eigval :     1473.56  1486.99  1487.01  1487.74  1488.95  1489.48
eigval :     1489.95  1490.42  1490.89  1494.50  1496.04  1496.42
eigval :     1496.82  1497.30  1500.28  1500.57  1501.09  1502.48
eigval :     1509.76  1510.60  1510.81  1511.21  1512.45  1514.87
eigval :     1515.05  1516.09  1516.58  1552.99  1556.76  1559.66
eigval :     1569.38  1572.02  1572.30  1573.89  1591.01  1603.61
eigval :     3021.93  3022.22  3022.44  3022.49  3022.58  3022.74
eigval :     3023.21  3023.23  3025.47  3026.05  3026.19  3026.48
eigval :     3026.96  3026.99  3027.07  3027.47  3029.64  3029.71
eigval :     3030.10  3030.35  3032.22  3032.71  3033.08  3033.22
eigval :     3033.56  3037.34  3037.69  3037.75  3038.18  3041.60
eigval :     3045.50  3046.07  3046.29  3046.56  3049.00  3049.02
eigval :     3049.70  3049.84  3084.55  3086.67  3087.51  3091.46
eigval :     3095.35  3095.88  3098.08  3099.08  3100.12  3102.04
eigval :     3102.82  3111.78  3123.90  3124.05  3126.62  3126.77

   temp. (K)  partition function   enthalpy   heat capacity  entropy
                                   cal/mol     cal/K/mol   cal/K/mol   J/K/mol
 298.15  VIB  0.190E+26            32340.640    196.909    201.047
         ROT  0.161E+09              888.752      2.981     40.532
         INT  0.305E+34            33229.393    199.890    241.579
         TR   0.194E+29             1481.254      4.968     45.659
         TOT                       34710.6466   204.8579   287.2383  1201.8049

       T/K    H(0)-H(T)+PV         H(T)/Eh          T*S/Eh         G(T)/Eh
   ------------------------------------------------------------------------
    298.15    0.553149E-01    0.960393E+00    0.136476E+00    0.823916E+00
   ------------------------------------------------------------------------

         :::::::::::::::::::::::::::::::::::::::::::::::::::::
         ::                  THERMODYNAMIC                  ::
         :::::::::::::::::::::::::::::::::::::::::::::::::::::
         :: total free energy        -151.807211190208 Eh   ::
         ::.................................................::
         :: total energy             -152.631127626292 Eh   ::
         :: zero point energy           0.905077672087 Eh   ::
         :: G(RRHO) w/o ZPVE           -0.081161236002 Eh   ::
         :: G(RRHO) contrib.            0.823916436084 Eh   ::
         :::::::::::::::::::::::::::::::::::::::::::::::::::::

           -------------------------------------------------
          | TOTAL ENERGY             -152.631127626292 Eh   |
          | TOTAL ENTHALPY           -151.670735017937 Eh   |
          | TOTAL FREE ENERGY        -151.807211190208 Eh   |
          | GRADIENT NORM               0.000038749530 Eh/α |
          | HOMO-LUMO GAP               0.887872137897 eV   |
           -------------------------------------------------

 * finished run on 2025/09/04 at 03:12:57.535
