   * xtb version 6.7.1 (edcfbbe) compiled by 'albert@albert-system' on 2024-07-22

   ID    Z sym.   atoms
    1    6 C      1-20, 22-25, 27, 28, 30, 32-34, 36-56
    2    7 N      21, 29, 31, 35
    3    8 O      26
    4    1 H      57-110

          program call               : xtb data2507/toluene/35tCzBPym/35tCzBPym_toluene_S0_crest.xyz --gfn 2 --gbsa toluene --ohess vtight --parallel 40 --molden --ceasefiles --namespace data2507/toluene/35tCzBPym/35tCzBPym_toluene_S0_finalOpt
      * Solvation model:               GBSA
        Solvent                        toluene
        Solvent mass                       9.2140E+01 g/mol
          :  Hamiltonian                  GFN2-xTB          :
 * total energy  :  -152.6955265 Eh     change       -0.8493714E-08 Eh
 * total energy  :  -152.6956098 Eh     change       -0.8330185E-04 Eh
 * total energy  :  -152.6956630 Eh     change       -0.5318308E-04 Eh
 * total energy  :  -152.6956881 Eh     change       -0.2512434E-04 Eh
 * total energy  :  -152.6957091 Eh     change       -0.2101107E-04 Eh
 * total energy  :  -152.6957366 Eh     change       -0.2745374E-04 Eh
 * total energy  :  -152.6957462 Eh     change       -0.9565919E-05 Eh
 * total energy  :  -152.6957549 Eh     change       -0.8749449E-05 Eh
 * total energy  :  -152.6957578 Eh     change       -0.2934467E-05 Eh
 * total energy  :  -152.6957616 Eh     change       -0.3748002E-05 Eh
 * total energy  :  -152.6958942 Eh     change       -0.6564503E-06 Eh
 * total energy  :  -152.6958948 Eh     change       -0.6739512E-06 Eh
 * total energy  :  -152.6958956 Eh     change       -0.7704159E-06 Eh
 * total energy  :  -152.6958965 Eh     change       -0.8961050E-06 Eh
 * total energy  :  -152.6958975 Eh     change       -0.9982800E-06 Eh
 * total energy  :  -152.6958986 Eh     change       -0.1045389E-05 Eh
 * total energy  :  -152.6958996 Eh     change       -0.1040510E-05 Eh
 * total energy  :  -152.6959006 Eh     change       -0.1000951E-05 Eh
 * total energy  :  -152.6959006 Eh     change       -0.3374566E-08 Eh
   *** GEOMETRY OPTIMIZATION CONVERGED AFTER 68 ITERATIONS ***

 final structure:
================
110
 xtb: 6.7.1 (edcfbbe)
C           -4.40718148173864       -5.65993451497649       -2.98193395062743
C           -3.00151002733037       -5.09820055436065       -3.21669872759893
C           -2.83029212647279       -4.85646331087049       -4.72392779277557
C           -1.98498835598313       -6.14623894872399       -2.73920572904732
C           -2.76114257839841       -3.79332024773931       -2.46997693622775
C           -1.51450418217361       -3.16473729625262       -2.58675202568764
C           -1.20164550925196       -1.98748391866387       -1.93620104458351
C           -2.16791193350375       -1.41393506811934       -1.12468492610157
C           -3.44303596125247       -2.00587320616706       -1.01976578830888
C           -3.73104259554073       -3.19039715956194       -1.68541053591903
C           -4.22724075018589       -1.14711355188104       -0.17327308844578
C           -5.53437426849107       -1.21701052808840        0.29134499919639
C           -6.02238743205434       -0.22706517139202        1.12939752059395
C           -7.44885160102007       -0.22861541341802        1.66147442536773
C           -8.26714555467035       -1.41728457291258        1.14750345409652
C           -8.15232247757116        1.06206603759368        1.21515916411050
C           -7.41604374371337       -0.29926059609538        3.19545941853778
C           -5.15994381606116        0.81048481804137        1.50714586886133
C           -3.85639030529852        0.90191377046815        1.06179338900165
C           -3.39212740271331       -0.07213089786244        0.19225810716680
N           -2.14229461861407       -0.24057107097413       -0.38484951903659
C           -1.06302807357284        0.63223679683984       -0.26477538452031
C           -1.25664557762867        2.00618375266098       -0.39410140475789
C           -0.17085466950459        2.87143256655818       -0.28475507573939
C           -0.33393426204942        4.33288874459623       -0.43430702810489
O            0.56560134458411        5.06501006670468       -0.80492337585712
C           -1.67206394399428        4.88130118990607       -0.09169266685553
C           -2.29824385257843        5.83853582237022       -0.89313902372207
N           -3.47338552634881        6.35513368859150       -0.58455380651854
C           -4.04592477985543        5.92079638044223        0.52461749711222
N           -3.54025391077210        5.04083808589720        1.37044026748958
C           -2.35697454370005        4.53465920515388        1.07464417275925
C            1.10862640941177        2.36887817031272       -0.06387230789461
C            1.30751033371951        0.99716156753656        0.06505662028940
N            2.58543679668665        0.48930851118892        0.28469754434588
C            2.93449351666725       -0.48184742167698        1.21077179667072
C            2.16912969052796       -1.12600087070570        2.17022071365512
C            2.79489839193142       -2.04193158244517        2.99271434954895
C            4.16209653148664       -2.33590362362821        2.90639556758851
C            4.75365967683916       -3.37488537381492        3.84916517230644
C            6.25660370206582       -3.57751837490555        3.63281974235431
C            4.53872527282329       -2.92285869721354        5.30130928082871
C            4.05284045547484       -4.72151437798607        3.61391872852548
C            4.92309886248927       -1.65899688019457        1.96690694983683
C            4.31876047383731       -0.73414088034450        1.12525154901888
C            4.82977615586786        0.12376605718130        0.08993213951771
C            6.09752475388059        0.29874593477924       -0.44985579657294
C            6.28723793615090        1.20135386699349       -1.48382460204912
C            7.64909486379181        1.45267738790741       -2.11665437016238
C            7.58577603771419        1.09643828059439       -3.60951156496704
C            8.01462078655675        2.93534540970288       -1.95007950780829
C            8.75989984110689        0.61508968665755       -1.47525470411427
C            5.17480510942604        1.90149164921056       -1.96938591622109
C            3.90389244740613        1.74622640208060       -1.45233942095938
C            3.73349407594366        0.86345052944530       -0.39749272914649
C            0.21663396883361        0.13498941835803       -0.02729159412686
H           -4.51900225961538       -6.59465143505701       -3.52803420098697
H           -4.57521616357503       -5.86540612278099       -1.92707087718704
H           -5.16931790524841       -4.97063268946431       -3.33852138848980
H           -1.82183093539415       -4.52953033896865       -4.96231300204045
H           -3.52574637756940       -4.09108406367834       -5.06345872930955
H           -3.02963141228065       -5.77327413344500       -5.27505905458169
H           -0.96437700635645       -5.82832177212484       -2.93387230259124
H           -2.15112099781609       -7.09029901282387       -3.25416164596598
H           -2.09141503822422       -6.31339148502665       -1.66896547234415
H           -0.75487414346468       -3.60730023020741       -3.21282114237207
H           -0.23411555255584       -1.52983989197317       -2.07798228208186
H           -4.71493701780961       -3.61505084259856       -1.57867929842557
H           -6.14535339891128       -2.05031093727814       -0.01232660334840
H           -8.33491742907977       -1.40525655549282        0.06193056240022
H           -9.27767265289533       -1.36088372125231        1.54756339112831
H           -7.83197686646158       -2.36091008108450        1.46891556966418
H           -7.65295244776567        1.94374443096424        1.60754922674738
H           -9.18152619422518        1.06880715962724        1.56833308101493
H           -8.15985268066084        1.13000686741911        0.12879040294098
H           -6.89481043662753       -1.19815868123102        3.51939568666645
H           -8.42954387581147       -0.32650435580126        3.59049286431811
H           -6.90828900409270        0.56145064112304        3.62194233993243
H           -5.51329549611542        1.57922713581442        2.17702199888793
H           -3.22479384454920        1.70944213875702        1.39837810343327
H           -2.23936477155627        2.38455702692338       -0.62772964519564
H           -1.83772690924729        6.18270250162939       -1.81045165798903
H           -5.01780446125805        6.33069998526103        0.76674359644664
H           -1.93265008065810        3.84851286343481        1.79705569506691
H            1.93253560523414        3.05844338578719        0.03274475232356
H            1.11687364992963       -0.91647786543573        2.29127148887493
H            2.19127144258012       -2.54366663244594        3.73350377885990
H            6.62324437569884       -4.33340543862994        4.32470201344737
H            6.46391177303653       -3.92006942879066        2.62145340434498
H            6.80651112059031       -2.65770334697416        3.81913017522784
H            3.48212913235969       -2.83553338335621        5.53904587521874
H            5.00649899960267       -1.95402306239642        5.46661136068476
H            4.98270083675227       -3.64223166062926        5.98644771694433
H            4.47436377755103       -5.48254476906395        4.26751727456948
H            2.98678124812240       -4.65474106116558        3.81316625469124
H            4.18716499953784       -5.03998115853410        2.58183155251150
H            5.98264234237598       -1.82669183767987        1.87173127498170
H            6.91227687916309       -0.28175414736422       -0.05092727126801
H            7.29949503132426        0.05386714436170       -3.73513450689802
H            8.55946419665693        1.24577535717263       -4.07175599925231
H            6.86230038206729        1.71357239883582       -4.13521220258873
H            8.99495309645707        3.13038094175556       -2.38023882137741
H            7.29284982492636        3.58088261188753       -2.44310396940354
H            8.04189983328853        3.19962785659707       -0.89453984903434
H            8.86095389255035        0.84406258191669       -0.41673164133746
H            8.56695659446252       -0.44863077124323       -1.59495402996701
H            9.70813301794715        0.84049261200399       -1.95949435249119
H            5.30065309896366        2.59521114061880       -2.78666175377325
H            3.07474343366644        2.29602941511172       -1.87218109861167
H            0.36550185419643       -0.92798182903577        0.07676417913162

          :  Hamiltonian                  GFN2-xTB          :
         :: gradient norm              0.000046797309 Eh/a0 ::
         :: HOMO-LUMO gap              1.269873919365 eV    ::
         :: SCC energy              -155.262087791759 Eh    ::
         :: -> dispersion             -0.138808013327 Eh    ::
         :: -> Gsolv                  -0.060302760514 Eh    ::
         :: repulsion energy           2.566187194352 Eh    ::

    * Orbital Energies and Occupations

         #    Occupation            Energy/Eh            Energy/eV
      -------------------------------------------------------------
         1        2.0000           -0.7332416             -19.9525
       ...           ...                  ...                  ...
       130        2.0000           -0.4166941             -11.3388
       131        2.0000           -0.4125426             -11.2259
       132        2.0000           -0.4107269             -11.1764
       133        2.0000           -0.4099515             -11.1553
       134        2.0000           -0.4082481             -11.1090
       135        2.0000           -0.4076296             -11.0922
       136        2.0000           -0.3987934             -10.8517
       137        2.0000           -0.3980488             -10.8315
       138        2.0000           -0.3938458             -10.7171
       139        2.0000           -0.3761098             -10.2345
       140        2.0000           -0.3753104             -10.2127
       141        2.0000           -0.3629309              -9.8759
       142        2.0000           -0.3620769              -9.8526 (HOMO)
       143                         -0.3154099              -8.5827 (LUMO)
       144                         -0.2940623              -8.0018
       145                         -0.2748907              -7.4802
       146                         -0.2551099              -6.9419
       147                         -0.2436110              -6.6290
       148                         -0.2402335              -6.5371
       149                         -0.2227436              -6.0612
       150                         -0.2203208              -5.9952
       151                         -0.2194412              -5.9713
       152                         -0.1922671              -5.2319
       153                         -0.1888478              -5.1388
       ...                                ...                  ...
       278                          0.7392262              20.1154
      -------------------------------------------------------------
                  HL-Gap            0.0466670 Eh            1.2699 eV

     #   Z          covCN         q      C6AA      α(0)
     1   6 C        3.761    -0.107    22.595     6.776
     2   6 C        3.902     0.025    20.097     6.372
     3   6 C        3.761    -0.105    22.550     6.769
     4   6 C        3.761    -0.105    22.555     6.770
     5   6 C        2.972    -0.000    28.032     8.685
     6   6 C        2.931    -0.039    28.980     8.829
     7   6 C        2.909    -0.055    29.357     8.884
     8   6 C        3.071     0.041    26.998     8.520
     9   6 C        3.066    -0.019    28.405     8.739
    10   6 C        2.918    -0.044    29.100     8.846
    11   6 C        3.064    -0.019    28.411     8.741
    12   6 C        2.918    -0.044    29.101     8.846
    13   6 C        2.972    -0.000    28.029     8.684
    14   6 C        3.902     0.025    20.097     6.372
    15   6 C        3.761    -0.107    22.596     6.776
    16   6 C        3.761    -0.105    22.560     6.771
    17   6 C        3.761    -0.105    22.560     6.771
    18   6 C        2.931    -0.040    28.990     8.830
    19   6 C        2.909    -0.056    29.381     8.888
    20   6 C        3.072     0.040    27.020     8.523
    21   7 N        2.801    -0.046    22.118     6.985
    22   6 C        2.908     0.073    26.369     8.420
    23   6 C        2.923    -0.050    29.248     8.869
    24   6 C        2.971    -0.015    28.379     8.738
    25   6 C        2.827     0.229    23.190     7.891
    26   8 O        0.858    -0.393    21.532     6.221
    27   6 C        2.960    -0.026    28.640     8.778
    28   6 C        2.935     0.089    26.019     8.366
    29   7 N        1.833    -0.222    26.695     7.656
    30   6 C        2.923     0.153    24.684     8.147
    31   7 N        1.834    -0.221    26.651     7.650
    32   6 C        2.933     0.083    26.152     8.387
    33   6 C        2.927    -0.040    28.982     8.829
    34   6 C        2.908     0.073    26.363     8.419
    35   7 N        2.801    -0.045    22.106     6.983
    36   6 C        3.071     0.042    26.996     8.519
    37   6 C        2.908    -0.055    29.361     8.885
    38   6 C        2.931    -0.040    28.985     8.829
    39   6 C        2.972    -0.001    28.038     8.686
    40   6 C        3.902     0.025    20.098     6.372
    41   6 C        3.761    -0.107    22.593     6.776
    42   6 C        3.761    -0.105    22.552     6.770
    43   6 C        3.761    -0.105    22.554     6.770
    44   6 C        2.918    -0.044    29.100     8.846
    45   6 C        3.065    -0.019    28.406     8.740
    46   6 C        3.065    -0.019    28.414     8.741
    47   6 C        2.918    -0.045    29.108     8.847
    48   6 C        2.972    -0.001    28.041     8.686
    49   6 C        3.902     0.025    20.098     6.372
    50   6 C        3.761    -0.105    22.549     6.769
    51   6 C        3.761    -0.105    22.546     6.769
    52   6 C        3.761    -0.107    22.594     6.776
    53   6 C        2.931    -0.039    28.977     8.828
    54   6 C        2.908    -0.054    29.337     8.881
    55   6 C        3.072     0.042    26.988     8.518
    56   6 C        2.926    -0.055    29.361     8.886
    57   1 H        0.925     0.037     2.488     2.467
    58   1 H        0.925     0.036     2.497     2.471
    59   1 H        0.925     0.036     2.504     2.474
    60   1 H        0.925     0.036     2.508     2.477
    61   1 H        0.925     0.032     2.556     2.500
    62   1 H        0.925     0.038     2.471     2.458
    63   1 H        0.925     0.036     2.504     2.474
    64   1 H        0.925     0.038     2.472     2.459
    65   1 H        0.925     0.033     2.544     2.494
    66   1 H        0.926     0.032     2.552     2.498
    67   1 H        0.926     0.026     2.637     2.539
    68   1 H        0.926     0.042     2.428     2.436
    69   1 H        0.926     0.042     2.423     2.434
    70   1 H        0.925     0.036     2.504     2.474
    71   1 H        0.925     0.037     2.484     2.465
    72   1 H        0.925     0.036     2.497     2.471
    73   1 H        0.925     0.036     2.500     2.473
    74   1 H        0.925     0.039     2.464     2.455
    75   1 H        0.925     0.032     2.561     2.503
    76   1 H        0.925     0.033     2.546     2.495
    77   1 H        0.925     0.039     2.466     2.456
    78   1 H        0.925     0.037     2.495     2.470
    79   1 H        0.926     0.034     2.528     2.487
    80   1 H        0.926     0.022     2.705     2.572
    81   1 H        0.926     0.046     2.376     2.411
    82   1 H        0.925     0.062     2.173     2.305
    83   1 H        0.925     0.063     2.166     2.301
    84   1 H        0.925     0.058     2.225     2.333
    85   1 H        0.926     0.062     2.174     2.306
    86   1 H        0.926     0.027     2.634     2.538
    87   1 H        0.926     0.033     2.550     2.497
    88   1 H        0.925     0.037     2.490     2.468
    89   1 H        0.925     0.036     2.500     2.473
    90   1 H        0.925     0.036     2.506     2.475
    91   1 H        0.925     0.036     2.505     2.475
    92   1 H        0.925     0.032     2.555     2.500
    93   1 H        0.925     0.038     2.473     2.459
    94   1 H        0.925     0.038     2.473     2.459
    95   1 H        0.925     0.036     2.502     2.474
    96   1 H        0.925     0.033     2.547     2.496
    97   1 H        0.926     0.041     2.434     2.440
    98   1 H        0.926     0.041     2.429     2.437
    99   1 H        0.925     0.033     2.548     2.496
   100   1 H        0.925     0.038     2.471     2.458
   101   1 H        0.925     0.035     2.513     2.479
   102   1 H        0.925     0.038     2.473     2.459
   103   1 H        0.925     0.035     2.515     2.480
   104   1 H        0.925     0.032     2.555     2.500
   105   1 H        0.925     0.036     2.500     2.473
   106   1 H        0.925     0.036     2.496     2.471
   107   1 H        0.925     0.037     2.487     2.466
   108   1 H        0.926     0.031     2.572     2.508
   109   1 H        0.926     0.026     2.650     2.546
   110   1 H        0.926     0.066     2.127     2.281

molecular dipole:
                 x           y           z       tot (Debye)
 q only:       -0.345      -1.867       0.351
   full:       -0.143      -1.793       0.262       4.619

 projected vibrational frequencies (cm⁻¹)
eigval :       -0.00    -0.00    -0.00     0.00     0.00     0.00
eigval :        9.13    10.64    12.49    12.80    23.00    28.09
eigval :       30.01    31.12    32.64    35.59    44.36    45.46
eigval :       59.00    61.38    63.81    68.87    75.15    84.82
eigval :       87.75   106.25   109.87   124.81   142.05   153.90
eigval :      158.94   162.01   170.47   176.82   179.36   184.67
eigval :      190.35   198.06   200.51   202.20   216.28   221.55
eigval :      221.68   223.49   226.55   230.68   234.77   239.04
eigval :      244.63   258.72   259.41   267.92   281.22   283.55
eigval :      289.77   313.13   314.87   314.99   316.61   319.09
eigval :      321.21   334.28   337.98   341.69   348.08   354.57
eigval :      356.67   359.29   359.75   367.49   371.45   381.13
eigval :      396.83   398.60   401.20   410.64   410.98   430.20
eigval :      440.13   440.53   442.02   442.54   459.97   461.18
eigval :      462.90   463.18   465.47   466.91   490.12   512.42
eigval :      520.01   539.82   556.07   574.76   579.39   584.18
eigval :      584.68   595.05   600.26   609.07   625.81   639.95
eigval :      640.58   640.81   662.70   663.91   669.44   687.45
eigval :      687.98   702.42   706.40   706.92   711.21   718.85
eigval :      722.15   723.04   766.97   792.33   815.66   819.51
eigval :      822.15   823.65   830.79   832.19   836.55   845.37
eigval :      864.18   870.45   871.78   872.73   874.04   876.48
eigval :      885.66   899.63   901.78   914.35   917.29   918.46
eigval :      922.63   923.15   923.65   926.24   928.34   934.25
eigval :      934.65   958.56   958.91   959.28   959.35   960.17
eigval :      961.32   961.74   962.03   962.51   962.62   963.30
eigval :      964.96   991.09  1014.37  1028.86  1030.14  1033.10
eigval :     1033.76  1034.51  1034.70  1035.02  1035.35  1038.02
eigval :     1039.50  1044.22  1054.84  1113.15  1117.31  1129.29
eigval :     1129.58  1133.91  1141.21  1143.40  1167.70  1172.53
eigval :     1176.14  1177.48  1192.16  1217.49  1220.02  1225.32
eigval :     1225.43  1225.54  1225.76  1226.86  1229.40  1229.55
eigval :     1230.44  1232.61  1234.46  1235.22  1238.97  1241.82
eigval :     1244.76  1249.91  1254.83  1266.84  1282.37  1283.57
eigval :     1295.98  1303.87  1304.89  1308.05  1325.52  1340.34
eigval :     1343.96  1344.67  1353.89  1357.49  1388.29  1388.76
eigval :     1394.51  1399.27  1399.51  1401.22  1401.62  1402.30
eigval :     1402.52  1402.63  1404.44  1409.56  1410.24  1426.24
eigval :     1426.29  1426.43  1428.10  1430.60  1431.72  1451.02
eigval :     1459.11  1480.14  1480.58  1481.90  1482.19  1488.81
eigval :     1488.85  1489.01  1489.08  1491.64  1491.84  1492.26
eigval :     1492.31  1498.25  1498.56  1498.71  1498.98  1501.92
eigval :     1502.20  1502.25  1502.52  1511.01  1511.05  1511.16
eigval :     1511.37  1516.75  1516.93  1517.60  1517.82  1538.57
eigval :     1540.05  1553.08  1558.89  1569.82  1570.76  1580.55
eigval :     1581.06  1603.22  1603.52  1614.05  1614.41  1668.54
eigval :     3018.77  3018.99  3019.48  3019.55  3019.93  3020.04
eigval :     3020.09  3020.17  3023.17  3023.18  3023.33  3023.38
eigval :     3024.74  3024.82  3024.85  3024.97  3026.80  3027.06
eigval :     3027.12  3027.24  3030.33  3030.50  3030.62  3030.71
eigval :     3035.09  3035.20  3035.55  3035.65  3043.62  3043.73
eigval :     3044.04  3044.25  3046.96  3047.16  3047.23  3047.24
eigval :     3048.79  3057.29  3064.25  3076.95  3077.60  3077.68
eigval :     3084.95  3091.00  3091.42  3092.14  3097.11  3103.71
eigval :     3108.20  3114.08  3117.28  3117.34  3120.32  3120.53

   temp. (K)  partition function   enthalpy   heat capacity  entropy
                                   cal/mol     cal/K/mol   cal/K/mol   J/K/mol
 298.15  VIB  0.303E+26            32265.856    195.322    201.159
         ROT  0.158E+09              888.752      2.981     40.499
         INT  0.479E+34            33154.608    198.303    241.658
         TR   0.194E+29             1481.254      4.968     45.659
         TOT                       34635.8624   203.2710   287.3177  1202.1371

       T/K    H(0)-H(T)+PV         H(T)/Eh          T*S/Eh         G(T)/Eh
   ------------------------------------------------------------------------
    298.15    0.551958E-01    0.963844E+00    0.136514E+00    0.827330E+00
   ------------------------------------------------------------------------

         :::::::::::::::::::::::::::::::::::::::::::::::::::::
         ::                  THERMODYNAMIC                  ::
         :::::::::::::::::::::::::::::::::::::::::::::::::::::
         :: total free energy        -151.868570843608 Eh   ::
         ::.................................................::
         :: total energy             -152.695900597821 Eh   ::
         :: zero point energy           0.908647892098 Eh   ::
         :: G(RRHO) w/o ZPVE           -0.081318137885 Eh   ::
         :: G(RRHO) contrib.            0.827329754214 Eh   ::
         :::::::::::::::::::::::::::::::::::::::::::::::::::::

           -------------------------------------------------
          | TOTAL ENERGY             -152.695900597821 Eh   |
          | TOTAL ENTHALPY           -151.732056945643 Eh   |
          | TOTAL FREE ENERGY        -151.868570843608 Eh   |
          | GRADIENT NORM               0.000046798256 Eh/α |
          | HOMO-LUMO GAP               1.269873911846 eV   |
           -------------------------------------------------

 * finished run on 2025/09/04 at 02:46:02.146
