   * xtb version 6.7.1 (edcfbbe) compiled by 'albert@albert-system' on 2024-07-22

   ID    Z sym.   atoms
    1    6 C      1-20, 22-25, 27, 28, 30, 32-34, 36-56
    2    7 N      21, 29, 31, 35
    3    8 O      26
    4    1 H      57-110

          program call               : xtb data2507/toluene/35tCzBPym/35tCzBPym_toluene_S0_finalOpt.xtbopt.xyz --gfn 2 --uhf 2 --gbsa toluene --ohess vtight --parallel 40 --molden --ceasefiles --namespace data2507/toluene/35tCzBPym/35tCzBPym_toluene_T1_preOpt
      * Solvation model:               GBSA
        Solvent                        toluene
        Solvent mass                       9.2140E+01 g/mol
          :  Hamiltonian                  GFN2-xTB          :
 * total energy  :  -152.6216511 Eh     change       -0.1865715E-07 Eh
 * total energy  :  -152.6259214 Eh     change       -0.4270285E-02 Eh
 * total energy  :  -152.6273384 Eh     change       -0.1417003E-02 Eh
 * total energy  :  -152.6278777 Eh     change       -0.5393614E-03 Eh
 * total energy  :  -152.6284862 Eh     change       -0.6084348E-03 Eh
 * total energy  :  -152.6290408 Eh     change       -0.5546290E-03 Eh
 * total energy  :  -152.6296048 Eh     change       -0.5639875E-03 Eh
 * total energy  :  -152.6299058 Eh     change       -0.3009742E-03 Eh
 * total energy  :  -152.6300692 Eh     change       -0.1633966E-03 Eh
 * total energy  :  -152.6301934 Eh     change       -0.1242461E-03 Eh
 * total energy  :  -152.6310791 Eh     change       -0.5088701E-06 Eh
 * total energy  :  -152.6310797 Eh     change       -0.5215536E-06 Eh
 * total energy  :  -152.6310802 Eh     change       -0.5071068E-06 Eh
 * total energy  :  -152.6310807 Eh     change       -0.5159249E-06 Eh
 * total energy  :  -152.6310812 Eh     change       -0.5498723E-06 Eh
 * total energy  :  -152.6310819 Eh     change       -0.6301001E-06 Eh
 * total energy  :  -152.6310826 Eh     change       -0.7580809E-06 Eh
 * total energy  :  -152.6310835 Eh     change       -0.9190377E-06 Eh
 * total energy  :  -152.6310835 Eh     change       -0.2634067E-08 Eh
   *** GEOMETRY OPTIMIZATION CONVERGED AFTER 94 ITERATIONS ***

 final structure:
================
110
 xtb: 6.7.1 (edcfbbe)
C           -4.41615343931140       -5.56868050016023       -3.25369114733912
C           -3.01266574411219       -4.98891117702795       -3.45454955319054
C           -2.83945668473605       -4.66155621390766       -4.94571483694092
C           -1.99055924248495       -6.05658632535326       -3.03448320420601
C           -2.77749103691977       -3.72882700140606       -2.63645850237810
C           -1.53425633010224       -3.08749283100933       -2.71752349059566
C           -1.22876967712241       -1.94766796367492       -2.00056560057437
C           -2.20103672333148       -1.42854391923124       -1.15656062905524
C           -3.47310072782050       -2.03705161318089       -1.08142850915095
C           -3.75417739933184       -3.17935623888144       -1.81304077593493
C           -4.25568463977172       -1.23467156974723       -0.17483389892689
C           -5.55502952023436       -1.33389748113332        0.29533294011310
C           -6.03640989354291       -0.39163908573227        1.19810738785965
C           -7.45785660577093       -0.42693589958575        1.73652417828200
C           -8.27537091673873       -1.59127572804701        1.16862065830553
C           -8.16620763481609        0.88329985085219        1.35885676242312
C           -7.41515304756074       -0.57289372097638        3.26537208791327
C           -5.17175062503305        0.62328462495155        1.63020361493773
C           -3.87213137732732        0.74034679415158        1.18115770221174
C           -3.41564425960074       -0.18244152201229        0.25082632613612
N           -2.17645105174813       -0.31212849309172       -0.34262057558945
C           -1.09597610071875        0.56713863809442       -0.20067470011339
C           -1.29084736372930        1.93339184387134       -0.37066546634162
C           -0.20813538781950        2.81621826801898       -0.28394815397930
C           -0.33010015362957        4.26439436376933       -0.52959853366402
O            0.62949540965159        4.88261117360492       -1.07293120993355
C           -1.53125040493525        4.93759773525176       -0.13682428802588
C           -1.78807754038915        6.26542875055445       -0.58237053728468
N           -2.85816154386540        6.92561310864389       -0.24525344732931
C           -3.73890425950384        6.35459905131255        0.57376811101140
N           -3.56062621931042        5.15713726051018        1.12635682049869
C           -2.49305625690674        4.47768969230993        0.79607287197072
C            1.07028271826907        2.29222336471584       -0.06420627513156
C            1.26458671677815        0.92758067412515        0.09110624954895
N            2.55279183416464        0.43083278947706        0.31251842893113
C            2.92245610469364       -0.46591886159088        1.29499253563952
C            2.17050879759570       -1.05905653911649        2.30019868717159
C            2.81344242214658       -1.91871758223876        3.16857869043989
C            4.18261286162481       -2.20492680481049        3.08360340823236
C            4.79676726887854       -3.17475221751290        4.08079010813130
C            6.29800349972974       -3.37997186792683        3.85618706424435
C            4.59705974585923       -2.62896674074788        5.50304924341583
C            4.10218590852938       -4.53860626121067        3.94461054941218
C            4.93035314072946       -1.58094276546155        2.09059127961112
C            4.30990571219330       -0.71435476789804        1.20587909407965
C            4.79631486863246        0.08202418729053        0.10663442733501
C            6.04892957322302        0.24032256294790       -0.46315384664828
C            6.20679782741722        1.08467690585883       -1.55714222643092
C            7.55345447856174        1.31324705580507       -2.22528047838427
C            7.46797555106335        0.87029769208846       -3.69403110808103
C            7.90027813257194        2.80835978439767       -2.15268134078669
C            8.68615468760187        0.52888814384880       -1.55562014103773
C            5.07683047863628        1.74077782147693       -2.06421577814827
C            3.81699589017255        1.59897489008323       -1.51761188503374
C            3.67912932785395        0.77554175331529       -0.40808456654181
C            0.17781880765249        0.05570005122733        0.04136939936233
H           -4.52336375710892       -6.46993449885275       -3.85389157650062
H           -4.58383584582098       -5.83753148220093       -2.21326651633454
H           -5.18116170712026       -4.86354858889695       -3.57066398100455
H           -1.83188439057168       -4.31949033355939       -5.16505450083593
H           -3.53688345592005       -3.88100760457928       -5.24377652994899
H           -3.03578948727147       -5.54716316992513       -5.54630943565630
H           -0.97163969033822       -5.72610187243082       -3.21551025378820
H           -2.15622958747898       -6.97204041151390       -3.59831458455446
H           -2.09403029395555       -6.28063478204280       -1.97456360606247
H           -0.77342936510028       -3.48888096443728       -3.36850121451291
H           -0.26594542421231       -1.47274255639281       -2.11049638129130
H           -4.73306336212643       -3.61968285992421       -1.73063046145358
H           -6.17108890598235       -2.14670581263690       -0.04951149473966
H           -8.35432498701691       -1.52304362974138        0.08601900094069
H           -9.28219466195846       -1.55901163678646        1.57994193004696
H           -7.83456513433062       -2.54836728684691        1.43791248622307
H           -7.66422474205330        1.74669381204479        1.78666789350930
H           -9.19137752204162        0.87100575886605        1.72281545187788
H           -8.18545891974803        1.00307483208973        0.27722285609036
H           -6.88689216962962       -1.48312263040134        3.54244650386894
H           -8.42667840441440       -0.62634872632909        3.66210601563629
H           -6.91225636607491        0.26945739253686        3.73202149010231
H           -5.52139376943859        1.35231023595164        2.34419282454276
H           -3.23397234919742        1.52590338968211        1.55369001783983
H           -2.26943235515796        2.29615747298805       -0.64531297717488
H           -1.06752394934840        6.75006033236245       -1.22936522430052
H           -4.63138027615065        6.90468993003074        0.82419875180358
H           -2.34762911142403        3.53996774004182        1.31757958843330
H            1.90018088861870        2.97871820878745        0.00457904430391
H            1.11831819352773       -0.84884706438537        2.41516141169075
H            2.22414413278737       -2.37982736044503        3.94563488893567
H            6.67982418775948       -4.08494782828916        4.59187502649805
H            6.49445499424040       -3.78868427568593        2.86762956796740
H            6.84335502595370       -2.44638878915960        3.97412298418206
H            3.54349062760478       -2.53050041165002        5.74900101216572
H            5.06291256480193       -1.65014382085410        5.59977010373745
H            5.05337417241536       -3.30109561500322        6.22659540945437
H            4.54355974000727       -5.25165889070207        4.63758192697927
H            3.03987928690465       -4.46806505310463        4.16069315669630
H            4.22066483518876       -4.92185005048132        2.93298062370395
H            5.98885524935384       -1.75122726493739        1.99317530425696
H            6.88141079262411       -0.30046255045019       -0.04651166234623
H            7.19481370628282       -0.18137581915240       -3.75522980971454
H            8.43165956447125        1.00622463967708       -4.18008208116315
H            6.72784836708892        1.44743219734339       -4.24119401630260
H            8.86809910894124        2.98922847034616       -2.61549509148210
H            7.15970687350193        3.41547129729497       -2.66590440730312
H            7.94717766017596        3.13434700493521       -1.11532903457818
H            8.80430217018958        0.82311050500102       -0.51526954443443
H            8.50650602194629       -0.54238360462142       -1.60887285518373
H            9.62170516824127        0.73734596258989       -2.07061040434835
H            5.17908189588286        2.38780330085560       -2.92146752588146
H            2.97193084142531        2.11612977461413       -1.94629281796595
H            0.32269638990686       -1.00538798908707        0.16388313591675

          :  Hamiltonian                  GFN2-xTB          :
         :: gradient norm              0.000040357804 Eh/a0 ::
         :: HOMO-LUMO gap              0.886343869461 eV    ::
         :: SCC energy              -155.185366433582 Eh    ::
         :: -> dispersion             -0.138136360930 Eh    ::
         :: -> Gsolv                  -0.073278868840 Eh    ::
         :: repulsion energy           2.554282888330 Eh    ::

    * Orbital Energies and Occupations

         #    Occupation            Energy/Eh            Energy/eV
      -------------------------------------------------------------
         1        2.0000           -0.6894063             -18.7597
       ...           ...                  ...                  ...
       131        2.0000           -0.4174779             -11.3602
       132        2.0000           -0.4148743             -11.2893
       133        2.0000           -0.4145516             -11.2805
       134        2.0000           -0.4133598             -11.2481
       135        2.0000           -0.4074594             -11.0875
       136        2.0000           -0.4074119             -11.0862
       137        2.0000           -0.3855855             -10.4923
       138        2.0000           -0.3855388             -10.4910
       139        1.9995           -0.3760630             -10.2332
       140        1.9267           -0.3713342             -10.1045
       141        1.8821           -0.3708360             -10.0910
       142        1.1918           -0.3675575             -10.0017
       143        1.0000           -0.2938506              -7.9961 (HOMO)
       144                         -0.2612778              -7.1097 (LUMO)
       145                         -0.2549818              -6.9384
       146                         -0.2537613              -6.9052
       147                         -0.2487316              -6.7683
       148                         -0.2444162              -6.6509
       149                         -0.2306463              -6.2762
       150                         -0.2306176              -6.2754
       151                         -0.2095394              -5.7019
       152                         -0.1981866              -5.3929
       153                         -0.1951764              -5.3110
       154                         -0.1951420              -5.3101
       ...                                ...                  ...
       278                          0.7299911              19.8641
      -------------------------------------------------------------
                  HL-Gap            0.0325728 Eh            0.8864 eV

     #   Z          covCN         q      C6AA      α(0)
     1   6 C        3.761    -0.110    22.647     6.784
     2   6 C        3.902     0.027    20.068     6.368
     3   6 C        3.761    -0.107    22.582     6.774
     4   6 C        3.761    -0.107    22.592     6.776
     5   6 C        2.973     0.010    27.788     8.647
     6   6 C        2.929    -0.037    28.910     8.818
     7   6 C        2.908    -0.046    29.146     8.852
     8   6 C        3.075     0.044    26.946     8.511
     9   6 C        3.064    -0.013    28.279     8.720
    10   6 C        2.917    -0.039    28.968     8.826
    11   6 C        3.064    -0.014    28.294     8.722
    12   6 C        2.917    -0.039    28.974     8.827
    13   6 C        2.973     0.010    27.779     8.645
    14   6 C        3.903     0.027    20.067     6.368
    15   6 C        3.761    -0.110    22.649     6.784
    16   6 C        3.761    -0.106    22.580     6.774
    17   6 C        3.761    -0.107    22.589     6.775
    18   6 C        2.929    -0.036    28.890     8.815
    19   6 C        2.908    -0.045    29.110     8.847
    20   6 C        3.076     0.044    26.944     8.510
    21   7 N        2.803    -0.020    21.629     6.907
    22   6 C        2.909     0.064    26.556     8.450
    23   6 C        2.921    -0.051    29.270     8.872
    24   6 C        2.968    -0.011    28.287     8.724
    25   6 C        2.830     0.166    24.416     8.097
    26   8 O        0.858    -0.535    24.565     6.645
    27   6 C        2.957    -0.045    29.119     8.851
    28   6 C        2.922     0.078    26.269     8.405
    29   7 N        1.833    -0.219    26.624     7.646
    30   6 C        2.901     0.117    25.428     8.268
    31   7 N        1.832    -0.233    26.956     7.694
    32   6 C        2.923     0.062    26.605     8.459
    33   6 C        2.928    -0.038    28.947     8.823
    34   6 C        2.909     0.064    26.562     8.451
    35   7 N        2.803    -0.018    21.591     6.901
    36   6 C        3.074     0.044    26.940     8.510
    37   6 C        2.908    -0.046    29.143     8.852
    38   6 C        2.929    -0.037    28.910     8.818
    39   6 C        2.973     0.010    27.778     8.645
    40   6 C        3.903     0.027    20.067     6.368
    41   6 C        3.761    -0.110    22.648     6.784
    42   6 C        3.761    -0.107    22.586     6.775
    43   6 C        3.761    -0.107    22.594     6.776
    44   6 C        2.917    -0.039    28.962     8.825
    45   6 C        3.064    -0.013    28.272     8.719
    46   6 C        3.064    -0.014    28.291     8.722
    47   6 C        2.917    -0.039    28.975     8.827
    48   6 C        2.973     0.010    27.779     8.645
    49   6 C        3.903     0.027    20.067     6.368
    50   6 C        3.761    -0.107    22.584     6.774
    51   6 C        3.761    -0.106    22.572     6.773
    52   6 C        3.761    -0.110    22.653     6.785
    53   6 C        2.930    -0.036    28.887     8.814
    54   6 C        2.908    -0.043    29.078     8.842
    55   6 C        3.075     0.045    26.916     8.506
    56   6 C        2.923    -0.069    29.722     8.940
    57   1 H        0.925     0.040     2.448     2.447
    58   1 H        0.925     0.039     2.459     2.452
    59   1 H        0.925     0.038     2.473     2.459
    60   1 H        0.925     0.038     2.476     2.461
    61   1 H        0.925     0.034     2.529     2.487
    62   1 H        0.925     0.042     2.424     2.435
    63   1 H        0.925     0.039     2.467     2.456
    64   1 H        0.925     0.042     2.424     2.435
    65   1 H        0.925     0.036     2.505     2.475
    66   1 H        0.926     0.042     2.418     2.431
    67   1 H        0.926     0.036     2.498     2.472
    68   1 H        0.926     0.053     2.282     2.362
    69   1 H        0.926     0.054     2.274     2.358
    70   1 H        0.925     0.039     2.468     2.457
    71   1 H        0.925     0.040     2.444     2.445
    72   1 H        0.925     0.040     2.453     2.449
    73   1 H        0.925     0.038     2.477     2.461
    74   1 H        0.925     0.042     2.421     2.433
    75   1 H        0.925     0.034     2.533     2.489
    76   1 H        0.925     0.036     2.505     2.475
    77   1 H        0.925     0.042     2.419     2.432
    78   1 H        0.925     0.038     2.473     2.459
    79   1 H        0.926     0.042     2.417     2.431
    80   1 H        0.926     0.031     2.579     2.511
    81   1 H        0.926     0.042     2.421     2.433
    82   1 H        0.925     0.045     2.379     2.412
    83   1 H        0.926     0.040     2.454     2.450
    84   1 H        0.925     0.039     2.462     2.454
    85   1 H        0.926     0.051     2.307     2.375
    86   1 H        0.926     0.038     2.478     2.461
    87   1 H        0.926     0.043     2.406     2.426
    88   1 H        0.925     0.040     2.447     2.446
    89   1 H        0.925     0.039     2.460     2.453
    90   1 H        0.925     0.038     2.473     2.459
    91   1 H        0.925     0.038     2.471     2.458
    92   1 H        0.925     0.034     2.526     2.485
    93   1 H        0.925     0.042     2.422     2.434
    94   1 H        0.925     0.042     2.422     2.434
    95   1 H        0.925     0.039     2.463     2.454
    96   1 H        0.925     0.036     2.505     2.475
    97   1 H        0.926     0.053     2.279     2.361
    98   1 H        0.926     0.054     2.265     2.354
    99   1 H        0.925     0.036     2.503     2.474
   100   1 H        0.925     0.042     2.417     2.431
   101   1 H        0.925     0.037     2.485     2.465
   102   1 H        0.925     0.042     2.420     2.433
   103   1 H        0.925     0.036     2.496     2.471
   104   1 H        0.925     0.034     2.527     2.486
   105   1 H        0.925     0.039     2.462     2.454
   106   1 H        0.925     0.040     2.448     2.447
   107   1 H        0.925     0.041     2.440     2.443
   108   1 H        0.926     0.040     2.455     2.450
   109   1 H        0.926     0.035     2.522     2.483
   110   1 H        0.926     0.059     2.210     2.325

molecular dipole:
                 x           y           z       tot (Debye)
 q only:        0.626      -6.086       0.776
   full:        0.752      -5.870       0.673      15.138

 projected vibrational frequencies (cm⁻¹)
eigval :       -0.00    -0.00     0.00     0.00     0.00     0.00
eigval :        9.30    10.09    13.05    14.33    24.76    27.35
eigval :       30.58    31.18    33.25    35.30    45.18    48.28
eigval :       60.94    63.02    68.10    72.64    78.81    85.89
eigval :       87.07   105.96   112.09   125.34   144.57   153.24
eigval :      157.74   160.50   169.51   177.25   179.84   185.48
eigval :      192.54   197.06   200.66   206.90   214.60   221.20
eigval :      221.42   225.51   226.87   230.84   234.25   241.13
eigval :      249.71   255.81   256.30   272.76   283.02   286.65
eigval :      293.86   313.92   316.24   319.04   321.26   323.42
eigval :      325.98   333.87   337.31   340.90   347.13   351.00
eigval :      355.56   355.93   365.65   369.95   381.99   392.30
eigval :      393.31   396.28   402.19   403.73   405.06   422.82
eigval :      439.43   440.39   440.86   441.22   456.12   461.20
eigval :      461.67   462.77   464.59   464.97   497.73   510.59
eigval :      517.77   534.78   544.29   574.49   577.01   583.67
eigval :      584.98   590.68   593.88   597.20   616.84   626.20
eigval :      635.78   641.19   642.25   642.42   659.09   666.75
eigval :      670.50   690.92   692.09   699.46   707.98   708.75
eigval :      715.81   718.86   760.29   764.58   781.36   814.28
eigval :      818.39   822.79   824.24   825.47   829.88   831.49
eigval :      839.71   859.04   863.76   865.45   867.21   870.66
eigval :      871.86   872.39   877.71   886.22   901.10   916.05
eigval :      917.09   918.48   920.38   923.17   925.58   929.71
eigval :      931.60   958.46   958.71   959.06   959.20   960.97
eigval :      961.25   961.76   961.91   962.44   962.61   963.26
eigval :      964.33   964.97   984.42  1023.62  1027.87  1032.14
eigval :     1032.70  1032.80  1033.03  1033.35  1033.63  1036.22
eigval :     1038.06  1041.69  1043.97  1107.26  1108.85  1113.29
eigval :     1125.90  1126.09  1135.37  1135.73  1146.60  1156.90
eigval :     1159.15  1160.19  1185.85  1211.82  1219.68  1221.62
eigval :     1222.34  1222.37  1222.38  1222.56  1225.21  1226.28
eigval :     1226.67  1227.29  1227.78  1227.90  1230.70  1231.66
eigval :     1239.48  1248.22  1255.23  1265.59  1276.13  1278.17
eigval :     1285.92  1287.17  1287.37  1292.86  1300.59  1328.64
eigval :     1329.54  1330.79  1336.08  1347.10  1347.51  1352.59
eigval :     1370.57  1398.41  1398.80  1401.31  1401.40  1401.91
eigval :     1402.48  1402.86  1403.45  1405.59  1406.50  1416.98
eigval :     1422.28  1426.20  1426.54  1426.68  1426.90  1436.31
eigval :     1440.94  1444.46  1457.86  1458.23  1461.91  1473.08
eigval :     1473.53  1486.97  1487.87  1487.89  1487.97  1489.63
eigval :     1489.76  1490.08  1491.18  1494.21  1496.06  1496.53
eigval :     1496.68  1497.10  1500.30  1500.98  1501.06  1501.32
eigval :     1510.62  1510.76  1510.91  1510.97  1512.33  1514.90
eigval :     1515.52  1515.76  1516.26  1552.82  1556.65  1559.58
eigval :     1569.04  1571.85  1572.32  1573.95  1591.03  1603.55
eigval :     3022.33  3022.43  3022.59  3022.60  3022.75  3023.01
eigval :     3023.03  3023.05  3026.26  3026.30  3026.41  3026.47
eigval :     3026.79  3027.08  3027.26  3027.32  3029.95  3030.00
eigval :     3030.06  3030.20  3032.68  3032.80  3032.92  3033.00
eigval :     3033.21  3037.74  3037.82  3037.85  3037.94  3042.05
eigval :     3045.16  3045.86  3046.45  3046.65  3049.25  3049.39
eigval :     3049.62  3049.75  3085.15  3087.30  3087.71  3092.11
eigval :     3094.86  3095.47  3098.24  3098.98  3099.99  3101.68
eigval :     3103.39  3112.68  3123.79  3123.79  3126.54  3126.69

   temp. (K)  partition function   enthalpy   heat capacity  entropy
                                   cal/mol     cal/K/mol   cal/K/mol   J/K/mol
 298.15  VIB  0.193E+26            32351.057    196.960    201.149
         ROT  0.161E+09              888.752      2.981     40.530
         INT  0.311E+34            33239.809    199.941    241.679
         TR   0.194E+29             1481.254      4.968     45.659
         TOT                       34721.0631   204.9094   287.3383  1202.2235

       T/K    H(0)-H(T)+PV         H(T)/Eh          T*S/Eh         G(T)/Eh
   ------------------------------------------------------------------------
    298.15    0.553315E-01    0.960389E+00    0.136524E+00    0.823866E+00
   ------------------------------------------------------------------------

         :::::::::::::::::::::::::::::::::::::::::::::::::::::
         ::                  THERMODYNAMIC                  ::
         :::::::::::::::::::::::::::::::::::::::::::::::::::::
         :: total free energy        -151.807217809361 Eh   ::
         ::.................................................::
         :: total energy             -152.631083547186 Eh   ::
         :: zero point energy           0.905057910738 Eh   ::
         :: G(RRHO) w/o ZPVE           -0.081192172913 Eh   ::
         :: G(RRHO) contrib.            0.823865737825 Eh   ::
         :::::::::::::::::::::::::::::::::::::::::::::::::::::

           -------------------------------------------------
          | TOTAL ENERGY             -152.631083547186 Eh   |
          | TOTAL ENTHALPY           -151.670694100349 Eh   |
          | TOTAL FREE ENERGY        -151.807217809361 Eh   |
          | GRADIENT NORM               0.000040617871 Eh/α |
          | HOMO-LUMO GAP               0.886351636653 eV   |
           -------------------------------------------------

 * finished run on 2025/09/04 at 02:46:23.983
