   * xtb version 6.7.1 (edcfbbe) compiled by 'albert@albert-system' on 2024-07-22

   ID    Z sym.   atoms
    1    6 C      1-20, 22-25, 27, 28, 30, 32-34, 36-56
    2    7 N      21, 29, 31, 35
    3    8 O      26
    4    1 H      57-110

          program call               : xtb data2507/toluene/35tCzBPym/35tCzBPym.xyz --gfn 2 --gbsa toluene --ohess vtight --parallel 40 --molden --ceasefiles --namespace data2507/toluene/35tCzBPym/35tCzBPym_toluene_S0_preOpt
      * Solvation model:               GBSA
        Solvent                        toluene
        Solvent mass                       9.2140E+01 g/mol
          :  Hamiltonian                  GFN2-xTB          :
 * total energy  :  -152.6674385 Eh     change       -0.2679968E-08 Eh
 * total energy  :  -152.6852580 Eh     change       -0.1781949E-01 Eh
 * total energy  :  -152.6903299 Eh     change       -0.5071954E-02 Eh
 * total energy  :  -152.6918179 Eh     change       -0.1488002E-02 Eh
 * total energy  :  -152.6927001 Eh     change       -0.8822082E-03 Eh
 * total energy  :  -152.6929860 Eh     change       -0.2858863E-03 Eh
 * total energy  :  -152.6931505 Eh     change       -0.1645222E-03 Eh
 * total energy  :  -152.6932914 Eh     change       -0.1408093E-03 Eh
 * total energy  :  -152.6934086 Eh     change       -0.1172313E-03 Eh
 * total energy  :  -152.6935109 Eh     change       -0.1023348E-03 Eh
 * total energy  :  -152.6942909 Eh     change       -0.3484121E-06 Eh
 * total energy  :  -152.6942911 Eh     change       -0.2598980E-06 Eh
 * total energy  :  -152.6942913 Eh     change       -0.1926670E-06 Eh
 * total energy  :  -152.6942915 Eh     change       -0.1853480E-06 Eh
 * total energy  :  -152.6942918 Eh     change       -0.2752978E-06 Eh
 * total energy  :  -152.6942921 Eh     change       -0.3643377E-06 Eh
 * total energy  :  -152.6942925 Eh     change       -0.3823999E-06 Eh
 * total energy  :  -152.6942929 Eh     change       -0.3672584E-06 Eh
 * total energy  :  -152.6942929 Eh     change       -0.4176513E-08 Eh
   *** GEOMETRY OPTIMIZATION CONVERGED AFTER 94 ITERATIONS ***

 final structure:
================
110
 xtb: 6.7.1 (edcfbbe)
C           -4.22917560308010       -4.52134950217442       -3.21791832125579
C           -3.77659012919720       -3.27944470261552       -4.00087341803939
C           -4.95852838410016       -2.70966085820738       -4.79952196543086
C           -2.69609685573387       -3.71507584042717       -4.99544770082216
C           -3.28653021995262       -2.22573523456351       -3.01642461392284
C           -1.98943724029571       -1.70788394743757       -3.05364237732230
C           -1.53608912075806       -0.76010700029941       -2.15244003786743
C           -2.40576918220108       -0.31843032399398       -1.17032765587468
C           -3.73121677249045       -0.80055064550496       -1.13135921412064
C           -4.15949179613407       -1.74857117242965       -2.04658634179718
C           -4.38721844042832       -0.11327441104668       -0.05051548390056
C           -5.66687430514474       -0.18242744970397        0.47587803506135
C           -6.01572438192724        0.60271885528067        1.56788293413531
C           -7.43058002985747        0.51243666875239        2.12438781142281
C           -7.66414190715235        1.44851640878030        3.31421113854990
C           -7.69288887072796       -0.92718416635000        2.59202988509378
C           -8.42954359480838        0.88975208267457        1.02006100568810
C           -5.04196327252763        1.43678115496233        2.12292753180070
C           -3.75599501073667        1.52368679565738        1.61820044039253
C           -3.43118144599341        0.76007867776552        0.51017246023911
N           -2.23110726056978        0.62916042063675       -0.17238760487963
C           -1.05858253251998        1.33184395886536        0.09982099116527
C           -1.10398179295273        2.70895548351612        0.30490664559574
C            0.06633106958023        3.40459987867590        0.59940838002961
C            0.06433732899353        4.85687700591495        0.87269825887667
O            0.97208328484653        5.41674163802673        1.46188897586633
C           -1.10863637950588        5.63482796102958        0.39361943945631
C           -1.63261963976932        5.52915679414760       -0.89646176038296
N           -2.65807836436906        6.25870938462963       -1.29783113280702
C           -3.15943703428045        7.12194568714264       -0.43265933406199
N           -2.72662285220601        7.33320944922114        0.79818287062560
C           -1.71238395057708        6.59513935606331        1.20930180317524
C            1.28048494680888        2.72639474675861        0.68393930592376
C            1.33592255376655        1.35678133949094        0.44556251182386
N            2.55242804368717        0.68091767222510        0.50841071014343
C            2.79366918608442       -0.51243472958728        1.17201899432577
C            1.95662514263533       -1.28872983062244        1.95792661077959
C            2.47978130839025       -2.42970654614663        2.53383585883254
C            3.81250266194697       -2.82734388343006        2.36513078118093
C            4.28901379903512       -4.11069297544404        3.03162747665824
C            5.76244775017376       -4.41266149497720        2.74098525023537
C            4.11999618911177       -3.98213051698321        4.55287561190895
C            3.45113948153355       -5.28896168520011        2.51259668813730
C            4.64744016789555       -2.02508039138001        1.60372471413204
C            4.14742271289863       -0.87177809934262        1.01352713798945
C            4.75327994640051        0.15452397338367        0.20747512982917
C            6.03366695161454        0.33437327650806       -0.29103338207286
C            6.32537043641242        1.43897735203143       -1.08153050962420
C            7.74384520658416        1.62104222143537       -1.60561589792360
C            8.11680094511072        0.41163563468333       -2.47624732905193
C            7.90886825801276        2.88601522067732       -2.45355644499899
C            8.70763877556521        1.71971414810420       -0.41339708956256
C            5.29601109844857        2.33835744546218       -1.37181568912024
C            4.00877257452961        2.18244576291545       -0.88800972385748
C            3.73984562388936        1.09461572862060       -0.07560174131124
C            0.16198642865196        0.66296114661730        0.15893724307064
H           -4.56678980570621       -5.29507663095310       -3.90449822605439
H           -3.40265328331811       -4.91726525787957       -2.63073278949304
H           -5.04616076710793       -4.28813302235183       -2.54070267185891
H           -4.65191954642679       -1.81612639413282       -5.34016525918203
H           -5.78665464324294       -2.44508508024542       -4.14778826698441
H           -5.31320005713682       -3.44422353446282       -5.51969595531185
H           -2.36360192128578       -2.87877373457001       -5.60636349361262
H           -3.10319674933480       -4.47407119110071       -5.66081167042686
H           -1.83997102428615       -4.14532383513474       -4.48044822955335
H           -1.29767554115742       -2.04342105083775       -3.80833060756214
H           -0.53104244938826       -0.37448197549389       -2.23499616074652
H           -5.17752915618761       -2.10172429343440       -1.99342948666540
H           -6.37898331544398       -0.85790687463170        0.02807173169490
H           -7.00698999571170        1.19978171454623        4.14456959944034
H           -8.69153547913063        1.34569868216016        3.65823158146169
H           -7.50742740109891        2.48751768460730        3.03252096300367
H           -7.60648542062520       -1.63299103557678        1.77048167470263
H           -8.69503668330465       -1.00927958571253        3.00783724831774
H           -6.97576370815833       -1.20969806755924        3.36053481718983
H           -8.23809650690504        1.90210694742201        0.66900944916360
H           -9.44673373757799        0.84417604460018        1.40379326372654
H           -8.35654940132195        0.21587169328996        0.17097445725593
H           -5.27771378045200        2.04206120974095        2.98255778033600
H           -3.03079032242794        2.16544692553210        2.09675851050478
H           -2.05056548769397        3.22126499148905        0.23997415587286
H           -1.20855229391672        4.85488330029176       -1.62976300069971
H           -3.99976170446204        7.71729534581655       -0.76540447478966
H           -1.36738798745022        6.75835914367856        2.22245092537302
H            2.16918912844095        3.27786777875757        0.94869559831310
H            0.92814792093758       -1.01236288451467        2.13576000187357
H            1.82101041388213       -3.03022708834876        3.14242746130453
H            6.04463306202562       -5.34271784782916        3.23068977058737
H            5.93460513254502       -4.52987493465877        1.67332005729256
H            6.40682345837078       -3.62421514444771        3.12339129057422
H            3.07788571446071       -3.84213317635895        4.82678416325701
H            4.68722599444310       -3.13033794541193        4.92360634723880
H            4.48372627941026       -4.88072803233802        5.04707725177779
H            3.79202544141149       -6.21835603933052        2.96435333955284
H            2.39814820874860       -5.16284146085903        2.74879777259477
H            3.55031564816610       -5.37349341711582        1.43198981137059
H            5.68638496320536       -2.26911210915456        1.45890498945074
H            6.79146837076696       -0.39727388722260       -0.05782005593552
H            8.08989509882055       -0.51183403788315       -1.90448604630385
H            9.12061518670858        0.53447127643304       -2.87775609830807
H            7.42087033192667        0.31796745280610       -3.30781687248345
H            8.94183967349496        2.96475325470990       -2.78728903874151
H            7.27369809698346        2.85341766401740       -3.33602800714928
H            7.67458761347166        3.77804348039708       -1.87667395752151
H            8.43955696731684        2.56500200439403        0.21779500823458
H            8.68051598638550        0.81967172560708        0.19458449675072
H            9.72714366892588        1.86205407775445       -0.76612151547372
H            5.48889496828320        3.19362736387258       -1.99804962021972
H            3.24097424829137        2.89444104043400       -1.15239723519823
H            0.19736009020446       -0.40137515563829       -0.01131664004534

          :  Hamiltonian                  GFN2-xTB          :
         :: gradient norm              0.000047250375 Eh/a0 ::
         :: HOMO-LUMO gap              1.256098697411 eV    ::
         :: SCC energy              -155.259850771879 Eh    ::
         :: -> dispersion             -0.137360328219 Eh    ::
         :: -> Gsolv                  -0.060946666817 Eh    ::
         :: repulsion energy           2.565557889882 Eh    ::

    * Orbital Energies and Occupations

         #    Occupation            Energy/Eh            Energy/eV
      -------------------------------------------------------------
         1        2.0000           -0.7325389             -19.9334
       ...           ...                  ...                  ...
       130        2.0000           -0.4174274             -11.3588
       131        2.0000           -0.4121533             -11.2153
       132        2.0000           -0.4103089             -11.1651
       133        2.0000           -0.4101128             -11.1597
       134        2.0000           -0.4091989             -11.1349
       135        2.0000           -0.4082051             -11.1078
       136        2.0000           -0.3979142             -10.8278
       137        2.0000           -0.3975818             -10.8188
       138        2.0000           -0.3931212             -10.6974
       139        2.0000           -0.3781250             -10.2893
       140        2.0000           -0.3763124             -10.2400
       141        2.0000           -0.3625940              -9.8667
       142        2.0000           -0.3618582              -9.8467 (HOMO)
       143                         -0.3156975              -8.5906 (LUMO)
       144                         -0.2933637              -7.9828
       145                         -0.2750621              -7.4848
       146                         -0.2549377              -6.9372
       147                         -0.2441370              -6.6433
       148                         -0.2411766              -6.5627
       149                         -0.2219940              -6.0408
       150                         -0.2214042              -6.0247
       151                         -0.2202614              -5.9936
       152                         -0.1930686              -5.2537
       153                         -0.1896489              -5.1606
       ...                                ...                  ...
       278                          0.7425101              20.2047
      -------------------------------------------------------------
                  HL-Gap            0.0461608 Eh            1.2561 eV

     #   Z          covCN         q      C6AA      α(0)
     1   6 C        3.761    -0.105    22.553     6.770
     2   6 C        3.902     0.025    20.096     6.372
     3   6 C        3.761    -0.105    22.551     6.770
     4   6 C        3.761    -0.107    22.595     6.776
     5   6 C        2.972    -0.000    28.028     8.684
     6   6 C        2.928    -0.044    29.081     8.844
     7   6 C        2.909    -0.055    29.369     8.886
     8   6 C        3.068     0.042    26.988     8.518
     9   6 C        3.063    -0.018    28.392     8.738
    10   6 C        2.920    -0.039    28.980     8.828
    11   6 C        3.063    -0.018    28.392     8.738
    12   6 C        2.920    -0.040    28.985     8.829
    13   6 C        2.972    -0.001    28.037     8.685
    14   6 C        3.902     0.025    20.097     6.372
    15   6 C        3.761    -0.107    22.589     6.775
    16   6 C        3.761    -0.105    22.551     6.770
    17   6 C        3.761    -0.105    22.555     6.770
    18   6 C        2.928    -0.044    29.102     8.847
    19   6 C        2.909    -0.056    29.389     8.889
    20   6 C        3.069     0.041    27.002     8.520
    21   7 N        2.800    -0.046    22.130     6.987
    22   6 C        2.908     0.073    26.371     8.420
    23   6 C        2.923    -0.050    29.249     8.869
    24   6 C        2.970    -0.015    28.376     8.738
    25   6 C        2.827     0.229    23.206     7.894
    26   8 O        0.858    -0.394    21.564     6.226
    27   6 C        2.959    -0.025    28.627     8.776
    28   6 C        2.932     0.081    26.191     8.393
    29   7 N        1.834    -0.222    26.676     7.654
    30   6 C        2.923     0.153    24.688     8.148
    31   7 N        1.833    -0.223    26.700     7.657
    32   6 C        2.936     0.089    26.017     8.365
    33   6 C        2.928    -0.038    28.956     8.825
    34   6 C        2.908     0.073    26.362     8.419
    35   7 N        2.801    -0.045    22.107     6.983
    36   6 C        3.071     0.042    26.981     8.517
    37   6 C        2.909    -0.055    29.355     8.884
    38   6 C        2.931    -0.039    28.979     8.828
    39   6 C        2.972    -0.001    28.038     8.686
    40   6 C        3.902     0.025    20.097     6.372
    41   6 C        3.761    -0.107    22.590     6.775
    42   6 C        3.761    -0.105    22.550     6.769
    43   6 C        3.761    -0.105    22.555     6.770
    44   6 C        2.918    -0.044    29.093     8.845
    45   6 C        3.064    -0.019    28.404     8.739
    46   6 C        3.064    -0.018    28.397     8.738
    47   6 C        2.920    -0.040    28.996     8.830
    48   6 C        2.972    -0.001    28.039     8.686
    49   6 C        3.902     0.025    20.097     6.372
    50   6 C        3.761    -0.105    22.554     6.770
    51   6 C        3.761    -0.107    22.586     6.775
    52   6 C        3.761    -0.105    22.551     6.769
    53   6 C        2.928    -0.044    29.091     8.845
    54   6 C        2.909    -0.055    29.354     8.884
    55   6 C        3.070     0.042    26.984     8.517
    56   6 C        2.926    -0.054    29.353     8.885
    57   1 H        0.925     0.038     2.474     2.459
    58   1 H        0.925     0.033     2.550     2.497
    59   1 H        0.925     0.036     2.497     2.471
    60   1 H        0.925     0.032     2.553     2.499
    61   1 H        0.925     0.036     2.498     2.472
    62   1 H        0.925     0.038     2.471     2.458
    63   1 H        0.925     0.036     2.510     2.477
    64   1 H        0.925     0.037     2.484     2.465
    65   1 H        0.925     0.036     2.506     2.475
    66   1 H        0.926     0.040     2.443     2.444
    67   1 H        0.926     0.027     2.625     2.533
    68   1 H        0.926     0.034     2.537     2.491
    69   1 H        0.926     0.034     2.526     2.485
    70   1 H        0.925     0.035     2.515     2.480
    71   1 H        0.925     0.038     2.478     2.462
    72   1 H        0.925     0.035     2.520     2.483
    73   1 H        0.925     0.037     2.490     2.468
    74   1 H        0.925     0.039     2.466     2.456
    75   1 H        0.925     0.032     2.554     2.499
    76   1 H        0.925     0.032     2.557     2.501
    77   1 H        0.925     0.039     2.467     2.456
    78   1 H        0.925     0.037     2.489     2.467
    79   1 H        0.926     0.038     2.475     2.460
    80   1 H        0.926     0.021     2.723     2.580
    81   1 H        0.926     0.048     2.350     2.397
    82   1 H        0.925     0.061     2.187     2.313
    83   1 H        0.925     0.062     2.173     2.305
    84   1 H        0.925     0.062     2.175     2.307
    85   1 H        0.926     0.064     2.148     2.292
    86   1 H        0.926     0.026     2.641     2.541
    87   1 H        0.926     0.032     2.552     2.498
    88   1 H        0.925     0.037     2.488     2.467
    89   1 H        0.925     0.036     2.501     2.473
    90   1 H        0.925     0.036     2.508     2.476
    91   1 H        0.925     0.036     2.507     2.476
    92   1 H        0.925     0.032     2.556     2.500
    93   1 H        0.925     0.038     2.471     2.458
    94   1 H        0.925     0.038     2.472     2.459
    95   1 H        0.925     0.036     2.502     2.474
    96   1 H        0.925     0.033     2.545     2.495
    97   1 H        0.926     0.040     2.443     2.444
    98   1 H        0.926     0.034     2.525     2.485
    99   1 H        0.925     0.037     2.488     2.466
   100   1 H        0.925     0.038     2.471     2.458
   101   1 H        0.925     0.032     2.553     2.498
   102   1 H        0.925     0.037     2.484     2.465
   103   1 H        0.925     0.035     2.514     2.480
   104   1 H        0.925     0.035     2.521     2.483
   105   1 H        0.925     0.032     2.562     2.503
   106   1 H        0.925     0.037     2.490     2.468
   107   1 H        0.925     0.038     2.473     2.459
   108   1 H        0.926     0.038     2.472     2.459
   109   1 H        0.926     0.023     2.685     2.563
   110   1 H        0.926     0.066     2.128     2.281

molecular dipole:
                 x           y           z       tot (Debye)
 q only:       -0.459      -1.808      -0.619
   full:       -0.300      -1.812      -0.495       4.835

 projected vibrational frequencies (cm⁻¹)
eigval :       -0.00    -0.00    -0.00     0.00     0.00     0.00
eigval :        9.05    11.53    13.29    15.66    21.75    27.79
eigval :       28.33    31.31    31.70    34.41    43.00    44.93
eigval :       56.12    63.64    66.18    70.63    73.71    83.32
eigval :       85.67   106.19   113.36   123.10   145.88   153.56
eigval :      156.02   157.34   172.06   176.04   179.82   183.40
eigval :      191.11   193.63   197.95   199.72   216.67   217.85
eigval :      219.30   225.44   229.92   235.97   240.81   248.80
eigval :      259.03   263.65   264.57   275.61   287.15   301.32
eigval :      306.24   309.01   312.38   312.99   317.63   319.74
eigval :      322.94   323.94   328.76   334.53   345.43   355.51
eigval :      356.90   357.57   361.71   369.05   371.98   381.66
eigval :      397.63   400.87   403.30   411.70   412.48   431.19
eigval :      440.82   442.59   444.13   445.71   460.22   461.88
eigval :      462.37   463.33   469.39   471.72   484.55   512.31
eigval :      521.21   539.46   570.70   573.77   577.06   581.95
eigval :      583.55   590.08   600.92   609.49   621.93   639.47
eigval :      639.97   640.68   659.12   666.45   671.72   688.18
eigval :      688.68   701.61   706.52   707.88   711.37   718.45
eigval :      718.82   724.86   766.30   791.94   813.40   815.94
eigval :      818.91   823.41   831.76   833.93   835.80   847.42
eigval :      871.39   873.11   873.65   876.68   879.42   883.92
eigval :      887.62   897.89   900.45   908.80   911.27   913.58
eigval :      921.62   922.83   923.62   925.85   929.17   932.65
eigval :      934.16   958.05   959.01   959.17   959.68   961.32
eigval :      961.71   961.94   962.14   962.45   962.54   962.84
eigval :      963.21   991.92  1014.81  1029.51  1033.37  1034.45
eigval :     1034.51  1035.07  1035.45  1035.73  1036.15  1036.39
eigval :     1037.74  1043.57  1055.67  1113.74  1118.73  1129.63
eigval :     1130.80  1135.61  1139.24  1144.11  1168.38  1174.46
eigval :     1177.03  1180.92  1195.28  1218.04  1219.61  1224.84
eigval :     1225.30  1225.43  1225.77  1225.84  1227.12  1227.76
eigval :     1229.74  1231.02  1233.41  1235.56  1244.48  1245.91
eigval :     1246.88  1252.55  1254.61  1268.45  1283.10  1284.35
eigval :     1293.83  1300.23  1301.10  1305.25  1326.73  1336.97
eigval :     1345.44  1348.38  1358.57  1362.96  1387.26  1388.11
eigval :     1395.65  1399.10  1400.00  1401.91  1402.07  1402.19
eigval :     1402.60  1402.72  1403.07  1410.01  1410.83  1426.40
eigval :     1426.53  1426.65  1427.29  1430.23  1431.56  1451.15
eigval :     1459.78  1472.49  1472.87  1473.15  1480.94  1488.48
eigval :     1489.08  1489.18  1489.54  1490.46  1491.69  1492.47
eigval :     1493.40  1498.74  1498.80  1499.99  1501.00  1501.52
eigval :     1502.51  1503.14  1503.18  1511.24  1511.74  1512.52
eigval :     1513.16  1517.63  1517.96  1517.99  1518.02  1538.47
eigval :     1539.44  1554.49  1560.20  1571.20  1572.53  1583.04
eigval :     1584.66  1603.71  1604.45  1615.92  1617.54  1662.73
eigval :     3017.71  3018.63  3019.35  3019.42  3019.71  3019.94
eigval :     3020.42  3020.65  3022.92  3023.13  3023.30  3023.39
eigval :     3024.61  3024.76  3025.08  3025.32  3027.04  3027.23
eigval :     3027.32  3027.43  3029.97  3030.12  3030.21  3030.52
eigval :     3034.71  3035.28  3035.60  3035.62  3043.58  3044.43
eigval :     3044.54  3044.75  3047.04  3047.87  3048.13  3048.26
eigval :     3055.02  3057.25  3063.37  3073.22  3076.83  3077.24
eigval :     3081.34  3089.27  3090.80  3091.68  3092.05  3107.27
eigval :     3108.67  3113.09  3117.09  3117.18  3117.72  3118.51

   temp. (K)  partition function   enthalpy   heat capacity  entropy
                                   cal/mol     cal/K/mol   cal/K/mol   J/K/mol
 298.15  VIB  0.241E+26            32211.750    195.074    200.520
         ROT  0.159E+09              888.752      2.981     40.515
         INT  0.385E+34            33100.502    198.055    241.035
         TR   0.194E+29             1481.254      4.968     45.659
         TOT                       34581.7564   203.0227   286.6947  1199.5305

       T/K    H(0)-H(T)+PV         H(T)/Eh          T*S/Eh         G(T)/Eh
   ------------------------------------------------------------------------
    298.15    0.551095E-01    0.963960E+00    0.136218E+00    0.827742E+00
   ------------------------------------------------------------------------

         :::::::::::::::::::::::::::::::::::::::::::::::::::::
         ::                  THERMODYNAMIC                  ::
         :::::::::::::::::::::::::::::::::::::::::::::::::::::
         :: total free energy        -151.866550537344 Eh   ::
         ::.................................................::
         :: total energy             -152.694292884945 Eh   ::
         :: zero point energy           0.908850696276 Eh   ::
         :: G(RRHO) w/o ZPVE           -0.081108348676 Eh   ::
         :: G(RRHO) contrib.            0.827742347601 Eh   ::
         :::::::::::::::::::::::::::::::::::::::::::::::::::::

           -------------------------------------------------
          | TOTAL ENERGY             -152.694292884945 Eh   |
          | TOTAL ENTHALPY           -151.730332651942 Eh   |
          | TOTAL FREE ENERGY        -151.866550537344 Eh   |
          | GRADIENT NORM               0.000047248051 Eh/α |
          | HOMO-LUMO GAP               1.256098526345 eV   |
           -------------------------------------------------

 * finished run on 2025/09/04 at 02:24:57.172
