   * xtb version 6.7.1 (edcfbbe) compiled by 'albert@albert-system' on 2024-07-22

   ID    Z sym.   atoms
    1    8 O      1, 26, 45
    2    6 C      2-12, 14-18, 20-25, 27-37, 39-44, 46-55, 57, 58
    3    7 N      13, 19, 38, 56
    4    1 H      59-88

          program call               : xtb data2507/toluene/DPXZ-DPPM/DPXZ-DPPM_toluene_T1_crest.xyz --gfn 2 --uhf 2 --gbsa toluene --ohess vtight --parallel 40 --molden --ceasefiles --namespace data2507/toluene/DPXZ-DPPM/DPXZ-DPPM_toluene_T1_finalOpt
      * Solvation model:               GBSA
        Solvent                        toluene
        Solvent mass                       9.2140E+01 g/mol
          :  Hamiltonian                  GFN2-xTB          :
 * total energy  :  -148.4984993 Eh     change       -0.5952927E-09 Eh
 * total energy  :  -148.4986876 Eh     change       -0.1882422E-03 Eh
 * total energy  :  -148.4987668 Eh     change       -0.7920128E-04 Eh
 * total energy  :  -148.4987787 Eh     change       -0.1191722E-04 Eh
 * total energy  :  -148.4987937 Eh     change       -0.1502574E-04 Eh
 * total energy  :  -148.4988014 Eh     change       -0.7701865E-05 Eh
 * total energy  :  -148.4988233 Eh     change       -0.2188336E-04 Eh
 * total energy  :  -148.4988460 Eh     change       -0.2268006E-04 Eh
 * total energy  :  -148.4988531 Eh     change       -0.7077432E-05 Eh
 * total energy  :  -148.4988709 Eh     change       -0.1784342E-04 Eh
 * total energy  :  -148.4989648 Eh     change       -0.8270600E-06 Eh
 * total energy  :  -148.4989659 Eh     change       -0.1036201E-05 Eh
 * total energy  :  -148.4989672 Eh     change       -0.1356052E-05 Eh
 * total energy  :  -148.4989689 Eh     change       -0.1638979E-05 Eh
 * total energy  :  -148.4989706 Eh     change       -0.1732868E-05 Eh
 * total energy  :  -148.4989722 Eh     change       -0.1558596E-05 Eh
 * total energy  :  -148.4989724 Eh     change       -0.2608724E-06 Eh
 * total energy  :  -148.4989730 Eh     change       -0.5422806E-06 Eh
 * total energy  :  -148.4989730 Eh     change       -0.7905032E-07 Eh
   *** GEOMETRY OPTIMIZATION CONVERGED AFTER 46 ITERATIONS ***

 final structure:
================
88
 xtb: 6.7.1 (edcfbbe)
O            8.75507767100306       -2.75820381770221       -1.14439005554265
C            8.01131759347177       -1.89518086973499       -0.67211056065440
C            8.57498988831088       -0.61167696220588       -0.17842941358007
C            8.13880965621782       -0.02999387554808        1.01064179515246
C            8.72272852018146        1.13765085123017        1.46747086195183
C            9.74069141746573        1.73914941746381        0.74425987390419
C           10.18907140030015        1.15918948482684       -0.43180339451009
C            9.61757040607857       -0.01518367558367       -0.88466367718144
C            6.56436094538123       -2.09357451196018       -0.57233457058579
C            6.06640926222752       -3.40736322796580       -0.62480734688269
C            4.72504634695242       -3.66795506835607       -0.53588720842483
C            3.79781247229812       -2.61718349915175       -0.41340446876406
N            2.49411093785415       -2.84769441753990       -0.33082161684011
C            1.63235536944412       -1.83075075131441       -0.22694582512175
C            0.23109447105319       -2.08342797116575       -0.12511977257937
C           -0.23616039499380       -3.40973148526671       -0.14725315637505
C           -1.57223552830842       -3.69308700440517       -0.06394172688750
C           -2.49019253055530       -2.63991397646646        0.06602140952618
N           -3.87747167490520       -2.91758921760890        0.15176820479300
C           -4.74396763624274       -2.50647721166473       -0.85650880000396
C           -4.30108938736028       -1.83884278713962       -1.99575193256839
C           -5.19560198219570       -1.44011672855621       -2.97398868755628
C           -6.54696266158107       -1.70660405354490       -2.84063679358029
C           -7.00346551930928       -2.39220269383441       -1.72648876700625
C           -6.11430562980859       -2.79520879822579       -0.74447021329809
O           -6.63094497873801       -3.49027197219821        0.31720283713844
C           -5.76476002752162       -3.88741142406220        1.30149400252855
C           -6.30202315496824       -4.57450728709877        2.37669875899288
C           -5.48606752057386       -4.98335014432174        3.41939866227480
C           -4.13445899851160       -4.68770585282811        3.38790975054146
C           -3.59019441839991       -4.00176208653921        2.31570344494259
C           -4.38950258754931       -3.60662112782832        1.24606296428559
C           -2.05167769553443       -1.33252813978103        0.10096674452081
C           -0.69222006730420       -1.01465337364507       -0.00667616736013
C           -0.20750364370795        0.34529235956453       -0.01515686193668
C           -1.06246921300064        1.45282340034574        0.06565502872016
C           -0.57604444848737        2.74258159869369        0.01502182725015
N           -1.47672166682608        3.83535683050226        0.05887260341168
C           -2.38800270564633        4.04292707160311       -0.97336409426255
C           -2.46662003891115        3.20421271692126       -2.08231660408693
C           -3.39058751817725        3.44223248025039       -3.08540356513149
C           -4.24695166502968        4.52636086031278       -3.00874531878988
C           -4.16615581751533        5.38707030964839       -1.92601705450508
C           -3.24427399045328        5.15526384345655       -0.91916071521028
O           -3.20320753209464        6.06159986865170        0.10760558884646
C           -2.30676080356684        5.83857072280515        1.11928842690522
C           -2.29117316653644        6.74908883562186        2.16214549745211
C           -1.42627692192718        6.56987611826267        3.22987079485018
C           -0.59028495741724        5.46743494417201        3.25648810186779
C           -0.59998156137743        4.55340794197044        2.21673687777474
C           -1.44187617566606        4.73205125528721        1.12216943072253
C            0.80173029420560        2.97751823835249       -0.09433648375856
C            1.65890102942331        1.91053738914584       -0.15434236309940
C            1.18125539185714        0.59147165928133       -0.12633131314595
C            2.11547460483678       -0.49463687458134       -0.22119862112756
N            3.41418150237345       -0.24885417404156       -0.30626588955475
C            4.29366172760839       -1.26231303363440       -0.39306035557113
C            5.66163765040593       -1.03084761671820       -0.47155989790463
H            7.35854807696358       -0.50842272022898        1.58487809938661
H            8.38282553411672        1.57904533644140        2.39299546265149
H           10.18971268213747        2.65425895868599        1.10146301884143
H           10.98850854806136        1.61939156026337       -0.99389271105037
H            9.96235784792258       -0.48599444168757       -1.79442321552785
H            6.78041775238420       -4.21288551411848       -0.72184888803137
H            4.34762081067412       -4.67901833108819       -0.55543411902336
H            0.49645323890935       -4.19566134244161       -0.24561983484159
H           -1.92843853867809       -4.71135802906265       -0.10056003624562
H           -3.24862408995214       -1.63914854248446       -2.11776971108493
H           -4.82706056727453       -0.92184367741107       -3.84538204132336
H           -7.24549859093981       -1.39426827590621       -3.60041640924923
H           -8.04742273127949       -2.63089095439993       -1.59927824873184
H           -7.36172942676933       -4.77466197780162        2.37785315776196
H           -5.91049749231856       -5.52078973956730        4.25237049156513
H           -3.49316778743442       -4.98734329819859        4.20218768837462
H           -2.53817351693374       -3.76555965023698        2.30725702544827
H           -2.78991610306778       -0.55454306548552        0.21186983963641
H           -2.12762693840572        1.31709994083276        0.16240350868029
H           -1.79363978813645        2.36578844624505       -2.16279273053158
H           -3.43267249924561        2.77464684500474       -3.93181141891550
H           -4.96900200572266        4.71186949150350       -3.78783305753287
H           -4.80603932360366        6.25117309267141       -1.84286085834672
H           -2.96715791176089        7.58821950642459        2.11834434596466
H           -1.41735013152063        7.28447916741667        4.03742294514619
H            0.07531272810452        5.30940152553622        4.09077970388889
H            0.04651127690107        3.69119666213677        2.25352103764896
H            1.17094887269567        3.99070703177896       -0.13857841450454
H            2.72466616919724        2.05469001908406       -0.24221126214285
H            6.00587569432437       -0.00818363625904       -0.47896192657664

          :  Hamiltonian                  GFN2-xTB          :
         :: gradient norm              0.000061973145 Eh/a0 ::
         :: HOMO-LUMO gap              0.741962455073 eV    ::
         :: SCC energy              -151.061131476003 Eh    ::
         :: -> dispersion             -0.126859554449 Eh    ::
         :: -> Gsolv                  -0.071055951662 Eh    ::
         :: repulsion energy           2.562158433911 Eh    ::

    * Orbital Energies and Occupations

         #    Occupation            Energy/Eh            Energy/eV
      -------------------------------------------------------------
         1        2.0000           -0.7452755             -20.2800
       ...           ...                  ...                  ...
       125        2.0000           -0.4183289             -11.3833
       126        2.0000           -0.4098229             -11.1518
       127        2.0000           -0.4079714             -11.1015
       128        2.0000           -0.4052246             -11.0267
       129        2.0000           -0.4035594             -10.9814
       130        2.0000           -0.4025614             -10.9543
       131        2.0000           -0.3970698             -10.8048
       132        2.0000           -0.3905766             -10.6281
       133        2.0000           -0.3827819             -10.4160
       134        1.8378           -0.3557854              -9.6814
       135        1.8222           -0.3556805              -9.6786
       136        1.3400           -0.3535955              -9.6218
       137        1.0000           -0.3083936              -8.3918 (HOMO)
       138        0.0000           -0.2811267              -7.6498 (LUMO)
       139                         -0.2670390              -7.2665
       140                         -0.2623510              -7.1389
       141                         -0.2515830              -6.8459
       142                         -0.2514669              -6.8428
       143                         -0.2409588              -6.5568
       144                         -0.2408536              -6.5540
       145                         -0.2334586              -6.3527
       146                         -0.2281459              -6.2082
       147                         -0.2279056              -6.2016
       148                         -0.2250317              -6.1234
       ...                                ...                  ...
       262                          0.7057023              19.2031
      -------------------------------------------------------------
                  HL-Gap            0.0272668 Eh            0.7420 eV

     #   Z          covCN         q      C6AA      α(0)
     1   8 O        0.858    -0.462    22.958     6.424
     2   6 C        2.830     0.213    23.510     7.945
     3   6 C        2.972    -0.013    28.340     8.732
     4   6 C        2.921    -0.028    28.698     8.785
     5   6 C        2.918    -0.028    28.709     8.786
     6   6 C        2.920    -0.026    28.661     8.779
     7   6 C        2.918    -0.028    28.707     8.786
     8   6 C        2.924    -0.020    28.518     8.757
     9   6 C        2.967    -0.029    28.719     8.790
    10   6 C        2.921    -0.023    28.570     8.765
    11   6 C        2.915    -0.060    29.483     8.904
    12   6 C        2.947     0.093    25.924     8.351
    13   7 N        1.848    -0.254    27.454     7.766
    14   6 C        2.947     0.074    26.353     8.420
    15   6 C        2.986    -0.008    28.220     8.714
    16   6 C        2.923    -0.028    28.703     8.786
    17   6 C        2.916    -0.041    29.028     8.835
    18   6 C        2.920     0.055    26.763     8.484
    19   7 N        2.752    -0.044    22.086     6.980
    20   6 C        2.922     0.044    27.024     8.525
    21   6 C        2.922    -0.055    29.377     8.888
    22   6 C        2.918    -0.033    28.833     8.805
    23   6 C        2.919    -0.034    28.849     8.808
    24   6 C        2.918    -0.054    29.338     8.882
    25   6 C        2.884     0.127    25.210     8.231
    26   8 O        1.709    -0.247    18.086     5.742
    27   6 C        2.884     0.127    25.211     8.232
    28   6 C        2.918    -0.054    29.342     8.883
    29   6 C        2.919    -0.034    28.847     8.808
    30   6 C        2.918    -0.033    28.831     8.805
    31   6 C        2.922    -0.055    29.357     8.885
    32   6 C        2.923     0.044    27.010     8.523
    33   6 C        2.923    -0.046    29.134     8.851
    34   6 C        2.977     0.000    28.023     8.683
    35   6 C        2.977     0.003    27.946     8.671
    36   6 C        2.923    -0.046    29.153     8.854
    37   6 C        2.920     0.058    26.693     8.472
    38   7 N        2.752    -0.045    22.104     6.983
    39   6 C        2.922     0.043    27.029     8.526
    40   6 C        2.922    -0.056    29.384     8.889
    41   6 C        2.918    -0.034    28.835     8.806
    42   6 C        2.919    -0.034    28.851     8.808
    43   6 C        2.918    -0.054    29.338     8.882
    44   6 C        2.884     0.127    25.210     8.232
    45   8 O        1.709    -0.247    18.094     5.743
    46   6 C        2.884     0.127    25.212     8.232
    47   6 C        2.918    -0.054    29.343     8.883
    48   6 C        2.919    -0.034    28.849     8.808
    49   6 C        2.918    -0.033    28.834     8.806
    50   6 C        2.922    -0.055    29.358     8.885
    51   6 C        2.923     0.044    27.015     8.524
    52   6 C        2.917    -0.042    29.040     8.837
    53   6 C        2.923    -0.026    28.662     8.780
    54   6 C        2.987    -0.009    28.225     8.715
    55   6 C        2.944     0.083    26.147     8.387
    56   7 N        1.849    -0.259    27.600     7.786
    57   6 C        2.942     0.083    26.156     8.388
    58   6 C        2.919    -0.062    29.549     8.914
    59   1 H        0.926     0.034     2.526     2.485
    60   1 H        0.926     0.042     2.419     2.432
    61   1 H        0.926     0.044     2.401     2.423
    62   1 H        0.926     0.041     2.433     2.439
    63   1 H        0.926     0.036     2.500     2.473
    64   1 H        0.926     0.044     2.397     2.421
    65   1 H        0.926     0.046     2.365     2.405
    66   1 H        0.926     0.056     2.243     2.342
    67   1 H        0.926     0.049     2.336     2.390
    68   1 H        0.926     0.049     2.332     2.388
    69   1 H        0.926     0.051     2.303     2.373
    70   1 H        0.926     0.052     2.291     2.367
    71   1 H        0.926     0.058     2.228     2.334
    72   1 H        0.926     0.058     2.228     2.334
    73   1 H        0.926     0.052     2.300     2.372
    74   1 H        0.926     0.050     2.321     2.382
    75   1 H        0.926     0.049     2.334     2.389
    76   1 H        0.926     0.051     2.305     2.374
    77   1 H        0.926     0.053     2.285     2.364
    78   1 H        0.926     0.049     2.334     2.389
    79   1 H        0.926     0.051     2.305     2.374
    80   1 H        0.926     0.052     2.292     2.368
    81   1 H        0.926     0.057     2.229     2.335
    82   1 H        0.926     0.057     2.229     2.335
    83   1 H        0.926     0.052     2.301     2.372
    84   1 H        0.926     0.050     2.320     2.382
    85   1 H        0.926     0.049     2.338     2.391
    86   1 H        0.926     0.050     2.323     2.383
    87   1 H        0.926     0.058     2.227     2.334
    88   1 H        0.926     0.043     2.407     2.426

molecular dipole:
                 x           y           z       tot (Debye)
 q only:       -6.402       2.599       0.969
   full:       -6.224       2.535       0.982      17.264

 projected vibrational frequencies (cm⁻¹)
eigval :       -0.00    -0.00    -0.00    -0.00     0.00     0.00
eigval :        9.24    12.25    13.28    18.36    21.86    27.30
eigval :       30.58    36.23    39.97    47.78    50.38    55.60
eigval :       71.39    77.14    93.05    98.73   110.12   112.39
eigval :      119.77   121.82   135.72   144.95   156.69   171.53
eigval :      183.77   205.60   224.07   227.26   243.59   245.54
eigval :      247.91   250.81   264.48   268.47   274.80   289.32
eigval :      290.90   319.16   334.87   339.84   360.09   363.27
eigval :      369.16   372.04   389.23   389.47   394.19   404.53
eigval :      416.91   418.76   421.06   430.49   432.14   439.24
eigval :      441.01   442.93   451.43   456.93   474.79   487.11
eigval :      503.86   504.19   505.27   514.54   518.12   526.90
eigval :      528.28   542.07   553.47   568.14   571.48   576.03
eigval :      578.69   585.76   588.62   598.16   615.76   619.73
eigval :      626.80   638.97   639.85   652.67   663.39   664.22
eigval :      666.30   667.21   667.87   669.83   686.49   692.42
eigval :      696.00   704.30   708.00   723.26   731.59   763.17
eigval :      770.65   774.76   776.52   776.82   779.69   798.71
eigval :      809.59   815.64   825.35   827.24   831.62   838.57
eigval :      854.55   854.74   858.30   864.73   866.33   866.81
eigval :      867.81   870.23   879.57   879.92   899.24   899.66
eigval :      899.77   902.02   903.80   905.69   908.60   914.85
eigval :      915.17   915.56   916.67   917.19   918.12   921.88
eigval :      922.01   930.39   931.69   959.74   966.99   997.87
eigval :     1006.83  1038.95  1063.71  1079.83  1084.43  1086.68
eigval :     1088.05  1088.63  1110.13  1110.56  1115.72  1116.74
eigval :     1121.74  1136.30  1139.35  1145.13  1159.43  1165.26
eigval :     1166.36  1171.27  1172.89  1177.47  1179.36  1184.12
eigval :     1189.62  1199.41  1199.95  1202.65  1204.68  1216.97
eigval :     1223.38  1228.55  1237.90  1239.23  1242.61  1254.13
eigval :     1255.09  1256.98  1264.47  1276.14  1279.30  1293.73
eigval :     1296.72  1301.13  1306.94  1307.76  1312.85  1317.73
eigval :     1318.56  1320.92  1332.10  1335.70  1339.43  1345.79
eigval :     1347.33  1365.49  1395.17  1404.51  1417.20  1417.66
eigval :     1418.79  1423.14  1425.97  1439.25  1440.51  1452.88
eigval :     1453.49  1454.36  1460.96  1466.54  1469.14  1471.34
eigval :     1486.25  1503.63  1510.81  1532.61  1538.12  1559.10
eigval :     1559.70  1564.30  1567.15  1567.34  1572.53  1575.49
eigval :     1576.85  1577.55  1583.55  1587.79  1590.37  1597.27
eigval :     3071.32  3072.54  3077.31  3078.72  3082.85  3089.70
eigval :     3089.85  3091.01  3091.32  3092.71  3093.17  3093.52
eigval :     3093.63  3094.49  3101.06  3101.38  3101.71  3102.16
eigval :     3102.35  3102.85  3103.24  3109.03  3109.83  3110.49
eigval :     3110.64  3112.03  3113.33  3113.50  3114.03  3114.62

   temp. (K)  partition function   enthalpy   heat capacity  entropy
                                   cal/mol     cal/K/mol   cal/K/mol   J/K/mol
 298.15  VIB  0.377E+21            26117.644    165.891    161.497
         ROT  0.177E+09              888.752      2.981     40.727
         INT  0.669E+29            27006.397    168.872    202.224
         TR   0.197E+29             1481.254      4.968     45.691
         TOT                       28487.6506   173.8403   247.9149  1037.2759

       T/K    H(0)-H(T)+PV         H(T)/Eh          T*S/Eh         G(T)/Eh
   ------------------------------------------------------------------------
    298.15    0.453980E-01    0.694803E+00    0.117792E+00    0.577010E+00
   ------------------------------------------------------------------------

         :::::::::::::::::::::::::::::::::::::::::::::::::::::
         ::                  THERMODYNAMIC                  ::
         :::::::::::::::::::::::::::::::::::::::::::::::::::::
         :: total free energy        -147.921962828993 Eh   ::
         ::.................................................::
         :: total energy             -148.498973047344 Eh   ::
         :: zero point energy           0.649404617682 Eh   ::
         :: G(RRHO) w/o ZPVE           -0.072394399331 Eh   ::
         :: G(RRHO) contrib.            0.577010218352 Eh   ::
         :::::::::::::::::::::::::::::::::::::::::::::::::::::

           -------------------------------------------------
          | TOTAL ENERGY             -148.498973047344 Eh   |
          | TOTAL ENTHALPY           -147.804170468776 Eh   |
          | TOTAL FREE ENERGY        -147.921962828993 Eh   |
          | GRADIENT NORM               0.000057328201 Eh/α |
          | HOMO-LUMO GAP               0.741968358350 eV   |
           -------------------------------------------------

 * finished run on 2025/09/09 at 04:32:28.958
