   * xtb version 6.7.1 (edcfbbe) compiled by 'albert@albert-system' on 2024-07-22

   ID    Z sym.   atoms
    1    8 O      1, 26, 45
    2    6 C      2-12, 14-18, 20-25, 27-37, 39-44, 46-55, 57, 58
    3    7 N      13, 19, 38, 56
    4    1 H      59-88

          program call               : xtb data2507/toluene/DPXZ-DPPM/DPXZ-DPPM.xyz --gfn 2 --gbsa toluene --ohess vtight --parallel 40 --molden --ceasefiles --namespace data2507/toluene/DPXZ-DPPM/DPXZ-DPPM_toluene_S0_preOpt
      * Solvation model:               GBSA
        Solvent                        toluene
        Solvent mass                       9.2140E+01 g/mol
          :  Hamiltonian                  GFN2-xTB          :
 * total energy  :  -148.5096316 Eh     change       -0.3587843E-08 Eh
 * total energy  :  -148.5270771 Eh     change       -0.1744547E-01 Eh
 * total energy  :  -148.5326561 Eh     change       -0.5578948E-02 Eh
 * total energy  :  -148.5341296 Eh     change       -0.1473579E-02 Eh
 * total energy  :  -148.5351020 Eh     change       -0.9723608E-03 Eh
 * total energy  :  -148.5353936 Eh     change       -0.2915989E-03 Eh
 * total energy  :  -148.5354833 Eh     change       -0.8970477E-04 Eh
 * total energy  :  -148.5355378 Eh     change       -0.5455096E-04 Eh
 * total energy  :  -148.5355858 Eh     change       -0.4793361E-04 Eh
 * total energy  :  -148.5356364 Eh     change       -0.5058218E-04 Eh
 * total energy  :  -148.5380904 Eh     change       -0.3478858E-06 Eh
 * total energy  :  -148.5380906 Eh     change       -0.2450303E-06 Eh
 * total energy  :  -148.5380909 Eh     change       -0.2812156E-06 Eh
 * total energy  :  -148.5380912 Eh     change       -0.2843269E-06 Eh
 * total energy  :  -148.5380914 Eh     change       -0.1946950E-06 Eh
 * total energy  :  -148.5380916 Eh     change       -0.1841455E-06 Eh
 * total energy  :  -148.5380917 Eh     change       -0.1538961E-06 Eh
 * total energy  :  -148.5380918 Eh     change       -0.1199215E-06 Eh
 * total energy  :  -148.5380919 Eh     change       -0.6605933E-07 Eh
   *** GEOMETRY OPTIMIZATION CONVERGED AFTER 139 ITERATIONS ***

 final structure:
================
88
 xtb: 6.7.1 (edcfbbe)
O            8.62732076319438       -2.91448905217246        1.39225285396412
C            7.95976785293678       -2.11952067795613        0.74864849069352
C            8.57147761957130       -0.94421996842173        0.08903303906010
C            8.07140368834117       -0.42188003255718       -1.10393815601451
C            8.69352797324844        0.66043889877664       -1.69894966512010
C            9.81062984389394        1.23442081956983       -1.11180707619043
C           10.32140212055738        0.71209257399294        0.06665588472631
C            9.71257709894428       -0.37785734435285        0.65833615412188
C            6.49070532744305       -2.29711491988642        0.60562700529329
C            5.97652873707483       -3.61669032576592        0.59905244282615
C            4.63728568039997       -3.85273026830630        0.50361008862670
C            3.73573866765668       -2.76791674397573        0.42816369233500
N            2.41761493136863       -2.99553108472890        0.33167367504400
C            1.60845175422801       -1.95252737953837        0.27759844892636
C            0.18651480198048       -2.17279307509394        0.16126467432836
C           -0.30591677210946       -3.48170803651515        0.10257074839746
C           -1.65016687557034       -3.72763266172344       -0.02806308495716
C           -2.53969252022362       -2.65195801442833       -0.11557695821088
N           -3.92179198523639       -2.88582706476879       -0.25973707682473
C           -4.41205426704116       -3.58108936758864       -1.37004569775426
C           -3.58904656666896       -3.99318285632426       -2.41168287955451
C           -4.10820389050710       -4.67551293321970       -3.50148429721793
C           -5.45982586476152       -4.94647723826565       -3.57728332002911
C           -6.30061523342697       -4.51111253999361       -2.56352315687196
C           -5.78715908859755       -3.82913994000401       -1.47543684272013
O           -6.68891368380019       -3.40035623067731       -0.53014251041882
C           -6.19278621820051       -2.71050949920727        0.55063611370866
C           -7.11057365284088       -2.29262872086220        1.49720215766532
C           -6.68767447478650       -1.61957541905508        2.63392050946372
C           -5.34003027009607       -1.38728508350670        2.82291830224627
C           -4.41647242204375       -1.80381864044087        1.87613175551694
C           -4.82549301654782       -2.44956388895215        0.71498165639407
C           -2.06263461259953       -1.35178187576745       -0.05661206440268
C           -0.70174487255298       -1.07920646990777        0.09679731880537
C           -0.18559197310214        0.28136935213154        0.17622811850207
C           -1.02472989319681        1.39770264805951        0.17793322791885
C           -0.51730404474558        2.68606462433824        0.23930855673944
N           -1.39630783123782        3.78780606229604        0.22930386774009
C           -2.23898396187808        4.02101155438961       -0.86273543738618
C           -2.23676237275204        3.21243709024830       -1.99351552492086
C           -3.08399310652242        3.47522830359570       -3.05944263891764
C           -3.93911887152697        4.55825251549415       -3.02185867193451
C           -3.93083747411056        5.39494176856552       -1.91551836983235
C           -3.08746560287011        5.13659803943506       -0.85027459492595
O           -3.11706770509588        6.03130091681967        0.19338819778982
C           -2.28294976158614        5.78805797879737        1.25916256651452
C           -2.33606116325181        6.68505164157557        2.31039658438298
C           -1.55011847809831        6.49087368929395        3.43684163700203
C           -0.72950780783417        5.38308533724151        3.50923476227950
C           -0.67293473333101        4.48149749745231        2.45720192598695
C           -1.42665352334662        4.67994035298204        1.30627153711172
C            0.86429846735972        2.89037092401863        0.30968643665179
C            1.70597679533024        1.80587991499894        0.33156754955197
C            1.20386460221043        0.50110885399401        0.27083822141888
C            2.11819730906719       -0.61606596091354        0.31870895383063
N            3.41397146178327       -0.38096346651112        0.40734916387771
C            4.24474634361843       -1.43484407219047        0.46179333789339
C            5.63473262873109       -1.22218255130430        0.54946412034752
H            7.21363265565142       -0.87888978546855       -1.57473743825817
H            8.30582588128935        1.05728247104827       -2.62541639194960
H           10.28805734317365        2.08395925186315       -1.57721982083573
H           11.19672897346001        1.15177572325248        0.52106627236229
H           10.09817358214848       -0.80242730052330        1.57401730125882
H            6.68230806891166       -4.43148561728254        0.66881583911715
H            4.23566241851941       -4.85407761300191        0.48930536553759
H            0.40397866871099       -4.29067098717449        0.17056533915211
H           -2.02767402518510       -4.73832688876065       -0.06004260158720
H           -2.53370047729014       -3.77398549993186       -2.37585735810051
H           -3.44352030015331       -4.98821014095127       -4.29211290398933
H           -5.86871895076437       -5.48097818079025       -4.42013510841857
H           -7.36437817017945       -4.68654813328390       -2.59991177939097
H           -8.15333567186255       -2.51051183261822        1.32738998682701
H           -7.41128915753006       -1.29502907535176        3.36493105134346
H           -4.99172587705822       -0.88388227199975        3.71169939566233
H           -3.36582258794595       -1.63329330939772        2.05012639504169
H           -2.77824001076375       -0.55049929163612       -0.14593872169006
H           -2.09592388856842        1.28145533994690        0.14441074128769
H           -1.55978428410048        2.37475509518921       -2.04900306266671
H           -3.06266170256205        2.82563148066902       -3.92105893433631
H           -4.60328796849183        4.76604722861097       -3.84585363101264
H           -4.56988469984239        6.26230077844993       -1.86104661924187
H           -3.00471285815004        7.52762298051032        2.22885140523230
H           -1.59521810791600        7.19801281124156        4.24998892704995
H           -0.12776876393893        5.20563039089160        4.38737059276924
H           -0.04044440913988        3.61160437089730        2.53690925301193
H            1.25558124967504        3.89576892385130        0.34403083681767
H            2.77539752006689        1.93238113655159        0.38936771111187
H            5.99319367289069       -0.20525000802110        0.59536320442108

          :  Hamiltonian                  GFN2-xTB          :
         :: gradient norm              0.000036794426 Eh/a0 ::
         :: HOMO-LUMO gap              0.790320484749 eV    ::
         :: SCC energy              -151.101370543195 Eh    ::
         :: -> dispersion             -0.126384654822 Eh    ::
         :: -> Gsolv                  -0.063900768198 Eh    ::
         :: repulsion energy           2.563278650327 Eh    ::

    * Orbital Energies and Occupations

         #    Occupation            Energy/Eh            Energy/eV
      -------------------------------------------------------------
         1        2.0000           -0.7327155             -19.9382
       ...           ...                  ...                  ...
       124        2.0000           -0.4187904             -11.3959
       125        2.0000           -0.4185915             -11.3905
       126        2.0000           -0.4166583             -11.3378
       127        2.0000           -0.4157880             -11.3142
       128        2.0000           -0.4136572             -11.2562
       129        2.0000           -0.4065594             -11.0630
       130        2.0000           -0.4035783             -10.9819
       131        2.0000           -0.4009543             -10.9105
       132        2.0000           -0.3934334             -10.7059
       133        2.0000           -0.3930899             -10.6965
       134        2.0000           -0.3632213              -9.8838
       135        2.0000           -0.3475443              -9.4572
       136        2.0000           -0.3472150              -9.4482 (HOMO)
       137        0.0000           -0.3181714              -8.6579 (LUMO)
       138                         -0.2937754              -7.9940
       139                         -0.2759509              -7.5090
       140                         -0.2677433              -7.2857
       141                         -0.2416933              -6.5768
       142                         -0.2414578              -6.5704
       143                         -0.2407894              -6.5522
       144                         -0.2365807              -6.4377
       145                         -0.2349744              -6.3940
       146                         -0.2330019              -6.3403
       147                         -0.2327520              -6.3335
       ...                                ...                  ...
       262                          0.7013575              19.0849
      -------------------------------------------------------------
                  HL-Gap            0.0290437 Eh            0.7903 eV

     #   Z          covCN         q      C6AA      α(0)
     1   8 O        0.858    -0.411    21.908     6.275
     2   6 C        2.829     0.228    23.215     7.895
     3   6 C        2.972    -0.014    28.354     8.734
     4   6 C        2.920    -0.025    28.617     8.772
     5   6 C        2.918    -0.025    28.626     8.774
     6   6 C        2.920    -0.020    28.497     8.754
     7   6 C        2.917    -0.025    28.623     8.773
     8   6 C        2.924    -0.016    28.409     8.741
     9   6 C        2.968    -0.010    28.261     8.720
    10   6 C        2.920    -0.020    28.501     8.755
    11   6 C        2.915    -0.041    29.030     8.835
    12   6 C        2.965     0.085    26.107     8.381
    13   7 N        1.848    -0.254    27.458     7.766
    14   6 C        2.959     0.086    26.076     8.376
    15   6 C        2.987    -0.008    28.204     8.711
    16   6 C        2.923    -0.026    28.651     8.778
    17   6 C        2.918    -0.039    28.970     8.826
    18   6 C        2.919     0.069    26.456     8.435
    19   7 N        2.751    -0.068    22.551     7.053
    20   6 C        2.921     0.041    27.070     8.532
    21   6 C        2.924    -0.060    29.485     8.905
    22   6 C        2.919    -0.038    28.955     8.824
    23   6 C        2.919    -0.040    28.989     8.829
    24   6 C        2.919    -0.057    29.422     8.895
    25   6 C        2.883     0.123    25.294     8.245
    26   8 O        1.708    -0.269    18.463     5.801
    27   6 C        2.883     0.123    25.292     8.245
    28   6 C        2.919    -0.057    29.423     8.895
    29   6 C        2.919    -0.040    28.993     8.830
    30   6 C        2.919    -0.039    28.963     8.825
    31   6 C        2.924    -0.061    29.508     8.908
    32   6 C        2.920     0.041    27.077     8.533
    33   6 C        2.925    -0.047    29.155     8.855
    34   6 C        2.976     0.009    27.807     8.650
    35   6 C        2.976     0.009    27.814     8.651
    36   6 C        2.925    -0.047    29.157     8.855
    37   6 C        2.918     0.069    26.461     8.435
    38   7 N        2.751    -0.068    22.566     7.055
    39   6 C        2.920     0.041    27.076     8.533
    40   6 C        2.924    -0.061    29.514     8.909
    41   6 C        2.919    -0.039    28.966     8.826
    42   6 C        2.919    -0.040    28.998     8.831
    43   6 C        2.919    -0.057    29.425     8.895
    44   6 C        2.883     0.123    25.295     8.245
    45   8 O        1.708    -0.270    18.472     5.803
    46   6 C        2.883     0.123    25.296     8.245
    47   6 C        2.919    -0.057    29.425     8.895
    48   6 C        2.919    -0.040    28.993     8.830
    49   6 C        2.919    -0.039    28.957     8.824
    50   6 C        2.924    -0.060    29.489     8.905
    51   6 C        2.921     0.042    27.069     8.532
    52   6 C        2.918    -0.039    28.970     8.826
    53   6 C        2.923    -0.026    28.658     8.779
    54   6 C        2.987    -0.008    28.206     8.712
    55   6 C        2.959     0.086    26.092     8.378
    56   7 N        1.848    -0.253    27.451     7.765
    57   6 C        2.964     0.082    26.168     8.391
    58   6 C        2.919    -0.039    28.979     8.828
    59   1 H        0.926     0.042     2.427     2.436
    60   1 H        0.926     0.049     2.331     2.387
    61   1 H        0.926     0.051     2.309     2.376
    62   1 H        0.926     0.049     2.337     2.391
    63   1 H        0.926     0.048     2.351     2.398
    64   1 H        0.926     0.058     2.224     2.332
    65   1 H        0.926     0.062     2.175     2.306
    66   1 H        0.926     0.067     2.123     2.279
    67   1 H        0.926     0.054     2.274     2.358
    68   1 H        0.926     0.041     2.432     2.438
    69   1 H        0.926     0.043     2.411     2.428
    70   1 H        0.926     0.043     2.403     2.424
    71   1 H        0.926     0.049     2.332     2.388
    72   1 H        0.926     0.049     2.331     2.387
    73   1 H        0.926     0.043     2.407     2.426
    74   1 H        0.926     0.042     2.420     2.433
    75   1 H        0.926     0.041     2.440     2.443
    76   1 H        0.926     0.054     2.265     2.353
    77   1 H        0.926     0.054     2.267     2.355
    78   1 H        0.926     0.041     2.439     2.442
    79   1 H        0.926     0.042     2.422     2.434
    80   1 H        0.926     0.043     2.410     2.428
    81   1 H        0.926     0.049     2.335     2.389
    82   1 H        0.926     0.049     2.334     2.389
    83   1 H        0.926     0.043     2.407     2.426
    84   1 H        0.926     0.042     2.417     2.431
    85   1 H        0.926     0.041     2.438     2.442
    86   1 H        0.926     0.054     2.275     2.359
    87   1 H        0.926     0.066     2.126     2.280
    88   1 H        0.926     0.062     2.174     2.306

molecular dipole:
                 x           y           z       tot (Debye)
 q only:       -0.579       1.084      -0.876
   full:       -0.524       1.055      -0.875       3.731

 projected vibrational frequencies (cm⁻¹)
eigval :       -0.00    -0.00    -0.00     0.00     0.00     0.00
eigval :        9.88    12.48    16.18    19.41    19.96    28.47
eigval :       32.45    34.93    42.05    44.69    49.26    53.78
eigval :       71.25    76.73    93.62    97.80   106.87   111.91
eigval :      121.73   126.91   136.96   146.50   153.50   170.48
eigval :      191.06   207.66   217.03   234.62   243.49   249.56
eigval :      250.91   253.75   262.64   265.97   275.14   286.89
eigval :      289.39   319.90   335.60   340.91   359.53   368.48
eigval :      372.58   373.05   386.75   389.32   394.57   406.13
eigval :      417.91   418.49   420.88   428.80   431.36   437.83
eigval :      441.62   443.36   447.83   454.95   462.64   484.48
eigval :      499.91   510.80   511.01   514.92   519.83   524.41
eigval :      529.00   549.18   560.31   567.32   579.60   580.98
eigval :      584.24   587.37   594.03   599.83   618.50   625.23
eigval :      633.03   647.62   651.84   660.46   660.94   662.25
eigval :      662.84   665.80   671.15   673.29   693.78   696.77
eigval :      707.09   713.94   732.55   738.47   763.25   770.45
eigval :      775.16   777.70   778.71   779.86   780.27   799.92
eigval :      818.99   823.78   835.18   836.13   840.49   853.08
eigval :      853.49   860.29   863.55   866.48   867.54   872.51
eigval :      875.20   876.58   884.08   886.79   897.68   898.36
eigval :      900.32   901.92   907.75   912.64   915.38   915.80
eigval :      916.30   917.17   917.48   917.91   920.17   929.41
eigval :      930.03   931.88   933.04   964.64   974.20  1002.34
eigval :     1003.58  1047.46  1062.59  1079.63  1088.44  1088.86
eigval :     1089.53  1090.98  1106.56  1106.81  1117.05  1119.54
eigval :     1121.89  1136.92  1145.22  1146.17  1152.62  1167.52
eigval :     1169.45  1173.28  1174.74  1177.72  1182.87  1184.40
eigval :     1190.86  1198.39  1199.05  1202.57  1204.59  1213.46
eigval :     1229.05  1230.31  1239.24  1241.57  1242.17  1259.38
eigval :     1259.66  1264.36  1274.60  1275.97  1277.24  1293.84
eigval :     1302.74  1303.84  1306.87  1310.39  1320.44  1321.15
eigval :     1324.70  1330.55  1337.74  1343.17  1348.51  1352.65
eigval :     1376.15  1399.97  1401.31  1420.06  1422.10  1426.16
eigval :     1431.63  1432.14  1441.58  1442.93  1454.63  1458.51
eigval :     1475.74  1477.90  1478.31  1481.56  1489.21  1499.50
eigval :     1500.02  1523.36  1540.65  1548.28  1565.92  1566.18
eigval :     1571.72  1575.86  1578.29  1578.65  1581.95  1586.38
eigval :     1587.38  1588.63  1592.61  1600.66  1601.04  1652.96
eigval :     3077.71  3079.88  3085.24  3086.26  3087.37  3088.00
eigval :     3088.37  3088.96  3090.27  3094.08  3094.69  3096.20
eigval :     3096.81  3096.87  3096.98  3097.03  3097.19  3100.08
eigval :     3104.00  3104.63  3105.00  3105.65  3107.42  3109.43
eigval :     3109.62  3110.15  3110.43  3111.53  3113.61  3116.46

   temp. (K)  partition function   enthalpy   heat capacity  entropy
                                   cal/mol     cal/K/mol   cal/K/mol   J/K/mol
 298.15  VIB  0.269E+21            26013.551    164.973    160.700
         ROT  0.178E+09              888.752      2.981     40.729
         INT  0.478E+29            26902.304    167.954    201.429
         TR   0.197E+29             1481.254      4.968     45.691
         TOT                       28383.5577   172.9223   247.1194  1033.9475

       T/K    H(0)-H(T)+PV         H(T)/Eh          T*S/Eh         G(T)/Eh
   ------------------------------------------------------------------------
    298.15    0.452321E-01    0.697125E+00    0.117414E+00    0.579710E+00
   ------------------------------------------------------------------------

         :::::::::::::::::::::::::::::::::::::::::::::::::::::
         ::                  THERMODYNAMIC                  ::
         :::::::::::::::::::::::::::::::::::::::::::::::::::::
         :: total free energy        -147.958381490516 Eh   ::
         ::.................................................::
         :: total energy             -148.538091895952 Eh   ::
         :: zero point energy           0.651892721075 Eh   ::
         :: G(RRHO) w/o ZPVE           -0.072182315639 Eh   ::
         :: G(RRHO) contrib.            0.579710405437 Eh   ::
         :::::::::::::::::::::::::::::::::::::::::::::::::::::

           -------------------------------------------------
          | TOTAL ENERGY             -148.538091895952 Eh   |
          | TOTAL ENTHALPY           -147.840967096552 Eh   |
          | TOTAL FREE ENERGY        -147.958381490516 Eh   |
          | GRADIENT NORM               0.000036773963 Eh/α |
          | HOMO-LUMO GAP               0.790318700601 eV   |
           -------------------------------------------------

 * finished run on 2025/09/09 at 04:16:29.894
