   * xtb version 6.7.1 (edcfbbe) compiled by 'albert@albert-system' on 2024-07-22

   ID    Z sym.   atoms
    1    8 O      1, 26, 45
    2    6 C      2-12, 14-18, 20-25, 27-37, 39-44, 46-55, 57, 58
    3    7 N      13, 19, 38, 56
    4    1 H      59-88

          program call               : xtb data2507/toluene/DPXZ-DPPM/DPXZ-DPPM_toluene_S0_crest.xyz --gfn 2 --gbsa toluene --ohess vtight --parallel 40 --molden --ceasefiles --namespace data2507/toluene/DPXZ-DPPM/DPXZ-DPPM_toluene_S0_finalOpt
      * Solvation model:               GBSA
        Solvent                        toluene
        Solvent mass                       9.2140E+01 g/mol
          :  Hamiltonian                  GFN2-xTB          :
 * total energy  :  -148.5381675 Eh     change       -0.4554749E-08 Eh
 * total energy  :  -148.5382489 Eh     change       -0.8143012E-04 Eh
 * total energy  :  -148.5382809 Eh     change       -0.3203469E-04 Eh
 * total energy  :  -148.5382959 Eh     change       -0.1499665E-04 Eh
 * total energy  :  -148.5383103 Eh     change       -0.1432867E-04 Eh
 * total energy  :  -148.5383404 Eh     change       -0.3013259E-04 Eh
 * total energy  :  -148.5383646 Eh     change       -0.2416618E-04 Eh
 * total energy  :  -148.5383944 Eh     change       -0.2981822E-04 Eh
 * total energy  :  -148.5384141 Eh     change       -0.1973632E-04 Eh
 * total energy  :  -148.5384280 Eh     change       -0.1392822E-04 Eh
 * total energy  :  -148.5385869 Eh     change       -0.7179864E-06 Eh
 * total energy  :  -148.5385873 Eh     change       -0.3941284E-06 Eh
 * total energy  :  -148.5385876 Eh     change       -0.3039014E-06 Eh
 * total energy  :  -148.5385879 Eh     change       -0.2824899E-06 Eh
 * total energy  :  -148.5385882 Eh     change       -0.3170569E-06 Eh
 * total energy  :  -148.5385885 Eh     change       -0.2981882E-06 Eh
 * total energy  :  -148.5385888 Eh     change       -0.2889873E-06 Eh
 * total energy  :  -148.5385891 Eh     change       -0.3137473E-06 Eh
 * total energy  :  -148.5385891 Eh     change       -0.5482605E-08 Eh
   *** GEOMETRY OPTIMIZATION CONVERGED AFTER 44 ITERATIONS ***

 final structure:
================
88
 xtb: 6.7.1 (edcfbbe)
O            8.77813764519439       -2.51722500159121       -0.82712345369942
C            8.05323179551282       -1.73051520721757       -0.23765035778602
C            8.59154487593184       -0.51588011991265        0.41434169745668
C            8.02108748244698        0.01675124539621        1.57049952072154
C            8.57863806737071        1.13428433420914        2.16449963092317
C            9.70001041446744        1.73362729166985        1.61186383853968
C           10.27978051625569        1.20239856721433        0.46982990953269
C            9.73589208479766        0.07753312195922       -0.11977801350134
C            6.58677534341355       -1.96043142228757       -0.15593824407205
C            6.12383845488628       -3.29854633544687       -0.12824536053028
C            4.79160983326682       -3.58452981501762       -0.08972716528872
C            3.84699862889592       -2.53444670452646       -0.10042524494828
N            2.53542841198733       -2.81195945094417       -0.06959178685186
C            1.68487958531230       -1.80133363543290       -0.09496741521551
C            0.26841172066873       -2.07658193115648       -0.06547258849392
C           -0.17446488598715       -3.40236673185919        0.00996064743263
C           -1.51353267315307       -3.70100364290699        0.04649929141892
C           -2.45050279477052       -2.66341562138427       -0.00218888433793
N           -3.82842071013713       -2.95280431584941        0.04230215295257
C           -4.41278587149079       -3.76605022749028       -0.93452925968452
C           -3.70760217087912       -4.21525580555391       -2.04504993405053
C           -4.31517447587957       -5.02144769157203       -2.99546185299049
C           -5.64121442116089       -5.38183914372183       -2.86135218251118
C           -6.37042602475521       -4.90961903389840       -1.78003911456468
C           -5.76885070487886       -4.10301794698031       -0.83118764481935
O           -6.56673252845445       -3.64458511598152        0.19001918528320
C           -5.98496191249432       -2.82468437836320        1.12793494301764
C           -6.80324386934095       -2.36541077634324        2.14407371610637
C           -6.28680993685717       -1.56520405733674        3.15220319251463
C           -4.94333523162458       -1.24813119187511        3.14421002168485
C           -4.12013486036024       -1.70312938469796        2.12551320063336
C           -4.62792921014930       -2.47602144565534        1.08748638728460
C           -2.02229654546395       -1.34756156037082       -0.08690438461785
C           -0.66500568943518       -1.02047188062134       -0.11092038902626
C           -0.19790637196691        0.35886498549649       -0.16951056932121
C           -1.07814981356664        1.44253434261748       -0.20411562955431
C           -0.61875355178412        2.74986866179840       -0.23180377856250
N           -1.53913739043255        3.81717111780659       -0.24582694988470
C           -1.55331309404320        4.72602248517726       -1.30887769715579
C           -0.75236547707902        4.56531357537230       -2.43347356075928
C           -0.79249708128228        5.48267596972627       -3.47251148398696
C           -1.64240572986332        6.56900622799625       -3.41313564975612
C           -2.47498117335293        6.72460170942521       -2.31454567713829
C           -2.43887242661149        5.81138658481726       -1.27665045011718
O           -3.31804785604109        6.01515338432033       -0.23936711405449
C           -3.30914218104485        5.09975327381369        0.78670526519909
C           -4.20403273575248        5.31495076072268        1.81897079160187
C           -4.23388834331825        4.45941800329631        2.91028832173064
C           -3.34985240831263        3.40074155535909        2.96579209557912
C           -2.45352897353751        3.17893008445965        1.93129462842327
C           -2.43174517556360        4.00704308258191        0.81494843263395
C            0.75583368058210        3.00728469239798       -0.23864262441198
C            1.63869414816998        1.95612635979381       -0.21834396738605
C            1.18519765419647        0.63268245690638       -0.18184845959235
C            2.14396406713835       -0.44735409504272       -0.15332158110220
N            3.43264083190384       -0.16307594739908       -0.18210006262182
C            4.30532106148934       -1.18380895734071       -0.15505700407333
C            5.68890605433415       -0.91892546319787       -0.17878529109284
H            7.15980060552813       -0.45939222496856        2.01495484982589
H            8.13726285565951        1.53872727528664        3.06326913785041
H           10.12666359089602        2.61055518196886        2.07574885626233
H           11.15838063014467        1.66236840994289        0.04265217743116
H           10.17602081368864       -0.35496248686823       -1.00674946884663
H            6.86294205916055       -4.08634659193087       -0.13447965450214
H            4.42779536459437       -4.59991166925544       -0.05904400633379
H            0.57070309458853       -4.18080236450462        0.05179412530708
H           -1.85058074227995       -4.72365390455595        0.12145169278753
H           -2.67580066499541       -3.92844874169441       -2.17268760096209
H           -3.73980744082667       -5.36084808513019       -3.84306630427791
H           -6.11766320207448       -6.01388469945101       -3.59406684775303
H           -7.41406396033810       -5.15238816452192       -1.65558895112830
H           -7.84253371390413       -2.65406629316986        2.13051060141265
H           -6.93318848838527       -1.20972358303068        3.93899286340319
H           -4.51988043045368       -0.64838742509512        3.93475130450588
H           -3.06912150533785       -1.46309150009396        2.14760585468601
H           -2.77516472078331       -0.57799418417616       -0.13963503078238
H           -2.14455563664097        1.28593624948075       -0.21437674486982
H           -0.09586252857910        3.71243134048598       -2.50263685020101
H           -0.15425906192805        5.33486576013389       -4.33012267659314
H           -1.67474125897102        7.28841999504658       -4.21609124472425
H           -3.16711174779376        7.54906500837089       -2.24474260278074
H           -4.86456041512212        6.16514946098508        1.75145152188541
H           -4.93668128602988        4.63418261024653        3.70950972491873
H           -3.34306529654635        2.74002837316041        3.81872780747278
H           -1.75644929292226        2.35915965082152        2.00118683314267
H            1.10930099354512        4.02706264451905       -0.25112769740669
H            2.70398969945447        2.12405280774258       -0.21754274475636
H            6.01091879659164        0.10939411229718       -0.23989385148637

          :  Hamiltonian                  GFN2-xTB          :
         :: gradient norm              0.000053730432 Eh/a0 ::
         :: HOMO-LUMO gap              0.788763085840 eV    ::
         :: SCC energy              -151.102230153310 Eh    ::
         :: -> dispersion             -0.127209191167 Eh    ::
         :: -> Gsolv                  -0.063805595887 Eh    ::
         :: repulsion energy           2.563641070879 Eh    ::

    * Orbital Energies and Occupations

         #    Occupation            Energy/Eh            Energy/eV
      -------------------------------------------------------------
         1        2.0000           -0.7327987             -19.9405
       ...           ...                  ...                  ...
       124        2.0000           -0.4187434             -11.3946
       125        2.0000           -0.4184457             -11.3865
       126        2.0000           -0.4165000             -11.3335
       127        2.0000           -0.4157804             -11.3140
       128        2.0000           -0.4134780             -11.2513
       129        2.0000           -0.4064258             -11.0594
       130        2.0000           -0.4034010             -10.9771
       131        2.0000           -0.4009053             -10.9092
       132        2.0000           -0.3933785             -10.7044
       133        2.0000           -0.3929381             -10.6924
       134        2.0000           -0.3630021              -9.8778
       135        2.0000           -0.3477799              -9.4636
       136        2.0000           -0.3469381              -9.4407 (HOMO)
       137        0.0000           -0.3179515              -8.6519 (LUMO)
       138                         -0.2936227              -7.9899
       139                         -0.2757727              -7.5042
       140                         -0.2675451              -7.2803
       141                         -0.2416994              -6.5770
       142                         -0.2413335              -6.5670
       143                         -0.2405975              -6.5470
       144                         -0.2365674              -6.4373
       145                         -0.2348336              -6.3901
       146                         -0.2329494              -6.3389
       147                         -0.2326270              -6.3301
       ...                                ...                  ...
       262                          0.7016045              19.0916
      -------------------------------------------------------------
                  HL-Gap            0.0289865 Eh            0.7888 eV

     #   Z          covCN         q      C6AA      α(0)
     1   8 O        0.858    -0.411    21.908     6.275
     2   6 C        2.829     0.228    23.215     7.895
     3   6 C        2.972    -0.014    28.353     8.734
     4   6 C        2.920    -0.025    28.617     8.772
     5   6 C        2.918    -0.025    28.626     8.774
     6   6 C        2.920    -0.020    28.498     8.754
     7   6 C        2.917    -0.025    28.623     8.773
     8   6 C        2.924    -0.016    28.409     8.741
     9   6 C        2.968    -0.010    28.263     8.720
    10   6 C        2.920    -0.020    28.502     8.755
    11   6 C        2.915    -0.042    29.031     8.835
    12   6 C        2.965     0.085    26.106     8.381
    13   7 N        1.848    -0.254    27.469     7.768
    14   6 C        2.959     0.086    26.076     8.376
    15   6 C        2.987    -0.008    28.209     8.712
    16   6 C        2.923    -0.026    28.652     8.778
    17   6 C        2.918    -0.039    28.972     8.827
    18   6 C        2.918     0.069    26.459     8.435
    19   7 N        2.751    -0.067    22.546     7.052
    20   6 C        2.921     0.041    27.074     8.533
    21   6 C        2.924    -0.060    29.479     8.904
    22   6 C        2.919    -0.038    28.955     8.824
    23   6 C        2.919    -0.040    28.987     8.829
    24   6 C        2.919    -0.057    29.424     8.895
    25   6 C        2.883     0.123    25.293     8.245
    26   8 O        1.708    -0.269    18.462     5.801
    27   6 C        2.883     0.123    25.293     8.245
    28   6 C        2.920    -0.057    29.420     8.895
    29   6 C        2.919    -0.040    28.989     8.829
    30   6 C        2.919    -0.038    28.953     8.824
    31   6 C        2.924    -0.061    29.505     8.908
    32   6 C        2.920     0.041    27.081     8.534
    33   6 C        2.925    -0.047    29.165     8.856
    34   6 C        2.976     0.009    27.809     8.650
    35   6 C        2.976     0.009    27.815     8.651
    36   6 C        2.925    -0.047    29.161     8.856
    37   6 C        2.918     0.069    26.461     8.435
    38   7 N        2.751    -0.069    22.569     7.056
    39   6 C        2.921     0.041    27.071     8.532
    40   6 C        2.924    -0.060    29.488     8.905
    41   6 C        2.919    -0.039    28.959     8.825
    42   6 C        2.919    -0.040    28.994     8.830
    43   6 C        2.919    -0.057    29.428     8.896
    44   6 C        2.883     0.123    25.297     8.246
    45   8 O        1.708    -0.270    18.475     5.803
    46   6 C        2.883     0.123    25.297     8.246
    47   6 C        2.920    -0.057    29.424     8.895
    48   6 C        2.919    -0.040    28.995     8.830
    49   6 C        2.919    -0.038    28.956     8.824
    50   6 C        2.924    -0.061    29.509     8.908
    51   6 C        2.920     0.041    27.079     8.533
    52   6 C        2.918    -0.039    28.970     8.826
    53   6 C        2.923    -0.026    28.658     8.779
    54   6 C        2.987    -0.008    28.208     8.712
    55   6 C        2.959     0.086    26.092     8.378
    56   7 N        1.848    -0.254    27.461     7.767
    57   6 C        2.963     0.082    26.168     8.391
    58   6 C        2.919    -0.039    28.980     8.828
    59   1 H        0.926     0.042     2.428     2.437
    60   1 H        0.926     0.049     2.331     2.387
    61   1 H        0.926     0.051     2.310     2.377
    62   1 H        0.926     0.049     2.337     2.391
    63   1 H        0.926     0.047     2.352     2.398
    64   1 H        0.926     0.058     2.227     2.334
    65   1 H        0.926     0.062     2.176     2.307
    66   1 H        0.926     0.066     2.126     2.280
    67   1 H        0.926     0.053     2.280     2.361
    68   1 H        0.926     0.041     2.433     2.439
    69   1 H        0.926     0.043     2.413     2.429
    70   1 H        0.926     0.043     2.404     2.425
    71   1 H        0.926     0.049     2.331     2.388
    72   1 H        0.926     0.049     2.332     2.388
    73   1 H        0.926     0.044     2.399     2.422
    74   1 H        0.926     0.043     2.406     2.426
    75   1 H        0.926     0.042     2.428     2.437
    76   1 H        0.926     0.055     2.261     2.351
    77   1 H        0.926     0.054     2.265     2.354
    78   1 H        0.926     0.041     2.439     2.442
    79   1 H        0.926     0.042     2.419     2.432
    80   1 H        0.926     0.043     2.409     2.427
    81   1 H        0.926     0.049     2.336     2.390
    82   1 H        0.926     0.049     2.337     2.390
    83   1 H        0.926     0.043     2.404     2.425
    84   1 H        0.926     0.043     2.411     2.428
    85   1 H        0.926     0.041     2.435     2.440
    86   1 H        0.926     0.053     2.279     2.361
    87   1 H        0.926     0.066     2.128     2.281
    88   1 H        0.926     0.062     2.177     2.307

molecular dipole:
                 x           y           z       tot (Debye)
 q only:       -0.720       1.096       0.806
   full:       -0.658       1.066       0.810       3.791

 projected vibrational frequencies (cm⁻¹)
eigval :       -0.00    -0.00     0.00     0.00     0.00     0.00
eigval :        4.62    13.91    16.94    18.30    19.34    24.45
eigval :       31.92    33.13    44.15    45.83    48.90    53.57
eigval :       70.63    75.56    91.89    96.64   107.03   110.57
eigval :      119.53   123.30   139.24   146.50   153.89   172.62
eigval :      189.63   205.60   222.16   230.88   244.65   247.96
eigval :      249.21   252.02   263.33   265.09   275.29   286.76
eigval :      289.61   317.95   335.25   342.95   356.27   368.63
eigval :      372.02   375.04   388.24   389.37   394.34   406.09
eigval :      417.06   418.49   420.46   429.51   431.11   438.14
eigval :      440.39   440.80   447.16   451.41   465.74   483.57
eigval :      498.82   508.09   510.79   514.77   519.21   525.52
eigval :      526.22   548.69   559.91   569.54   576.59   580.68
eigval :      583.98   587.36   594.08   600.13   618.65   624.72
eigval :      631.39   646.82   651.94   658.45   660.09   660.41
eigval :      662.35   665.35   670.63   671.28   691.71   696.74
eigval :      706.04   713.91   731.14   735.99   763.22   767.66
eigval :      775.43   776.06   776.10   779.64   780.37   800.03
eigval :      818.96   823.16   834.28   835.73   840.25   853.48
eigval :      853.75   861.08   864.75   867.05   869.56   872.24
eigval :      874.00   874.46   882.45   886.44   897.64   899.25
eigval :      901.32   902.46   907.55   911.89   912.60   913.16
eigval :      915.69   916.06   917.50   919.18   921.23   929.50
eigval :      931.09   931.31   934.68   964.51   974.09  1001.80
eigval :     1003.52  1045.95  1062.33  1079.31  1089.89  1090.41
eigval :     1091.06  1092.04  1106.37  1106.72  1116.63  1118.56
eigval :     1121.59  1136.68  1144.11  1145.82  1152.45  1167.74
eigval :     1168.82  1172.42  1173.71  1176.48  1180.41  1183.70
eigval :     1189.72  1197.65  1199.13  1201.63  1203.64  1212.57
eigval :     1227.47  1229.47  1238.89  1242.31  1243.00  1259.05
eigval :     1260.17  1263.82  1273.73  1275.69  1276.48  1293.08
eigval :     1302.70  1303.78  1306.70  1310.01  1320.60  1321.13
eigval :     1324.15  1329.93  1337.86  1342.95  1348.19  1352.44
eigval :     1376.36  1400.04  1401.26  1419.64  1421.47  1425.78
eigval :     1430.98  1431.95  1441.04  1442.41  1453.95  1458.45
eigval :     1475.25  1477.48  1478.63  1480.77  1488.51  1499.42
eigval :     1499.94  1522.87  1540.27  1547.85  1566.19  1566.33
eigval :     1571.74  1575.81  1578.17  1578.45  1581.98  1586.37
eigval :     1587.52  1588.67  1592.35  1600.51  1600.87  1652.69
eigval :     3077.40  3080.01  3085.46  3086.74  3087.92  3088.26
eigval :     3089.41  3090.70  3091.22  3093.43  3094.11  3095.88
eigval :     3096.92  3097.14  3097.26  3097.37  3097.93  3100.69
eigval :     3104.99  3105.10  3105.37  3105.87  3106.82  3109.73
eigval :     3109.99  3110.69  3110.81  3111.31  3111.81  3117.01

   temp. (K)  partition function   enthalpy   heat capacity  entropy
                                   cal/mol     cal/K/mol   cal/K/mol   J/K/mol
 298.15  VIB  0.682E+21            26054.738    165.033    161.738
         ROT  0.178E+09              888.752      2.981     40.737
         INT  0.122E+30            26943.490    168.013    202.475
         TR   0.197E+29             1481.254      4.968     45.691
         TOT                       28424.7441   172.9816   248.1657  1038.3251

       T/K    H(0)-H(T)+PV         H(T)/Eh          T*S/Eh         G(T)/Eh
   ------------------------------------------------------------------------
    298.15    0.452977E-01    0.696998E+00    0.117912E+00    0.579086E+00
   ------------------------------------------------------------------------

         :::::::::::::::::::::::::::::::::::::::::::::::::::::
         ::                  THERMODYNAMIC                  ::
         :::::::::::::::::::::::::::::::::::::::::::::::::::::
         :: total free energy        -147.959502674969 Eh   ::
         ::.................................................::
         :: total energy             -148.538589084349 Eh   ::
         :: zero point energy           0.651700209119 Eh   ::
         :: G(RRHO) w/o ZPVE           -0.072613799739 Eh   ::
         :: G(RRHO) contrib.            0.579086409380 Eh   ::
         :::::::::::::::::::::::::::::::::::::::::::::::::::::

           -------------------------------------------------
          | TOTAL ENERGY             -148.538589084349 Eh   |
          | TOTAL ENTHALPY           -147.841591162203 Eh   |
          | TOTAL FREE ENERGY        -147.959502674969 Eh   |
          | GRADIENT NORM               0.000053720753 Eh/α |
          | HOMO-LUMO GAP               0.788763802255 eV   |
           -------------------------------------------------

 * finished run on 2025/09/09 at 04:23:04.182
