   * xtb version 6.7.1 (edcfbbe) compiled by 'albert@albert-system' on 2024-07-22

   ID    Z sym.   atoms
    1    8 O      1, 26, 45
    2    6 C      2-12, 14-18, 20-25, 27-37, 39-44, 46-55, 57, 58
    3    7 N      13, 19, 38, 56
    4    1 H      59-88

          program call               : xtb data2507/toluene/DPXZ-DPPM/DPXZ-DPPM_toluene_S0_finalOpt.xtbopt.xyz --gfn 2 --uhf 2 --gbsa toluene --ohess vtight --parallel 40 --molden --ceasefiles --namespace data2507/toluene/DPXZ-DPPM/DPXZ-DPPM_toluene_T1_preOpt
      * Solvation model:               GBSA
        Solvent                        toluene
        Solvent mass                       9.2140E+01 g/mol
          :  Hamiltonian                  GFN2-xTB          :
 * total energy  :  -148.4951931 Eh     change       -0.4801961E-08 Eh
 * total energy  :  -148.4975502 Eh     change       -0.2357133E-02 Eh
 * total energy  :  -148.4983158 Eh     change       -0.7656165E-03 Eh
 * total energy  :  -148.4984302 Eh     change       -0.1143475E-03 Eh
 * total energy  :  -148.4985279 Eh     change       -0.9771509E-04 Eh
 * total energy  :  -148.4985681 Eh     change       -0.4019858E-04 Eh
 * total energy  :  -148.4986236 Eh     change       -0.5547495E-04 Eh
 * total energy  :  -148.4986627 Eh     change       -0.3911601E-04 Eh
 * total energy  :  -148.4986887 Eh     change       -0.2596937E-04 Eh
 * total energy  :  -148.4987037 Eh     change       -0.1501151E-04 Eh
 * total energy  :  -148.4989060 Eh     change       -0.1075953E-06 Eh
 * total energy  :  -148.4989061 Eh     change       -0.1857588E-06 Eh
 * total energy  :  -148.4989064 Eh     change       -0.2680792E-06 Eh
 * total energy  :  -148.4989067 Eh     change       -0.2389336E-06 Eh
 * total energy  :  -148.4989068 Eh     change       -0.1846380E-06 Eh
 * total energy  :  -148.4989070 Eh     change       -0.1627421E-06 Eh
 * total energy  :  -148.4989071 Eh     change       -0.1365915E-06 Eh
 * total energy  :  -148.4989072 Eh     change       -0.1047462E-06 Eh
 * total energy  :  -148.4989073 Eh     change       -0.9609076E-07 Eh
   *** GEOMETRY OPTIMIZATION CONVERGED AFTER 79 ITERATIONS ***

 final structure:
================
88
 xtb: 6.7.1 (edcfbbe)
O            8.83518219349926       -2.74653466104195       -0.22999865095272
C            8.04943321334407       -1.84965153818341        0.08506217091054
C            8.56188847646784       -0.51013258484086        0.47642643912595
C            8.03971291706546        0.18377162535129        1.56650286655413
C            8.57203993879255        1.40738324226432        1.93036772380530
C            9.62340294026508        1.95357121973045        1.21109544601414
C           10.15739302773483        1.26255423740468        0.13511090440313
C            9.63797666976869        0.03241288340422       -0.22272512202354
C            6.60059742652661       -2.05693681641732        0.08832780526867
C            6.11565989255476       -3.37664346190541        0.11039988200491
C            4.77326451681741       -3.64591495835106        0.11100424147344
C            3.83307626204962       -2.60058520875783        0.06262527168010
N            2.52851595150829       -2.83931193058785        0.06377577502165
C            1.65535869594009       -1.82864312565640        0.00153107872666
C            0.25241991891458       -2.09086428728086       -0.00905408836053
C           -0.20280923787232       -3.41938862159996        0.06756871688045
C           -1.53917051038873       -3.71163178520097        0.07978823113886
C           -2.47139167468895       -2.66601123461264       -0.00336175383685
N           -3.85839594569338       -2.95653987983051        0.02169240838003
C           -4.43903948812367       -3.68905542641704       -1.00804594316875
C           -3.72310439876807       -4.07582953028840       -2.13804813330564
C           -4.33231691056257       -4.80708475838593       -3.14316465616225
C           -5.66746944189678       -5.15804930880620       -3.04538240106146
C           -6.40306001950539       -4.75799076028587       -1.94124623837620
C           -5.80069148584945       -4.02513088260911       -0.93284578607112
O           -6.58989609910849       -3.64015443328346        0.11858517854533
C           -6.01043819557157       -2.89359540168443        1.11068222025113
C           -6.82533269925295       -2.49743302276585        2.15777882248375
C           -6.30166967204902       -1.76130023368298        3.20827148606924
C           -4.95655972094252       -1.43648526833009        3.21203891837778
C           -4.13590047198583       -1.82908098451976        2.16873403064431
C           -4.64885919241273       -2.54771480801628        1.09168441372446
C           -2.04558738278283       -1.35730667657121       -0.09702530529016
C           -0.68391995138798       -1.03009383056545       -0.09073478971817
C           -0.20821457432101        0.33206031229806       -0.14658455095622
C           -1.07345896519250        1.43267675564626       -0.21105716751583
C           -0.59366609170312        2.72593672921022       -0.21985818342433
N           -1.50191878216814        3.81263127275311       -0.24881715559496
C           -1.51995892225677        4.68322955553778       -1.33423201967259
C           -0.72870689345945        4.48050752008771       -2.46192289531605
C           -0.76992220629922        5.36950566688933       -3.52234131218636
C           -1.60792532962413        6.47004214739558       -3.48363294998404
C           -2.42457978694983        6.67175006832277       -2.38250655990569
C           -2.38884236430658        5.78645099492379       -1.31865232848792
O           -3.24027673523126        6.03019041652302       -0.27347308417399
C           -3.23230636644031        5.14753806988043        0.77446416093555
C           -4.11176556171672        5.39833632100989        1.81422248881505
C           -4.14238459319002        4.56184887517904        2.91824853467212
C           -3.27805618759370        3.48327220872535        2.98261683141568
C           -2.39598694962047        3.22673032383357        1.94692538014022
C           -2.36906353978464        4.04009941189407        0.81683910574302
C            0.78639516360540        2.97073588771941       -0.18744964698560
C            1.65259346549479        1.91018435647409       -0.14789900100131
C            1.18293058693280        0.58823405705768       -0.11965612954588
C            2.12849368646499       -0.49019564102228       -0.05476653834843
N            3.42812380407578       -0.23561388576088       -0.04273642704507
C            4.31786808826300       -1.24247214789468        0.01083894070314
C            5.68617189481113       -1.00111228931036        0.02458000608444
H            7.23197822565862       -0.24934131034686        2.13880002894477
H            8.16520241124495        1.93617079563265        2.77996090170370
H           10.03152985365380        2.91266963798505        1.49423115115163
H           10.98276119919792        1.67996932944960       -0.42284232027739
H           10.04970038796437       -0.52395674369773       -1.05284765644981
H            6.83991799324400       -4.17826623999748        0.14129224855178
H            4.40442166860288       -4.65981399047457        0.14399332685527
H            0.54035848143927       -4.19894443417207        0.13130869232396
H           -1.88509534886840       -4.73110002866514        0.15821515503959
H           -2.68527234013062       -3.79747783825586       -2.22846897595587
H           -3.75492901086356       -5.09912386944656       -4.00655640171030
H           -6.14205900668005       -5.73163114493333       -3.82557596165252
H           -7.44893838917284       -5.00140061319054       -1.84189416477734
H           -7.86511288764273       -2.78231019197350        2.13113777951193
H           -6.94280789829252       -1.45477903524698        4.01929905113314
H           -4.53454388781688       -0.87741284866901        4.03247945183625
H           -3.08626143297260       -1.58406930554618        2.19102347818036
H           -2.79499534680554       -0.58573390568733       -0.17182935920316
H           -2.14114488520606        1.28851136480328       -0.25095519240453
H           -0.08160617652617        3.61921483445679       -2.50829340375011
H           -0.14304868178301        5.19321106901839       -4.38260091140915
H           -1.63819633780451        7.16571397703184       -4.30701014655637
H           -3.10183193284951        7.50924232842572       -2.32848396263637
H           -4.75876191700747        6.25785856660714        1.73906441207947
H           -4.83176317057920        4.76192245656487        3.72290738665554
H           -3.28072242788552        2.83496092671678        3.84491166962533
H           -1.71553934148575        2.39354307844621        2.01773626851603
H            1.15064403403540        3.98667049064206       -0.18737371984663
H            2.72058887088871        2.06199627701898       -0.12164420336065
H            6.02319379386291        0.02153859134286       -0.04504527071023

          :  Hamiltonian                  GFN2-xTB          :
         :: gradient norm              0.000060843652 Eh/a0 ::
         :: HOMO-LUMO gap              0.745248312233 eV    ::
         :: SCC energy              -151.061268294458 Eh    ::
         :: -> dispersion             -0.126903918182 Eh    ::
         :: -> Gsolv                  -0.070986405445 Eh    ::
         :: repulsion energy           2.562360955653 Eh    ::

    * Orbital Energies and Occupations

         #    Occupation            Energy/Eh            Energy/eV
      -------------------------------------------------------------
         1        2.0000           -0.7452663             -20.2797
       ...           ...                  ...                  ...
       125        2.0000           -0.4183622             -11.3842
       126        2.0000           -0.4097231             -11.1491
       127        2.0000           -0.4078072             -11.0970
       128        2.0000           -0.4052443             -11.0273
       129        2.0000           -0.4035461             -10.9810
       130        2.0000           -0.4025585             -10.9542
       131        2.0000           -0.3970930             -10.8054
       132        2.0000           -0.3906183             -10.6293
       133        2.0000           -0.3826503             -10.4124
       134        1.8393           -0.3557980              -9.6818
       135        1.8304           -0.3557367              -9.6801
       136        1.3302           -0.3535556              -9.6207
       137        1.0000           -0.3084767              -8.3941 (HOMO)
       138        0.0000           -0.2810894              -7.6488 (LUMO)
       139                         -0.2669477              -7.2640
       140                         -0.2622479              -7.1361
       141                         -0.2515529              -6.8451
       142                         -0.2514683              -6.8428
       143                         -0.2409512              -6.5566
       144                         -0.2408499              -6.5539
       145                         -0.2334755              -6.3532
       146                         -0.2281519              -6.2083
       147                         -0.2278458              -6.2000
       148                         -0.2250841              -6.1249
       ...                                ...                  ...
       262                          0.7058118              19.2061
      -------------------------------------------------------------
                  HL-Gap            0.0273872 Eh            0.7452 eV

     #   Z          covCN         q      C6AA      α(0)
     1   8 O        0.858    -0.462    22.964     6.425
     2   6 C        2.830     0.212    23.511     7.946
     3   6 C        2.972    -0.013    28.337     8.732
     4   6 C        2.921    -0.028    28.699     8.785
     5   6 C        2.918    -0.028    28.710     8.787
     6   6 C        2.920    -0.027    28.665     8.780
     7   6 C        2.918    -0.028    28.707     8.786
     8   6 C        2.924    -0.021    28.521     8.758
     9   6 C        2.967    -0.029    28.725     8.791
    10   6 C        2.921    -0.023    28.567     8.765
    11   6 C        2.915    -0.060    29.484     8.904
    12   6 C        2.947     0.094    25.922     8.350
    13   7 N        1.848    -0.253    27.451     7.765
    14   6 C        2.947     0.074    26.353     8.420
    15   6 C        2.986    -0.008    28.220     8.714
    16   6 C        2.923    -0.028    28.701     8.786
    17   6 C        2.916    -0.041    29.025     8.835
    18   6 C        2.920     0.055    26.763     8.484
    19   7 N        2.752    -0.044    22.086     6.980
    20   6 C        2.924     0.044    27.011     8.523
    21   6 C        2.922    -0.054    29.352     8.885
    22   6 C        2.918    -0.033    28.831     8.805
    23   6 C        2.919    -0.034    28.846     8.807
    24   6 C        2.918    -0.054    29.343     8.883
    25   6 C        2.884     0.127    25.211     8.232
    26   8 O        1.709    -0.247    18.086     5.742
    27   6 C        2.884     0.127    25.210     8.231
    28   6 C        2.918    -0.054    29.337     8.882
    29   6 C        2.919    -0.034    28.849     8.808
    30   6 C        2.918    -0.033    28.832     8.805
    31   6 C        2.922    -0.056    29.381     8.889
    32   6 C        2.922     0.044    27.024     8.525
    33   6 C        2.922    -0.046    29.137     8.852
    34   6 C        2.977     0.000    28.023     8.683
    35   6 C        2.977     0.003    27.946     8.671
    36   6 C        2.923    -0.047    29.156     8.855
    37   6 C        2.920     0.058    26.692     8.472
    38   7 N        2.752    -0.045    22.102     6.982
    39   6 C        2.923     0.044    27.016     8.524
    40   6 C        2.922    -0.055    29.357     8.885
    41   6 C        2.918    -0.033    28.834     8.806
    42   6 C        2.919    -0.034    28.848     8.808
    43   6 C        2.918    -0.054    29.343     8.883
    44   6 C        2.884     0.127    25.211     8.232
    45   8 O        1.709    -0.247    18.094     5.743
    46   6 C        2.884     0.127    25.210     8.231
    47   6 C        2.918    -0.054    29.338     8.882
    48   6 C        2.919    -0.034    28.851     8.808
    49   6 C        2.918    -0.034    28.836     8.806
    50   6 C        2.922    -0.056    29.386     8.890
    51   6 C        2.922     0.043    27.030     8.526
    52   6 C        2.917    -0.042    29.041     8.837
    53   6 C        2.923    -0.026    28.662     8.780
    54   6 C        2.987    -0.009    28.226     8.715
    55   6 C        2.944     0.083    26.146     8.386
    56   7 N        1.849    -0.259    27.598     7.786
    57   6 C        2.942     0.083    26.156     8.388
    58   6 C        2.919    -0.062    29.550     8.914
    59   1 H        0.926     0.034     2.526     2.485
    60   1 H        0.926     0.042     2.421     2.433
    61   1 H        0.926     0.044     2.402     2.424
    62   1 H        0.926     0.041     2.434     2.440
    63   1 H        0.926     0.036     2.505     2.475
    64   1 H        0.926     0.044     2.393     2.419
    65   1 H        0.926     0.046     2.365     2.405
    66   1 H        0.926     0.056     2.243     2.342
    67   1 H        0.926     0.048     2.342     2.393
    68   1 H        0.926     0.049     2.338     2.391
    69   1 H        0.926     0.050     2.321     2.383
    70   1 H        0.926     0.052     2.301     2.372
    71   1 H        0.926     0.058     2.227     2.334
    72   1 H        0.926     0.057     2.229     2.335
    73   1 H        0.926     0.052     2.291     2.367
    74   1 H        0.926     0.051     2.302     2.373
    75   1 H        0.926     0.049     2.327     2.386
    76   1 H        0.926     0.052     2.298     2.371
    77   1 H        0.926     0.053     2.283     2.363
    78   1 H        0.926     0.048     2.340     2.392
    79   1 H        0.926     0.050     2.323     2.383
    80   1 H        0.926     0.051     2.302     2.372
    81   1 H        0.926     0.058     2.228     2.334
    82   1 H        0.926     0.057     2.229     2.335
    83   1 H        0.926     0.052     2.292     2.368
    84   1 H        0.926     0.051     2.303     2.373
    85   1 H        0.926     0.049     2.330     2.387
    86   1 H        0.926     0.050     2.322     2.383
    87   1 H        0.926     0.058     2.227     2.334
    88   1 H        0.926     0.043     2.404     2.425

molecular dipole:
                 x           y           z       tot (Debye)
 q only:       -6.501       2.605       0.290
   full:       -6.322       2.539       0.278      17.331

 projected vibrational frequencies (cm⁻¹)
eigval :       -0.00    -0.00    -0.00    -0.00     0.00     0.00
eigval :      -11.42     8.83    14.25    15.19    16.24    23.89
eigval :       30.00    33.66    40.93    43.99    49.42    54.03
eigval :       71.00    75.50    90.88    96.61   105.55   110.34
eigval :      117.26   120.18   134.75   144.23   155.63   172.47
eigval :      183.11   205.42   224.16   225.47   242.88   244.58
eigval :      248.13   250.97   264.26   267.17   272.73   288.85
eigval :      290.33   318.18   330.71   344.03   354.35   364.13
eigval :      370.67   373.47   388.22   388.95   393.89   404.50
eigval :      416.99   418.52   420.38   429.51   431.18   438.40
eigval :      439.33   441.59   450.73   456.84   474.25   487.15
eigval :      501.40   505.13   506.07   513.46   517.79   525.91
eigval :      528.31   540.62   553.48   567.25   571.80   576.20
eigval :      578.86   585.78   588.61   597.47   616.08   620.10
eigval :      625.72   636.06   640.34   652.12   661.62   663.85
eigval :      665.90   666.19   667.80   670.04   684.94   691.25
eigval :      695.94   704.24   705.54   723.18   727.73   763.22
eigval :      770.60   775.40   776.37   778.33   779.59   798.81
eigval :      807.68   815.66   825.16   827.36   829.52   838.46
eigval :      854.59   854.70   858.58   863.97   865.54   867.57
eigval :      867.82   870.13   877.39   881.54   899.05   899.29
eigval :      901.29   901.97   903.36   904.88   908.20   914.90
eigval :      915.42   915.75   916.69   918.51   918.75   919.95
eigval :      923.20   930.47   934.70   959.73   966.92   997.89
eigval :     1006.73  1039.07  1063.74  1080.04  1086.15  1086.73
eigval :     1087.15  1087.96  1110.61  1110.97  1116.13  1117.99
eigval :     1122.15  1135.91  1140.22  1145.19  1159.92  1166.13
eigval :     1167.36  1172.49  1173.50  1179.81  1180.17  1183.04
eigval :     1190.87  1200.07  1200.37  1203.66  1204.25  1217.09
eigval :     1223.32  1228.54  1238.79  1239.39  1242.65  1254.88
eigval :     1255.13  1256.63  1264.52  1276.34  1279.42  1293.78
eigval :     1296.53  1301.20  1307.09  1307.75  1312.85  1317.42
eigval :     1318.49  1321.19  1331.80  1335.75  1339.50  1345.98
eigval :     1347.39  1365.70  1395.15  1404.54  1417.52  1417.65
eigval :     1419.24  1423.16  1426.02  1439.70  1440.90  1452.78
eigval :     1453.73  1454.15  1461.06  1466.40  1469.28  1471.31
eigval :     1486.20  1503.48  1510.69  1532.44  1537.85  1559.33
eigval :     1559.92  1564.37  1567.09  1567.64  1572.68  1575.70
eigval :     1576.94  1577.67  1583.77  1587.91  1590.52  1597.13
eigval :     3071.86  3073.08  3077.28  3078.60  3083.38  3089.24
eigval :     3090.23  3091.16  3091.78  3092.67  3093.13  3093.81
eigval :     3093.88  3094.58  3101.52  3102.10  3102.19  3102.21
eigval :     3102.37  3102.67  3103.46  3109.45  3109.80  3110.63
eigval :     3110.79  3112.14  3113.58  3113.87  3114.16  3114.76

   temp. (K)  partition function   enthalpy   heat capacity  entropy
                                   cal/mol     cal/K/mol   cal/K/mol   J/K/mol
 298.15  VIB  0.101E+22            26189.625    165.716    162.530
         ROT  0.178E+09              888.752      2.981     40.733
         INT  0.180E+30            27078.377    168.697    203.264
         TR   0.197E+29             1481.254      4.968     45.691
         TOT                       28559.6310   173.6647   248.9542  1041.6243

       T/K    H(0)-H(T)+PV         H(T)/Eh          T*S/Eh         G(T)/Eh
   ------------------------------------------------------------------------
    298.15    0.455127E-01    0.694785E+00    0.118286E+00    0.576499E+00
   ------------------------------------------------------------------------

         :::::::::::::::::::::::::::::::::::::::::::::::::::::
         ::                  THERMODYNAMIC                  ::
         :::::::::::::::::::::::::::::::::::::::::::::::::::::
         :: total free energy        -147.922408151899 Eh   ::
         ::.................................................::
         :: total energy             -148.498907332917 Eh   ::
         :: zero point energy           0.649272679940 Eh   ::
         :: G(RRHO) w/o ZPVE           -0.072773498922 Eh   ::
         :: G(RRHO) contrib.            0.576499181017 Eh   ::
         :::::::::::::::::::::::::::::::::::::::::::::::::::::

           -------------------------------------------------
          | TOTAL ENERGY             -148.498907332917 Eh   |
          | TOTAL ENTHALPY           -147.804121984022 Eh   |
          | TOTAL FREE ENERGY        -147.922408151899 Eh   |
          | GRADIENT NORM               0.000058635351 Eh/α |
          | HOMO-LUMO GAP               0.745244840862 eV   |
           -------------------------------------------------

 * finished run on 2025/09/09 at 04:23:19.254
