   * xtb version 6.7.1 (edcfbbe) compiled by 'albert@albert-system' on 2024-07-22

   ID    Z sym.   atoms
    1    6 C      1-4, 6-26, 28-38
    2    7 N      5, 27
    3    1 H      39-62

          program call               : xtb data2507/toluene/BCzPh/BCzPh.xyz --gfn 2 --gbsa toluene --ohess vtight --parallel 40 --molden --ceasefiles --namespace data2507/toluene/BCzPh/BCzPh_toluene_S0_preOpt
      * Solvation model:               GBSA
        Solvent                        toluene
        Solvent mass                       9.2140E+01 g/mol
          :  Hamiltonian                  GFN2-xTB          :
 * total energy  :   -95.2606434 Eh     change       -0.2627587E-09 Eh
 * total energy  :   -95.2720810 Eh     change       -0.1143760E-01 Eh
 * total energy  :   -95.2745523 Eh     change       -0.2471257E-02 Eh
 * total energy  :   -95.2751421 Eh     change       -0.5898184E-03 Eh
 * total energy  :   -95.2755337 Eh     change       -0.3915912E-03 Eh
 * total energy  :   -95.2756728 Eh     change       -0.1391636E-03 Eh
 * total energy  :   -95.2758007 Eh     change       -0.1278483E-03 Eh
 * total energy  :   -95.2759468 Eh     change       -0.1461646E-03 Eh
 * total energy  :   -95.2760996 Eh     change       -0.1527245E-03 Eh
 * total energy  :   -95.2762403 Eh     change       -0.1407566E-03 Eh
 * total energy  :   -95.2768300 Eh     change       -0.5965754E-06 Eh
 * total energy  :   -95.2768306 Eh     change       -0.5857109E-06 Eh
 * total energy  :   -95.2768311 Eh     change       -0.5793036E-06 Eh
 * total energy  :   -95.2768317 Eh     change       -0.5712513E-06 Eh
 * total energy  :   -95.2768323 Eh     change       -0.5666901E-06 Eh
 * total energy  :   -95.2768328 Eh     change       -0.5597563E-06 Eh
 * total energy  :   -95.2768334 Eh     change       -0.5547274E-06 Eh
 * total energy  :   -95.2768339 Eh     change       -0.5469529E-06 Eh
 * total energy  :   -95.2768340 Eh     change       -0.4800768E-08 Eh
   *** GEOMETRY OPTIMIZATION CONVERGED AFTER 152 ITERATIONS ***

 final structure:
================
62
 xtb: 6.7.1 (edcfbbe)
C           -7.87321573290872       -2.83000890483893       -0.96125696396452
C           -7.88764279100781       -1.54009090106089       -1.46643813078255
C           -6.89455090732584       -0.64302843736364       -1.11744709578102
C           -5.88102150143888       -1.03278656078472       -0.24663873604435
N           -4.87344619543468       -0.12345400435671        0.11395914628740
C           -5.07319309988013        1.15032844872983        0.60731131712637
C           -6.25881204210531        1.80379281133909        0.91378282844139
C           -6.17653591459171        3.08240170336221        1.43159497365025
C           -4.94716651365575        3.70152069301535        1.65006833937292
C           -3.76371911971348        3.04885924461544        1.36671526726820
C           -3.82041266800478        1.76250783327455        0.84573171888397
C           -2.81986369472436        0.80366972157105        0.46652554847222
C           -1.43331846659769        0.82984575353037        0.45399894924433
C           -0.73598976756334       -0.28574069683192        0.00885186018590
C            0.73598865518087       -0.28574370967568       -0.00884654667891
C            1.44421698997568       -1.41070342957224        0.43678101608004
C            2.82331317382114       -1.45569168331946        0.44231038267440
C            3.51414657638691       -0.34752513906192       -0.02816228443012
C            2.81986684405037        0.80365669574083       -0.46652462622891
C            1.43332173970932        0.82983842639692       -0.45399757734387
C            3.82041955820473        1.76249000679343       -0.84573296651687
C            3.76373090004117        3.04884070247186       -1.36671881679022
C            4.94718077034019        3.70149550023805       -1.65007696275561
C            6.17654771791251        3.08237116886410       -1.43160491647337
C            6.25881896926440        1.80376353213301       -0.91378881788316
C            5.07319760327480        1.15030531663197       -0.60731367597456
N            4.87344572301919       -0.12347496976149       -0.11395774894083
C            5.88101737005204       -1.03281149624745        0.24664006750964
C            5.87051703147523       -2.32745801389749       -0.26419852549299
C            6.86207544517126       -3.22082479899656        0.09867031913267
C            7.87320591579088       -2.83004117942465        0.96125600041000
C            7.88764147095070       -1.54012146073051        1.46643258811139
C            6.89455136340007       -0.64305598105687        1.11744426848037
C           -1.44422249550383       -1.41069897660369       -0.43677235935844
C           -2.82331886171823       -1.45568140957946       -0.44230263005438
C           -3.51414795369606       -0.34751050225285        0.02816613295674
C           -5.87052901424738       -2.32743165171714        0.26420354676370
C           -6.86209151217833       -3.22079413758280       -0.09866472220913
H           -8.64805476867969       -3.52862917676818       -1.23933130762427
H           -8.67171076244357       -1.23221170972300       -2.14258479622879
H           -6.89101333143101        0.35746737912931       -1.52421657078399
H           -7.21569267487861        1.32673606408644        0.76358256901994
H           -7.08564399816156        3.61249393852727        1.67644080211338
H           -4.92450302388170        4.70271206402680        2.05531723602887
H           -2.81087631073414        3.52299208297685        1.55042012049962
H           -0.90212679770641        1.70280308790205        0.80322814314793
H            0.88958821579371       -2.25914845681016        0.81057728723568
H            3.34529772932703       -2.32470849600571        0.81407552368088
H            0.90213352876191        1.70279770178548       -0.80322712568473
H            2.81088990473293        3.52297683184206       -1.55042445290298
H            4.92452117581965        4.70268724052358       -2.05532513357838
H            7.08565793695891        3.61246064707913       -1.67644876381204
H            7.21569779573551        1.32670354815677       -0.76358744765813
H            5.09143561712324       -2.62164047606196       -0.95179526769857
H            6.84876313847221       -4.22430072922706       -0.30087376050426
H            8.64804053037445       -3.52866541782809        1.23933249936536
H            8.67170848925769       -1.23224673768180        2.14258236174907
H            6.89101845515888        0.35744011255896        1.52421312430036
H           -0.88959706239174       -2.25914695105644       -0.81056694256349
H           -3.34530686913452       -2.32469640202013       -0.81406716824919
H           -5.09144886965764       -2.62161714268722        0.95180045542840
H           -6.84878261414073       -4.22427051672858        0.30087844737266

          :  Hamiltonian                  GFN2-xTB          :
         :: gradient norm              0.000056247996 Eh/a0 ::
         :: HOMO-LUMO gap              2.955638645989 eV    ::
         :: SCC energy               -97.097331997300 Eh    ::
         :: -> dispersion             -0.083339127529 Eh    ::
         :: -> Gsolv                  -0.039230096987 Eh    ::
         :: repulsion energy           1.820498045833 Eh    ::

    * Orbital Energies and Occupations

         #    Occupation            Energy/Eh            Energy/eV
      -------------------------------------------------------------
         1        2.0000           -0.6743533             -18.3501
       ...           ...                  ...                  ...
        77        2.0000           -0.4196399             -11.4190
        78        2.0000           -0.4137017             -11.2574
        79        2.0000           -0.4133518             -11.2479
        80        2.0000           -0.4115286             -11.1983
        81        2.0000           -0.4110777             -11.1860
        82        2.0000           -0.4089842             -11.1290
        83        2.0000           -0.4086864             -11.1209
        84        2.0000           -0.4066533             -11.0656
        85        2.0000           -0.3965268             -10.7900
        86        2.0000           -0.3780588             -10.2875
        87        2.0000           -0.3756490             -10.2219
        88        2.0000           -0.3649094              -9.9297
        89        2.0000           -0.3529528              -9.6043 (HOMO)
        90                         -0.2443350              -6.6487 (LUMO)
        91                         -0.2441589              -6.6439
        92                         -0.2363403              -6.4311
        93                         -0.2318101              -6.3079
        94                         -0.2302474              -6.2653
        95                         -0.2302459              -6.2653
        96                         -0.2291557              -6.2356
        97                         -0.2133307              -5.8050
        98                         -0.1974088              -5.3718
        99                         -0.1860523              -5.0627
       100                         -0.1855012              -5.0477
       ...                                ...                  ...
       176                          0.7540492              20.5187
      -------------------------------------------------------------
                  HL-Gap            0.1086177 Eh            2.9556 eV

     #   Z          covCN         q      C6AA      α(0)
     1   6 C        2.919    -0.033    28.825     8.804
     2   6 C        2.920    -0.028    28.705     8.786
     3   6 C        2.922    -0.042    29.047     8.838
     4   6 C        2.913     0.064    26.557     8.450
     5   7 N        2.802    -0.048    22.158     6.991
     6   6 C        3.076     0.048    26.854     8.496
     7   6 C        2.909    -0.052    29.296     8.875
     8   6 C        2.924    -0.036    28.884     8.814
     9   6 C        2.919    -0.043    29.073     8.842
    10   6 C        2.912    -0.035    28.874     8.811
    11   6 C        3.067    -0.019    28.411     8.740
    12   6 C        3.064    -0.020    28.433     8.744
    13   6 C        2.918    -0.040    29.003     8.831
    14   6 C        2.976    -0.002    28.079     8.692
    15   6 C        2.976    -0.002    28.079     8.692
    16   6 C        2.928    -0.040    28.996     8.831
    17   6 C        2.908    -0.053    29.315     8.878
    18   6 C        3.076     0.046    26.899     8.503
    19   6 C        3.064    -0.020    28.433     8.744
    20   6 C        2.918    -0.040    29.003     8.831
    21   6 C        3.067    -0.019    28.411     8.740
    22   6 C        2.912    -0.035    28.874     8.811
    23   6 C        2.919    -0.043    29.073     8.842
    24   6 C        2.924    -0.036    28.884     8.814
    25   6 C        2.909    -0.052    29.296     8.875
    26   6 C        3.076     0.048    26.854     8.496
    27   7 N        2.802    -0.048    22.158     6.991
    28   6 C        2.913     0.064    26.557     8.450
    29   6 C        2.922    -0.042    29.048     8.838
    30   6 C        2.920    -0.028    28.705     8.786
    31   6 C        2.919    -0.033    28.825     8.804
    32   6 C        2.920    -0.028    28.705     8.786
    33   6 C        2.922    -0.042    29.047     8.838
    34   6 C        2.928    -0.040    28.996     8.831
    35   6 C        2.908    -0.053    29.315     8.878
    36   6 C        3.076     0.046    26.899     8.503
    37   6 C        2.922    -0.042    29.048     8.838
    38   6 C        2.920    -0.028    28.705     8.786
    39   1 H        0.926     0.039     2.463     2.454
    40   1 H        0.926     0.040     2.452     2.449
    41   1 H        0.926     0.041     2.441     2.443
    42   1 H        0.926     0.029     2.599     2.521
    43   1 H        0.926     0.029     2.599     2.521
    44   1 H        0.926     0.027     2.632     2.537
    45   1 H        0.926     0.029     2.600     2.521
    46   1 H        0.926     0.030     2.585     2.514
    47   1 H        0.926     0.031     2.574     2.509
    48   1 H        0.926     0.029     2.595     2.519
    49   1 H        0.926     0.030     2.585     2.514
    50   1 H        0.926     0.029     2.600     2.521
    51   1 H        0.926     0.027     2.632     2.537
    52   1 H        0.926     0.029     2.599     2.521
    53   1 H        0.926     0.029     2.599     2.521
    54   1 H        0.926     0.041     2.437     2.441
    55   1 H        0.926     0.040     2.451     2.448
    56   1 H        0.926     0.039     2.463     2.454
    57   1 H        0.926     0.040     2.452     2.449
    58   1 H        0.926     0.041     2.441     2.443
    59   1 H        0.926     0.031     2.574     2.509
    60   1 H        0.926     0.029     2.595     2.519
    61   1 H        0.926     0.041     2.437     2.441
    62   1 H        0.926     0.040     2.451     2.448

molecular dipole:
                 x           y           z       tot (Debye)
 q only:       -0.000      -0.943       0.000
   full:       -0.000      -0.991       0.000       2.518

 projected vibrational frequencies (cm⁻¹)
eigval :       -0.00    -0.00     0.00     0.00     0.00     0.00
eigval :       19.33    19.91    25.72    47.83    56.87    62.83
eigval :       64.46    65.72    68.74    99.23   104.40   127.67
eigval :      134.29   160.72   169.06   193.63   214.35   230.67
eigval :      248.81   264.25   272.25   272.38   305.96   330.54
eigval :      358.32   376.28   380.28   380.50   395.43   397.49
eigval :      404.85   417.82   426.47   433.90   436.49   472.61
eigval :      478.22   481.39   528.56   536.24   536.77   557.05
eigval :      571.83   579.22   586.82   592.50   592.79   606.75
eigval :      607.41   619.02   625.20   654.63   669.00   674.20
eigval :      677.26   686.07   705.48   706.57   714.92   729.68
eigval :      762.95   763.18   769.37   776.52   776.73   807.71
eigval :      825.71   844.92   865.18   870.19   870.88   878.27
eigval :      881.54   882.56   893.06   899.45   900.42   903.20
eigval :      904.57   908.73   912.17   917.51   922.31   924.01
eigval :      924.02   931.75   932.06   932.85   933.65   934.49
eigval :      996.96   997.34  1011.96  1029.27  1069.42  1070.90
eigval :     1072.16  1079.02  1079.04  1116.73  1116.78  1119.58
eigval :     1122.72  1152.65  1156.86  1176.33  1176.38  1178.47
eigval :     1178.47  1182.35  1183.65  1199.05  1199.31  1212.33
eigval :     1227.56  1242.49  1245.97  1255.23  1272.99  1273.27
eigval :     1279.53  1286.66  1302.28  1315.49  1315.52  1318.56
eigval :     1345.33  1349.90  1358.91  1360.51  1360.93  1371.72
eigval :     1417.17  1420.38  1426.42  1432.55  1434.16  1436.18
eigval :     1467.81  1479.69  1479.72  1481.11  1483.75  1492.21
eigval :     1562.32  1567.32  1581.17  1581.87  1582.51  1583.65
eigval :     1593.13  1593.21  1595.38  1598.65  1610.94  1615.65
eigval :     3070.29  3070.29  3073.87  3075.46  3075.47  3075.70
eigval :     3075.96  3076.20  3077.82  3077.87  3081.17  3082.93
eigval :     3083.47  3084.07  3086.69  3087.08  3087.35  3088.28
eigval :     3090.63  3090.67  3091.20  3091.55  3096.84  3096.88

   temp. (K)  partition function   enthalpy   heat capacity  entropy
                                   cal/mol     cal/K/mol   cal/K/mol   J/K/mol
 298.15  VIB  0.422E+12            16327.404    108.704     99.597
         ROT  0.261E+08              888.752      2.981     36.918
         INT  0.110E+20            17216.156    111.685    136.515
         TR   0.103E+29             1481.254      4.968     44.402
         TOT                       18697.4099   116.6530   180.9170   756.9569

       T/K    H(0)-H(T)+PV         H(T)/Eh          T*S/Eh         G(T)/Eh
   ------------------------------------------------------------------------
    298.15    0.297962E-01    0.508833E+00    0.859595E-01    0.422873E+00
   ------------------------------------------------------------------------

         :::::::::::::::::::::::::::::::::::::::::::::::::::::
         ::                  THERMODYNAMIC                  ::
         :::::::::::::::::::::::::::::::::::::::::::::::::::::
         :: total free energy         -94.853960451876 Eh   ::
         ::.................................................::
         :: total energy              -95.276833951791 Eh   ::
         :: zero point energy           0.479036800378 Eh   ::
         :: G(RRHO) w/o ZPVE           -0.056163300463 Eh   ::
         :: G(RRHO) contrib.            0.422873499915 Eh   ::
         :::::::::::::::::::::::::::::::::::::::::::::::::::::

           -------------------------------------------------
          | TOTAL ENERGY              -95.276833951791 Eh   |
          | TOTAL ENTHALPY            -94.768000932176 Eh   |
          | TOTAL FREE ENERGY         -94.853960451876 Eh   |
          | GRADIENT NORM               0.000056246707 Eh/α |
          | HOMO-LUMO GAP               2.955638697205 eV   |
           -------------------------------------------------

 * finished run on 2025/07/20 at 02:37:51.712
