   * xtb version 6.7.1 (edcfbbe) compiled by 'albert@albert-system' on 2024-07-22

   ID    Z sym.   atoms
    1    6 C      1-4, 6-26, 28-38
    2    7 N      5, 27
    3    1 H      39-62

          program call               : xtb data2507/toluene/BCzPh/BCzPh_toluene_T1_crest.xyz --gfn 2 --uhf 2 --gbsa toluene --ohess vtight --parallel 40 --molden --ceasefiles --namespace data2507/toluene/BCzPh/BCzPh_toluene_T1_finalOpt
      * Solvation model:               GBSA
        Solvent                        toluene
        Solvent mass                       9.2140E+01 g/mol
          :  Hamiltonian                  GFN2-xTB          :
 * total energy  :   -95.1725929 Eh     change       -0.1205748E-08 Eh
 * total energy  :   -95.1726159 Eh     change       -0.2303667E-04 Eh
 * total energy  :   -95.1726282 Eh     change       -0.1226666E-04 Eh
 * total energy  :   -95.1726330 Eh     change       -0.4838319E-05 Eh
 * total energy  :   -95.1726388 Eh     change       -0.5759323E-05 Eh
 * total energy  :   -95.1726426 Eh     change       -0.3779011E-05 Eh
 * total energy  :   -95.1726456 Eh     change       -0.3019480E-05 Eh
 * total energy  :   -95.1726471 Eh     change       -0.1484859E-05 Eh
 * total energy  :   -95.1726479 Eh     change       -0.8030418E-06 Eh
 * total energy  :   -95.1726488 Eh     change       -0.9667543E-06 Eh
 * total energy  :   -95.1726517 Eh     change       -0.5904870E-06 Eh
 * total energy  :   -95.1726522 Eh     change       -0.5059671E-06 Eh
 * total energy  :   -95.1726525 Eh     change       -0.3270687E-06 Eh
 * total energy  :   -95.1726527 Eh     change       -0.1908384E-06 Eh
 * total energy  :   -95.1726528 Eh     change       -0.1444254E-06 Eh
 * total energy  :   -95.1726530 Eh     change       -0.1483092E-06 Eh
 * total energy  :   -95.1726531 Eh     change       -0.1565978E-06 Eh
 * total energy  :   -95.1726533 Eh     change       -0.1590192E-06 Eh
 * total energy  :   -95.1726533 Eh     change       -0.2935835E-08 Eh
   *** GEOMETRY OPTIMIZATION CONVERGED AFTER 22 ITERATIONS ***

 final structure:
================
62
 xtb: 6.7.1 (edcfbbe)
C           -7.89051044293307       -3.06378100068053        0.27000163022327
C           -6.79330999074373       -3.26272035341632       -0.55606029206290
C           -5.80045134386632       -2.30709954162959       -0.64120520019387
C           -5.89560872818414       -1.13291338193916        0.10841335260020
N           -4.88804497208643       -0.16681091862486        0.02900340123942
C           -5.08319567590811        1.18798027969348       -0.19041544697180
C           -6.26304439986580        1.88813057657659       -0.39561650323545
C           -6.17425131014253        3.25197667152674       -0.62828784523165
C           -4.94751316899628        3.90204056270910       -0.66725536301722
C           -3.76314547221495        3.19907236095043       -0.49218654374901
C           -3.82809412324579        1.83672396029156       -0.25942146999192
C           -2.82312596769158        0.81497615944459       -0.06859530698091
C           -1.45919003899254        0.85022261646971       -0.02588058970787
C           -0.70610126148191       -0.36143726337095        0.17918312019600
C            0.70003635578557       -0.36812567725064        0.16572717170757
C            1.46024166432606       -1.59649527648449        0.10888503779112
C            2.81924139224715       -1.63507404693578        0.04878071928823
C            3.53236122456797       -0.42223207826234        0.04722043469036
C            2.82843292206902        0.81453107180753        0.16255272781956
C            1.46490005482223        0.85238526440899        0.21248655779622
C            3.84354212101453        1.84247237761801        0.21779089653532
C            3.79192580822458        3.22238761676909        0.30600698063006
C            4.98326401128764        3.93512056254153        0.29902218670588
C            6.20381641522875        3.28153344868407        0.18826225753173
C            6.27907978469571        1.90008427879971        0.09850975168169
C            5.09208867856423        1.18309265203505        0.13453532653924
N            4.88362195707959       -0.18379832785287        0.03343380940197
C            5.88337403707166       -1.15036951390696       -0.11159030978519
C            5.78260125105030       -2.11848763859108       -1.11286194291434
C            6.77060085458101       -3.07287580825751       -1.25165683419538
C            7.86861481067772       -3.07585452348209       -0.40324341911054
C            7.96999714891868       -2.11568448746130        0.59333229575841
C            6.98561155479532       -1.15936369604913        0.74540874710743
C           -1.47828008196974       -1.56261667730611        0.40558541255874
C           -2.83831513238565       -1.59594955486413        0.37963918106491
C           -3.53929624925049       -0.40831196537178        0.10115048586380
C           -6.99826311322823       -0.93662887675661        0.94227190240506
C           -7.98698861852419       -1.89781413941555        1.01589431875174
H           -8.66477917979483       -3.81332285634512        0.33294078138940
H           -6.71568001780176       -4.16644294458559       -1.14269376445669
H           -4.95661105582945       -2.44801580262778       -1.30029244795724
H           -7.22080209750994        1.39094024517461       -0.38823685265903
H           -7.08035628769196        3.81839234181499       -0.78658135325012
H           -4.91552648195823        4.96643576032630       -0.84776287698063
H           -2.80976399718423        3.70319070539121       -0.54317561904578
H           -0.95105690414525        1.78695492986591       -0.18091765578107
H            0.92733077605901       -2.53276407138839        0.08621771081411
H            3.34287144674541       -2.57913051939131        0.01265633028228
H            0.96803331950067        1.79995763781513        0.33637883090774
H            2.84334298654254        3.73355048617995        0.37373739734104
H            4.96196756167663        5.01264105907871        0.37011940975348
H            7.11576988801151        3.86015948171778        0.16683150101124
H            7.23220595121947        1.40557030564684       -0.00887525352720
H            4.93938469070921       -2.09797259957218       -1.78728851785989
H            6.68908801858528       -3.81549390139606       -2.03191665312263
H            8.63984374273710       -3.82243035140180       -0.51730107468937
H            8.81812772397909       -2.11918712612492        1.26237241364896
H            7.04767947355234       -0.43007051657407        1.53930706165709
H           -0.95563880173579       -2.47170232006711        0.65438137686449
H           -3.37252432611889       -2.51100500855659        0.59007440365399
H           -7.05696094356342       -0.04244883316985        1.54473884889720
H           -8.83483968638075       -1.74173362402797        1.66684367456806

          :  Hamiltonian                  GFN2-xTB          :
         :: gradient norm              0.000042088505 Eh/a0 ::
         :: HOMO-LUMO gap              0.231390862523 eV    ::
         :: SCC energy               -96.973040162443 Eh    ::
         :: -> dispersion             -0.083415241011 Eh    ::
         :: -> Gsolv                  -0.039048016260 Eh    ::
         :: repulsion energy           1.800386868436 Eh    ::

    * Orbital Energies and Occupations

         #    Occupation            Energy/Eh            Energy/eV
      -------------------------------------------------------------
         1        2.0000           -0.6766407             -18.4123
       ...           ...                  ...                  ...
        78        2.0000           -0.4174104             -11.3583
        79        2.0000           -0.4114669             -11.1966
        80        2.0000           -0.4109552             -11.1827
        81        2.0000           -0.4103046             -11.1650
        82        2.0000           -0.4080383             -11.1033
        83        2.0000           -0.4078585             -11.0984
        84        2.0000           -0.4000817             -10.8868
        85        2.0000           -0.3933466             -10.7035
        86        2.0000           -0.3809990             -10.3675
        87        2.0000           -0.3765508             -10.2465
        88        2.0000           -0.3692295             -10.0472
        89        1.0000           -0.3434721              -9.3464
        90        0.9860           -0.2509548              -6.8288 (HOMO)
        91        0.0091           -0.2424513              -6.5974 (LUMO)
        92        0.0049           -0.2418633              -6.5814
        93        0.0000           -0.2318101              -6.3079
        94                         -0.2313857              -6.2963
        95                         -0.2285687              -6.2197
        96                         -0.2285129              -6.2182
        97                         -0.2133581              -5.8058
        98                         -0.2025388              -5.5114
        99                         -0.1851962              -5.0394
       100                         -0.1849144              -5.0318
       101                         -0.1608293              -4.3764
       ...                                ...                  ...
       176                          0.7629917              20.7621
      -------------------------------------------------------------
                  HL-Gap            0.0085034 Eh            0.2314 eV

     #   Z          covCN         q      C6AA      α(0)
     1   6 C        2.918    -0.036    28.905     8.816
     2   6 C        2.919    -0.029    28.725     8.789
     3   6 C        2.921    -0.042    29.051     8.839
     4   6 C        2.913     0.058    26.708     8.474
     5   7 N        2.797    -0.020    21.643     6.910
     6   6 C        3.068     0.045    26.915     8.507
     7   6 C        2.910    -0.050    29.234     8.866
     8   6 C        2.923    -0.035    28.860     8.810
     9   6 C        2.919    -0.040    29.005     8.832
    10   6 C        2.912    -0.034    28.859     8.809
    11   6 C        3.060    -0.015    28.316     8.726
    12   6 C        3.046    -0.014    28.320     8.728
    13   6 C        2.910    -0.047    29.165     8.855
    14   6 C        2.964    -0.006    28.163     8.705
    15   6 C        2.964    -0.006    28.165     8.705
    16   6 C        2.919    -0.048    29.185     8.859
    17   6 C        2.901    -0.047    29.165     8.855
    18   6 C        3.066     0.027    27.325     8.572
    19   6 C        3.046    -0.014    28.320     8.728
    20   6 C        2.910    -0.047    29.159     8.855
    21   6 C        3.060    -0.015    28.317     8.726
    22   6 C        2.912    -0.034    28.858     8.809
    23   6 C        2.919    -0.040    29.004     8.832
    24   6 C        2.923    -0.035    28.860     8.810
    25   6 C        2.910    -0.050    29.234     8.866
    26   6 C        3.068     0.045    26.915     8.507
    27   7 N        2.797    -0.021    21.644     6.910
    28   6 C        2.913     0.058    26.710     8.475
    29   6 C        2.921    -0.042    29.055     8.839
    30   6 C        2.919    -0.029    28.723     8.789
    31   6 C        2.918    -0.036    28.906     8.817
    32   6 C        2.919    -0.029    28.726     8.789
    33   6 C        2.921    -0.043    29.075     8.842
    34   6 C        2.919    -0.048    29.181     8.858
    35   6 C        2.901    -0.047    29.162     8.854
    36   6 C        3.067     0.027    27.326     8.572
    37   6 C        2.921    -0.043    29.076     8.843
    38   6 C        2.919    -0.029    28.724     8.789
    39   1 H        0.926     0.036     2.499     2.472
    40   1 H        0.926     0.038     2.478     2.462
    41   1 H        0.926     0.040     2.450     2.448
    42   1 H        0.926     0.034     2.530     2.487
    43   1 H        0.926     0.033     2.549     2.497
    44   1 H        0.926     0.031     2.577     2.510
    45   1 H        0.926     0.032     2.563     2.503
    46   1 H        0.926     0.029     2.597     2.520
    47   1 H        0.926     0.028     2.609     2.526
    48   1 H        0.926     0.027     2.628     2.535
    49   1 H        0.926     0.029     2.602     2.523
    50   1 H        0.926     0.032     2.563     2.504
    51   1 H        0.926     0.031     2.577     2.510
    52   1 H        0.926     0.033     2.548     2.496
    53   1 H        0.926     0.034     2.529     2.487
    54   1 H        0.926     0.040     2.451     2.448
    55   1 H        0.926     0.038     2.478     2.462
    56   1 H        0.926     0.036     2.500     2.472
    57   1 H        0.926     0.038     2.475     2.460
    58   1 H        0.926     0.040     2.449     2.447
    59   1 H        0.926     0.028     2.614     2.528
    60   1 H        0.926     0.027     2.629     2.536
    61   1 H        0.926     0.040     2.449     2.447
    62   1 H        0.926     0.038     2.474     2.460

molecular dipole:
                 x           y           z       tot (Debye)
 q only:       -0.008      -0.478      -0.038
   full:       -0.008      -0.539      -0.042       1.375

 projected vibrational frequencies (cm⁻¹)
eigval :       -0.00    -0.00    -0.00     0.00     0.00     0.00
eigval :       11.49    17.81    30.73    45.83    57.02    58.21
eigval :       64.27    69.36    73.73    91.27   106.20   119.30
eigval :      133.99   152.03   164.91   182.22   213.51   230.63
eigval :      239.14   263.61   265.95   270.34   283.29   293.25
eigval :      344.91   355.55   378.14   380.26   383.41   390.50
eigval :      396.22   397.67   402.08   413.75   429.43   458.17
eigval :      466.53   480.55   519.88   531.84   534.53   545.67
eigval :      553.73   571.66   576.90   584.82   587.20   590.41
eigval :      594.78   609.16   610.65   639.79   647.58   650.03
eigval :      659.82   665.22   696.44   697.78   702.45   719.46
eigval :      750.90   752.34   760.83   767.00   768.46   771.92
eigval :      774.56   784.86   787.87   838.73   860.32   861.05
eigval :      870.41   872.51   878.45   882.11   885.56   888.36
eigval :      894.28   895.59   897.41   898.74   914.80   915.55
eigval :      916.84   918.84   923.14   923.89   926.03   927.70
eigval :      972.47   987.00   989.23   997.34  1007.65  1068.52
eigval :     1069.67  1073.15  1074.25  1075.05  1115.53  1116.09
eigval :     1118.58  1123.36  1139.64  1164.50  1169.42  1175.18
eigval :     1176.00  1176.27  1176.79  1192.26  1196.79  1201.49
eigval :     1204.74  1222.13  1242.98  1247.17  1250.51  1267.62
eigval :     1270.53  1272.05  1275.30  1290.19  1309.20  1321.46
eigval :     1321.78  1340.03  1342.30  1344.25  1349.93  1373.91
eigval :     1374.82  1396.59  1417.00  1421.84  1425.60  1431.08
eigval :     1437.03  1444.55  1460.27  1462.97  1466.10  1470.04
eigval :     1502.03  1504.94  1530.13  1531.72  1532.87  1550.84
eigval :     1552.39  1572.41  1572.79  1576.97  1583.10  1591.68
eigval :     3071.98  3073.20  3073.46  3074.32  3074.85  3075.17
eigval :     3076.04  3076.17  3080.10  3080.31  3086.48  3087.90
eigval :     3088.52  3088.85  3089.24  3090.73  3094.83  3095.11
eigval :     3096.12  3097.08  3100.35  3104.27  3111.32  3116.17

   temp. (K)  partition function   enthalpy   heat capacity  entropy
                                   cal/mol     cal/K/mol   cal/K/mol   J/K/mol
 298.15  VIB  0.117E+13            16742.770    111.175    102.502
         ROT  0.522E+08              888.752      2.981     38.296
         INT  0.609E+20            17631.522    114.155    140.798
         TR   0.103E+29             1481.254      4.968     44.402
         TOT                       19112.7761   119.1236   185.1999   774.8763

       T/K    H(0)-H(T)+PV         H(T)/Eh          T*S/Eh         G(T)/Eh
   ------------------------------------------------------------------------
    298.15    0.304581E-01    0.504383E+00    0.879944E-01    0.416388E+00
   ------------------------------------------------------------------------

         :::::::::::::::::::::::::::::::::::::::::::::::::::::
         ::                  THERMODYNAMIC                  ::
         :::::::::::::::::::::::::::::::::::::::::::::::::::::
         :: total free energy         -94.756265139384 Eh   ::
         ::.................................................::
         :: total energy              -95.172653288990 Eh   ::
         :: zero point energy           0.473924442282 Eh   ::
         :: G(RRHO) w/o ZPVE           -0.057536292675 Eh   ::
         :: G(RRHO) contrib.            0.416388149607 Eh   ::
         :::::::::::::::::::::::::::::::::::::::::::::::::::::

           -------------------------------------------------
          | TOTAL ENERGY              -95.172653288990 Eh   |
          | TOTAL ENTHALPY            -94.668270699285 Eh   |
          | TOTAL FREE ENERGY         -94.756265139384 Eh   |
          | GRADIENT NORM               0.000042052276 Eh/α |
          | HOMO-LUMO GAP               0.231390212470 eV   |
           -------------------------------------------------

 * finished run on 2025/07/20 at 02:42:55.572
