   * xtb version 6.7.1 (edcfbbe) compiled by 'albert@albert-system' on 2024-07-22

   ID    Z sym.   atoms
    1    6 C      1-4, 6-26, 28-38
    2    7 N      5, 27
    3    1 H      39-62

          program call               : xtb data2507/toluene/BCzPh/BCzPh_toluene_S0_crest.xyz --gfn 2 --gbsa toluene --ohess vtight --parallel 40 --molden --ceasefiles --namespace data2507/toluene/BCzPh/BCzPh_toluene_S0_finalOpt
      * Solvation model:               GBSA
        Solvent                        toluene
        Solvent mass                       9.2140E+01 g/mol
          :  Hamiltonian                  GFN2-xTB          :
 * total energy  :   -95.2767710 Eh     change       -0.3295071E-09 Eh
 * total energy  :   -95.2767956 Eh     change       -0.2459710E-04 Eh
 * total energy  :   -95.2768103 Eh     change       -0.1465210E-04 Eh
 * total energy  :   -95.2768172 Eh     change       -0.6921794E-05 Eh
 * total energy  :   -95.2768259 Eh     change       -0.8711417E-05 Eh
 * total energy  :   -95.2768314 Eh     change       -0.5471891E-05 Eh
 * total energy  :   -95.2768351 Eh     change       -0.3739964E-05 Eh
 * total energy  :   -95.2768369 Eh     change       -0.1805314E-05 Eh
 * total energy  :   -95.2768376 Eh     change       -0.6429583E-06 Eh
 * total energy  :   -95.2768380 Eh     change       -0.4605593E-06 Eh
 * total energy  :   -95.2768384 Eh     change       -0.3939495E-06 Eh
 * total energy  :   -95.2768387 Eh     change       -0.2823621E-06 Eh
 * total energy  :   -95.2768390 Eh     change       -0.3260528E-06 Eh
 * total energy  :   -95.2768394 Eh     change       -0.3398549E-06 Eh
 * total energy  :   -95.2768396 Eh     change       -0.2653990E-06 Eh
 * total energy  :   -95.2768398 Eh     change       -0.1695670E-06 Eh
 * total energy  :   -95.2768399 Eh     change       -0.1020781E-06 Eh
 * total energy  :   -95.2768399 Eh     change       -0.1967570E-07 Eh
   *** GEOMETRY OPTIMIZATION CONVERGED AFTER 18 ITERATIONS ***

 final structure:
================
62
 xtb: 6.7.1 (edcfbbe)
C           -7.86275129368121       -2.90205211787374       -0.96929990020716
C           -6.84782899793230       -2.62251147809799       -1.86985488333855
C           -5.86043945576055       -1.70943271516643       -1.54703265739456
C           -5.87905277895775       -1.07534776165781       -0.30806498029909
N           -4.87570574067822       -0.15121143706098        0.02618869530830
C           -5.07999759661703        1.13272866151255        0.49072477896357
C           -6.26790754590436        1.82071864022423        0.69624672586422
C           -6.18983193568460        3.12261516364565        1.15315687438254
C           -4.96243560233103        3.73722895537006        1.39415263100179
C           -3.77680149595108        3.06606385959566        1.16933268517053
C           -3.82927422655997        1.75603197360609        0.71069500116062
C           -2.82524721837712        0.78920148740392        0.36224004367476
C           -1.43884494184867        0.80695531133634        0.38461073104215
C           -0.73703896626738       -0.33054168226220        0.00584200552683
C            0.73477510977773       -0.33386837381398        0.01836666978189
C            1.43379062679788       -1.44640697400256        0.50831673170673
C            2.81241820481696       -1.49219449174483        0.54054267073568
C            3.51340098224041       -0.39665000596537        0.05570121679907
C            2.82882932575034        0.74447782689183       -0.42218100636487
C            1.44239547396996        0.76992044289143       -0.44072749042458
C            3.83750738150284        1.69565718279807       -0.79929765492135
C            3.79205582023628        2.97254939070730       -1.34408179804356
C            4.98129766302562        3.62073501149440       -1.61307874807105
C            6.20567079876117        3.00599848797279       -1.35738532726394
C            6.27674383165064        1.73671133893963       -0.81554385735152
C            5.08487222941546        1.08844356191293       -0.52256419351709
N            4.87426536560340       -0.17517155599446       -0.00776116712081
C            5.87317201562916       -1.08376717431360        0.37800419184628
C            5.86231471225666       -2.38492472126522       -0.11620486713611
C            6.84564670591920       -3.27801475387676        0.26886660852489
C            7.84905116170806       -2.88066307043944        1.13749251602684
C            7.86345625899856       -1.58465707447187        1.62675787785340
C            6.87836270410742       -0.68763432845680        1.25546610797160
C           -1.44218057670375       -1.47878544552342       -0.38208728921860
C           -2.82103667646396       -1.51748956549878       -0.41784508936540
C           -3.51565035801922       -0.37151350310041       -0.05637633530607
C           -6.89581780320212       -1.36161940711152        0.59826281771706
C           -7.88475368587849       -2.26831010247005        0.26244126164639
H           -8.63443961273131       -3.61204575291253       -1.22657071766551
H           -6.82844809320997       -3.11150780070524       -2.83278428277804
H           -5.07797493691042       -1.47431769380102       -2.25340159079176
H           -7.22364289732973        1.35931475504212        0.49774281035036
H           -7.10090198253554        3.67760819789792        1.32448076293075
H           -4.94317194861767        4.75567149423517        1.75402214777493
H           -2.82544290727149        3.54714454713585        1.34227574410781
H           -0.91159347495162        1.68838434441117        0.71809923278801
H            0.87244334824578       -2.28369547742000        0.89667227126288
H            3.32641158773465       -2.35158905590934        0.94449793409383
H            0.91955024216330        1.63347236894126       -0.82418632028177
H            2.84342135535284        3.44319689582213       -1.55634070404047
H            4.96735591683530        4.61490647391020       -2.03564408201342
H            7.11985294077600        3.53210581485652       -1.59171845824731
H            7.23023737167092        1.26287704264830       -0.63641514518717
H            5.08908298771107       -2.68436337177265       -0.80814137175095
H            6.83203895871374       -4.28646625311139       -0.11792229054845
H            8.61775638690537       -3.57902042915146        1.43271897513264
H            8.64137097406592       -1.27170322673827        2.30766993667226
H            6.87478305171687        0.31767186821470        1.65001890950741
H           -0.88561675277716       -2.35582268937274       -0.67881060532978
H           -3.34008616661820       -2.41740395750652       -0.71214148516069
H           -6.89809762386697       -0.87982630929417        1.56482934028249
H           -8.67162387622017       -2.48631530155513        0.96959293643122

          :  Hamiltonian                  GFN2-xTB          :
         :: gradient norm              0.000072805060 Eh/a0 ::
         :: HOMO-LUMO gap              2.952646237897 eV    ::
         :: SCC energy               -97.097234156090 Eh    ::
         :: -> dispersion             -0.083342754025 Eh    ::
         :: -> Gsolv                  -0.039204939354 Eh    ::
         :: repulsion energy           1.820394225362 Eh    ::

    * Orbital Energies and Occupations

         #    Occupation            Energy/Eh            Energy/eV
      -------------------------------------------------------------
         1        2.0000           -0.6743599             -18.3503
       ...           ...                  ...                  ...
        77        2.0000           -0.4186429             -11.3919
        78        2.0000           -0.4146593             -11.2835
        79        2.0000           -0.4132428             -11.2449
        80        2.0000           -0.4117081             -11.2031
        81        2.0000           -0.4112220             -11.1899
        82        2.0000           -0.4089112             -11.1270
        83        2.0000           -0.4087471             -11.1226
        84        2.0000           -0.4059370             -11.0461
        85        2.0000           -0.3965268             -10.7900
        86        2.0000           -0.3781817             -10.2908
        87        2.0000           -0.3755624             -10.2196
        88        2.0000           -0.3649191              -9.9300
        89        2.0000           -0.3528484              -9.6015 (HOMO)
        90                         -0.2443407              -6.6488 (LUMO)
        91                         -0.2441489              -6.6436
        92                         -0.2367273              -6.4417
        93                         -0.2317310              -6.3057
        94                         -0.2302520              -6.2655
        95                         -0.2302428              -6.2652
        96                         -0.2292358              -6.2378
        97                         -0.2132360              -5.8024
        98                         -0.1976542              -5.3784
        99                         -0.1860521              -5.0627
       100                         -0.1855148              -5.0481
       ...                                ...                  ...
       176                          0.7542067              20.5230
      -------------------------------------------------------------
                  HL-Gap            0.1085078 Eh            2.9526 eV

     #   Z          covCN         q      C6AA      α(0)
     1   6 C        2.919    -0.033    28.825     8.804
     2   6 C        2.920    -0.028    28.704     8.786
     3   6 C        2.922    -0.042    29.046     8.838
     4   6 C        2.913     0.064    26.557     8.450
     5   7 N        2.802    -0.048    22.160     6.992
     6   6 C        3.076     0.048    26.854     8.496
     7   6 C        2.909    -0.052    29.297     8.875
     8   6 C        2.924    -0.036    28.884     8.814
     9   6 C        2.919    -0.043    29.074     8.842
    10   6 C        2.912    -0.035    28.874     8.811
    11   6 C        3.068    -0.019    28.411     8.740
    12   6 C        3.064    -0.020    28.434     8.744
    13   6 C        2.918    -0.040    29.004     8.832
    14   6 C        2.976    -0.002    28.080     8.692
    15   6 C        2.976    -0.002    28.080     8.692
    16   6 C        2.928    -0.040    28.998     8.831
    17   6 C        2.908    -0.053    29.314     8.878
    18   6 C        3.077     0.046    26.898     8.503
    19   6 C        3.064    -0.020    28.434     8.744
    20   6 C        2.918    -0.040    29.004     8.832
    21   6 C        3.068    -0.019    28.410     8.740
    22   6 C        2.912    -0.035    28.874     8.811
    23   6 C        2.919    -0.043    29.073     8.842
    24   6 C        2.924    -0.036    28.884     8.813
    25   6 C        2.909    -0.052    29.296     8.875
    26   6 C        3.076     0.048    26.854     8.496
    27   7 N        2.802    -0.048    22.158     6.991
    28   6 C        2.913     0.064    26.557     8.450
    29   6 C        2.922    -0.042    29.047     8.838
    30   6 C        2.920    -0.028    28.704     8.786
    31   6 C        2.919    -0.033    28.825     8.804
    32   6 C        2.920    -0.028    28.705     8.786
    33   6 C        2.922    -0.042    29.048     8.838
    34   6 C        2.928    -0.040    28.999     8.831
    35   6 C        2.908    -0.053    29.315     8.878
    36   6 C        3.077     0.046    26.898     8.503
    37   6 C        2.922    -0.042    29.048     8.838
    38   6 C        2.920    -0.028    28.705     8.786
    39   1 H        0.926     0.039     2.463     2.454
    40   1 H        0.926     0.040     2.452     2.449
    41   1 H        0.926     0.041     2.439     2.442
    42   1 H        0.926     0.029     2.599     2.521
    43   1 H        0.926     0.029     2.599     2.521
    44   1 H        0.926     0.027     2.632     2.537
    45   1 H        0.926     0.029     2.600     2.522
    46   1 H        0.926     0.030     2.585     2.514
    47   1 H        0.926     0.031     2.573     2.508
    48   1 H        0.926     0.029     2.597     2.520
    49   1 H        0.926     0.030     2.582     2.513
    50   1 H        0.926     0.029     2.599     2.521
    51   1 H        0.926     0.027     2.632     2.537
    52   1 H        0.926     0.029     2.599     2.521
    53   1 H        0.926     0.029     2.599     2.521
    54   1 H        0.926     0.041     2.438     2.442
    55   1 H        0.926     0.040     2.451     2.448
    56   1 H        0.926     0.039     2.463     2.454
    57   1 H        0.926     0.040     2.452     2.449
    58   1 H        0.926     0.041     2.440     2.443
    59   1 H        0.926     0.031     2.570     2.507
    60   1 H        0.926     0.029     2.596     2.520
    61   1 H        0.926     0.041     2.440     2.442
    62   1 H        0.926     0.040     2.452     2.449

molecular dipole:
                 x           y           z       tot (Debye)
 q only:       -0.001      -0.947       0.026
   full:       -0.001      -0.996       0.030       2.533

 projected vibrational frequencies (cm⁻¹)
eigval :       -0.00    -0.00    -0.00     0.00     0.00     0.00
eigval :       17.50    19.79    25.39    49.78    55.51    59.85
eigval :       62.00    64.03    68.05    96.81   107.36   131.43
eigval :      135.72   159.12   166.48   193.86   216.49   232.19
eigval :      243.11   265.39   271.32   273.04   303.70   338.91
eigval :      351.94   374.82   379.36   381.01   394.64   397.69
eigval :      410.29   415.64   427.87   430.55   441.86   466.38
eigval :      477.89   482.59   529.54   535.96   536.53   557.14
eigval :      572.03   579.07   587.10   590.94   592.57   606.66
eigval :      609.40   619.41   624.83   654.40   669.27   672.35
eigval :      676.65   686.49   705.24   706.96   714.98   729.56
eigval :      760.77   762.63   769.30   771.25   775.34   810.71
eigval :      830.04   844.74   864.09   867.93   869.46   877.34
eigval :      880.32   882.09   892.63   898.28   899.99   902.77
eigval :      905.05   909.09   915.49   917.80   919.19   922.30
eigval :      922.66   930.51   931.08   932.28   932.51   934.50
eigval :      996.82   997.31  1011.97  1029.53  1069.24  1070.71
eigval :     1072.19  1078.50  1079.37  1116.10  1117.35  1119.50
eigval :     1122.49  1152.37  1157.85  1176.07  1176.44  1177.98
eigval :     1178.55  1181.93  1183.71  1198.67  1199.35  1213.02
eigval :     1227.47  1242.23  1246.66  1255.13  1272.63  1273.51
eigval :     1279.64  1287.33  1302.03  1315.30  1315.47  1318.43
eigval :     1345.33  1349.89  1358.77  1360.40  1360.90  1371.62
eigval :     1417.10  1420.35  1426.33  1432.30  1434.02  1436.21
eigval :     1467.76  1479.36  1479.70  1481.08  1483.71  1491.50
eigval :     1562.35  1567.36  1581.10  1581.81  1582.40  1583.56
eigval :     1592.98  1593.10  1595.09  1598.53  1610.79  1615.65
eigval :     3070.13  3070.35  3074.35  3075.38  3075.54  3075.83
eigval :     3075.98  3076.53  3077.71  3077.89  3081.23  3083.07
eigval :     3083.61  3084.20  3086.24  3087.03  3087.47  3088.59
eigval :     3089.77  3091.01  3091.21  3091.69  3096.43  3097.00

   temp. (K)  partition function   enthalpy   heat capacity  entropy
                                   cal/mol     cal/K/mol   cal/K/mol   J/K/mol
 298.15  VIB  0.511E+12            16341.853    108.651     99.789
         ROT  0.522E+08              888.752      2.981     38.295
         INT  0.267E+20            17230.606    111.632    138.084
         TR   0.103E+29             1481.254      4.968     44.402
         TOT                       18711.8594   116.5998   182.4858   763.5204

       T/K    H(0)-H(T)+PV         H(T)/Eh          T*S/Eh         G(T)/Eh
   ------------------------------------------------------------------------
    298.15    0.298192E-01    0.508783E+00    0.867049E-01    0.422078E+00
   ------------------------------------------------------------------------

         :::::::::::::::::::::::::::::::::::::::::::::::::::::
         ::                  THERMODYNAMIC                  ::
         :::::::::::::::::::::::::::::::::::::::::::::::::::::
         :: total free energy         -94.854762009820 Eh   ::
         ::.................................................::
         :: total energy              -95.276839929992 Eh   ::
         :: zero point energy           0.478963543563 Eh   ::
         :: G(RRHO) w/o ZPVE           -0.056885623392 Eh   ::
         :: G(RRHO) contrib.            0.422077920172 Eh   ::
         :::::::::::::::::::::::::::::::::::::::::::::::::::::

           -------------------------------------------------
          | TOTAL ENERGY              -95.276839929992 Eh   |
          | TOTAL ENTHALPY            -94.768057140333 Eh   |
          | TOTAL FREE ENERGY         -94.854762009820 Eh   |
          | GRADIENT NORM               0.000072794005 Eh/α |
          | HOMO-LUMO GAP               2.952646443479 eV   |
           -------------------------------------------------

 * finished run on 2025/07/20 at 02:40:03.318
