   * xtb version 6.7.1 (edcfbbe) compiled by 'albert@albert-system' on 2024-07-22

   ID    Z sym.   atoms
    1    6 C      1-4, 6-26, 28-38
    2    7 N      5, 27
    3    1 H      39-62

          program call               : xtb data2507/toluene/BCzPh/BCzPh_toluene_S0_finalOpt.xtbopt.xyz --gfn 2 --uhf 2 --gbsa toluene --ohess vtight --parallel 40 --molden --ceasefiles --namespace data2507/toluene/BCzPh/BCzPh_toluene_T1_preOpt
      * Solvation model:               GBSA
        Solvent                        toluene
        Solvent mass                       9.2140E+01 g/mol
          :  Hamiltonian                  GFN2-xTB          :
 * total energy  :   -95.1667792 Eh     change       -0.4770442E-09 Eh
 * total energy  :   -95.1689285 Eh     change       -0.2149362E-02 Eh
 * total energy  :   -95.1696343 Eh     change       -0.7057234E-03 Eh
 * total energy  :   -95.1697777 Eh     change       -0.1434024E-03 Eh
 * total energy  :   -95.1699010 Eh     change       -0.1233881E-03 Eh
 * total energy  :   -95.1699770 Eh     change       -0.7597733E-04 Eh
 * total energy  :   -95.1700862 Eh     change       -0.1091940E-03 Eh
 * total energy  :   -95.1702280 Eh     change       -0.1417532E-03 Eh
 * total energy  :   -95.1704258 Eh     change       -0.1977923E-03 Eh
 * total energy  :   -95.1705511 Eh     change       -0.1253374E-03 Eh
 * total energy  :   -95.1726059 Eh     change       -0.9078609E-06 Eh
 * total energy  :   -95.1726068 Eh     change       -0.8636871E-06 Eh
 * total energy  :   -95.1726076 Eh     change       -0.8231985E-06 Eh
 * total energy  :   -95.1726084 Eh     change       -0.7831495E-06 Eh
 * total energy  :   -95.1726092 Eh     change       -0.7467116E-06 Eh
 * total energy  :   -95.1726098 Eh     change       -0.6686249E-06 Eh
 * total energy  :   -95.1726106 Eh     change       -0.7343332E-06 Eh
 * total energy  :   -95.1726112 Eh     change       -0.6209684E-06 Eh
 * total energy  :   -95.1726112 Eh     change       -0.5608509E-07 Eh
   *** GEOMETRY OPTIMIZATION CONVERGED AFTER 185 ITERATIONS ***

 final structure:
================
62
 xtb: 6.7.1 (edcfbbe)
C           -7.90378444650769       -2.98274217437090       -0.50519762817181
C           -6.81054171215260       -2.95230190725262       -1.35928904748875
C           -5.81021337725754       -2.01764272060597       -1.18106852700768
C           -5.89364203633983       -1.09675387494933       -0.13449387295490
N           -4.88408399966699       -0.14643482814181        0.04597490572161
C           -5.08076959429893        1.21669695758477        0.20579872087106
C           -6.26256262037191        1.94291614309107        0.21520546708120
C           -6.17574824969182        3.31856043513640        0.36575622311032
C           -4.94915409319713        3.95777556552207        0.49108415099096
C           -3.76308230809894        3.23716221199131        0.45110917146045
C           -3.82634004533186        1.86292282268970        0.30208371828634
C           -2.82002532745744        0.83093559832172        0.19277913383594
C           -1.45571617781577        0.85615717088131        0.22828900912485
C           -0.70354189832192       -0.36841907509234        0.13563258505140
C            0.70317533165347       -0.37359343710738        0.14636488762121
C            1.46380269212823       -1.57868042977128        0.38619194844573
C            2.82406855523800       -1.61991527753056        0.37566825909204
C            3.53472847328940       -0.43953466686049        0.09092623616753
C            2.82753321371397        0.78539354010824       -0.10570571855520
C            1.46354564497451        0.83007750659773       -0.07075241529715
C            3.83963221576400        1.79737571915867       -0.30826980324082
C            3.78423396097924        3.15530165368250       -0.56833803816157
C            4.97402680785394        3.84758181670023       -0.74937299857250
C            6.19648643546393        3.19124771290528       -0.68905894912631
C            6.27565536481616        1.83179222962907       -0.42792838471791
C            5.09020578590944        1.14296485462604       -0.21673344934074
N            4.88555497878718       -0.20634154928068        0.02715490276108
C            5.88940376579585       -1.17117957960507        0.15308759517071
C            5.80636368559442       -2.36899103541706       -0.55960634384156
C            6.79524569228334       -3.32288822211641       -0.42360955078958
C            7.87664820611937       -3.09891910392357        0.41675906727719
C            7.96183701302621       -1.90871813594870        1.12494542052425
C            6.97676364817540       -0.94922066709352        1.00081169018940
C           -1.47233618188060       -1.58843502945433        0.04039992582056
C           -2.83204519990699       -1.61346198117133       -0.01460866147942
C           -3.53469473551418       -0.39559935079205        0.03631775311778
C           -6.99042340550522       -1.13455617290349        0.72883399118383
C           -7.98687958449718       -2.07116936113725        0.53771036322053
H           -8.68514033728112       -3.71318962809355       -0.65045981635160
H           -6.74279944011910       -3.65716934691921       -2.17506625796019
H           -4.97068298447809       -1.97535933363784       -1.85903295150822
H           -7.22058445771345        1.46047637962330        0.09721717624964
H           -7.08351975969027        3.90387323996700        0.38154439314270
H           -4.91892928239097        5.03074643559234        0.61101177428167
H           -2.80996447068637        3.73809077557946        0.53048018432480
H           -0.94729219448533        1.79303649461333        0.38443603946859
H            0.93089411060437       -2.48061400223202        0.64001912654491
H            3.35040203801671       -2.53551208903558        0.60260044787578
H            0.95976650518326        1.76557921151862       -0.24747656288401
H            2.83418642338250        3.66362779432086       -0.63633876782313
H            4.94959057337558        4.90819877852594       -0.95191817659093
H            7.10696959897944        3.74891545329690       -0.85311044017503
H            7.23042771522126        1.32944968114126       -0.40389539834868
H            4.97569428621476       -2.53012190082649       -1.23056964822243
H            6.72684786993533       -4.24536334613357       -0.98149521875366
H            8.64765387931489       -3.84740971013720        0.51952765837559
H            8.79710799883508       -1.73258105828026        1.78693106093996
H            7.02558294929131       -0.03564522444265        1.57447375797002
H           -0.94461889174223       -2.52595776906300       -0.02352828551397
H           -3.36406207104002       -2.55080177608932       -0.08576339287802
H           -7.03926088344099       -0.44304352718255        1.55671624882785
H           -8.83091445410339       -2.09704248280879        1.21141547651650

          :  Hamiltonian                  GFN2-xTB          :
         :: gradient norm              0.000087755415 Eh/a0 ::
         :: HOMO-LUMO gap              0.220962763398 eV    ::
         :: SCC energy               -96.972938190380 Eh    ::
         :: -> dispersion             -0.083412154496 Eh    ::
         :: -> Gsolv                  -0.039028880755 Eh    ::
         :: repulsion energy           1.800326949132 Eh    ::

    * Orbital Energies and Occupations

         #    Occupation            Energy/Eh            Energy/eV
      -------------------------------------------------------------
         1        2.0000           -0.6766670             -18.4130
       ...           ...                  ...                  ...
        78        2.0000           -0.4173810             -11.3575
        79        2.0000           -0.4114177             -11.1952
        80        2.0000           -0.4108868             -11.1808
        81        2.0000           -0.4102259             -11.1628
        82        2.0000           -0.4080231             -11.1029
        83        2.0000           -0.4077701             -11.0960
        84        2.0000           -0.4005538             -10.8996
        85        2.0000           -0.3934375             -10.7060
        86        2.0000           -0.3809546             -10.3663
        87        2.0000           -0.3766036             -10.2479
        88        2.0000           -0.3691425             -10.0449
        89        1.0000           -0.3437437              -9.3537
        90        0.9827           -0.2506158              -6.8196 (HOMO)
        91        0.0109           -0.2424955              -6.5986 (LUMO)
        92        0.0064           -0.2419765              -6.5845
        93        0.0000           -0.2317950              -6.3075
        94                         -0.2313467              -6.2953
        95                         -0.2284840              -6.2174
        96                         -0.2284138              -6.2155
        97                         -0.2134393              -5.8080
        98                         -0.2024556              -5.5091
        99                         -0.1852251              -5.0402
       100                         -0.1850025              -5.0342
       101                         -0.1613401              -4.3903
       ...                                ...                  ...
       176                          0.7628050              20.7570
      -------------------------------------------------------------
                  HL-Gap            0.0081203 Eh            0.2210 eV

     #   Z          covCN         q      C6AA      α(0)
     1   6 C        2.918    -0.037    28.909     8.817
     2   6 C        2.919    -0.029    28.725     8.789
     3   6 C        2.921    -0.042    29.056     8.839
     4   6 C        2.913     0.057    26.714     8.475
     5   7 N        2.797    -0.020    21.643     6.909
     6   6 C        3.068     0.045    26.914     8.507
     7   6 C        2.910    -0.050    29.236     8.866
     8   6 C        2.923    -0.035    28.861     8.810
     9   6 C        2.919    -0.040    29.003     8.831
    10   6 C        2.912    -0.035    28.862     8.809
    11   6 C        3.060    -0.015    28.316     8.726
    12   6 C        3.046    -0.014    28.319     8.728
    13   6 C        2.910    -0.046    29.149     8.853
    14   6 C        2.965    -0.006    28.163     8.705
    15   6 C        2.965    -0.006    28.161     8.704
    16   6 C        2.919    -0.048    29.182     8.859
    17   6 C        2.901    -0.047    29.162     8.854
    18   6 C        3.066     0.027    27.328     8.572
    19   6 C        3.046    -0.014    28.318     8.728
    20   6 C        2.910    -0.047    29.156     8.854
    21   6 C        3.060    -0.015    28.316     8.726
    22   6 C        2.912    -0.035    28.862     8.809
    23   6 C        2.919    -0.040    29.003     8.831
    24   6 C        2.923    -0.035    28.862     8.810
    25   6 C        2.910    -0.050    29.235     8.866
    26   6 C        3.068     0.045    26.916     8.507
    27   7 N        2.797    -0.020    21.639     6.909
    28   6 C        2.913     0.057    26.711     8.475
    29   6 C        2.921    -0.042    29.054     8.839
    30   6 C        2.919    -0.029    28.726     8.789
    31   6 C        2.918    -0.036    28.907     8.817
    32   6 C        2.919    -0.029    28.725     8.789
    33   6 C        2.921    -0.043    29.077     8.843
    34   6 C        2.919    -0.048    29.187     8.859
    35   6 C        2.901    -0.047    29.160     8.854
    36   6 C        3.066     0.027    27.327     8.572
    37   6 C        2.921    -0.043    29.076     8.842
    38   6 C        2.919    -0.029    28.727     8.789
    39   1 H        0.926     0.036     2.501     2.473
    40   1 H        0.926     0.038     2.480     2.463
    41   1 H        0.926     0.040     2.453     2.449
    42   1 H        0.926     0.034     2.529     2.487
    43   1 H        0.926     0.033     2.549     2.497
    44   1 H        0.926     0.031     2.577     2.510
    45   1 H        0.926     0.032     2.563     2.503
    46   1 H        0.926     0.029     2.599     2.521
    47   1 H        0.926     0.028     2.614     2.528
    48   1 H        0.926     0.027     2.625     2.534
    49   1 H        0.926     0.029     2.594     2.519
    50   1 H        0.926     0.032     2.562     2.503
    51   1 H        0.926     0.031     2.577     2.510
    52   1 H        0.926     0.033     2.549     2.497
    53   1 H        0.926     0.034     2.530     2.487
    54   1 H        0.926     0.040     2.449     2.447
    55   1 H        0.926     0.038     2.479     2.462
    56   1 H        0.926     0.036     2.500     2.473
    57   1 H        0.926     0.038     2.476     2.460
    58   1 H        0.926     0.040     2.450     2.448
    59   1 H        0.926     0.028     2.609     2.526
    60   1 H        0.926     0.027     2.627     2.535
    61   1 H        0.926     0.040     2.450     2.448
    62   1 H        0.926     0.038     2.477     2.461

molecular dipole:
                 x           y           z       tot (Debye)
 q only:        0.009      -0.467      -0.028
   full:        0.009      -0.528      -0.031       1.344

 projected vibrational frequencies (cm⁻¹)
eigval :       -0.00    -0.00    -0.00    -0.00     0.00     0.00
eigval :       14.23    16.89    30.76    46.70    58.27    60.86
eigval :       64.34    69.46    74.06    91.10   104.98   121.65
eigval :      134.15   151.00   164.66   181.74   214.63   231.74
eigval :      238.76   263.26   265.61   270.47   283.92   293.70
eigval :      344.37   355.24   379.33   381.66   383.78   388.83
eigval :      394.64   397.18   402.55   412.52   429.43   458.53
eigval :      466.74   479.54   519.84   529.97   534.74   545.60
eigval :      552.95   571.90   576.90   584.88   587.26   590.41
eigval :      594.83   609.35   610.32   638.28   647.20   649.95
eigval :      660.89   665.87   695.62   696.83   702.07   719.13
eigval :      753.36   756.76   760.89   767.47   768.88   771.59
eigval :      775.38   785.07   790.79   839.02   860.69   861.28
eigval :      871.17   873.89   878.88   881.81   886.96   888.65
eigval :      894.46   895.22   899.53   900.49   914.99   915.67
eigval :      916.29   918.62   924.93   927.36   928.20   931.82
eigval :      973.43   986.72   988.96   997.43  1007.02  1064.34
eigval :     1069.71  1072.64  1074.00  1075.08  1115.30  1117.87
eigval :     1118.62  1123.05  1139.36  1163.56  1168.77  1174.66
eigval :     1176.33  1176.46  1177.02  1191.79  1197.26  1199.82
eigval :     1204.47  1221.14  1242.36  1246.79  1249.23  1265.49
eigval :     1270.97  1272.28  1275.46  1289.80  1306.21  1321.63
eigval :     1321.91  1337.12  1342.05  1342.53  1349.27  1373.23
eigval :     1373.99  1393.92  1416.62  1421.58  1425.31  1430.29
eigval :     1436.60  1442.58  1459.89  1462.50  1465.83  1469.74
eigval :     1500.53  1503.08  1525.04  1530.25  1530.68  1548.28
eigval :     1549.71  1570.54  1570.96  1576.10  1582.61  1589.18
eigval :     3072.77  3073.37  3073.53  3074.25  3075.01  3075.07
eigval :     3076.04  3076.62  3080.01  3080.60  3087.27  3088.22
eigval :     3088.55  3089.23  3089.99  3090.93  3095.11  3095.40
eigval :     3096.73  3097.35  3098.58  3102.15  3108.70  3113.23

   temp. (K)  partition function   enthalpy   heat capacity  entropy
                                   cal/mol     cal/K/mol   cal/K/mol   J/K/mol
 298.15  VIB  0.919E+12            16731.685    111.243    102.283
         ROT  0.522E+08              888.752      2.981     38.295
         INT  0.479E+20            17620.438    114.224    140.578
         TR   0.103E+29             1481.254      4.968     44.402
         TOT                       19101.6916   119.1921   184.9799   773.9557

       T/K    H(0)-H(T)+PV         H(T)/Eh          T*S/Eh         G(T)/Eh
   ------------------------------------------------------------------------
    298.15    0.304405E-01    0.504304E+00    0.878899E-01    0.416414E+00
   ------------------------------------------------------------------------

         :::::::::::::::::::::::::::::::::::::::::::::::::::::
         ::                  THERMODYNAMIC                  ::
         :::::::::::::::::::::::::::::::::::::::::::::::::::::
         :: total free energy         -94.756197570927 Eh   ::
         ::.................................................::
         :: total energy              -95.172611244540 Eh   ::
         :: zero point energy           0.473863087981 Eh   ::
         :: G(RRHO) w/o ZPVE           -0.057449414368 Eh   ::
         :: G(RRHO) contrib.            0.416413673613 Eh   ::
         :::::::::::::::::::::::::::::::::::::::::::::::::::::

           -------------------------------------------------
          | TOTAL ENERGY              -95.172611244540 Eh   |
          | TOTAL ENTHALPY            -94.668307673440 Eh   |
          | TOTAL FREE ENERGY         -94.756197570927 Eh   |
          | GRADIENT NORM               0.000087789019 Eh/α |
          | HOMO-LUMO GAP               0.220964302049 eV   |
           -------------------------------------------------

 * finished run on 2025/07/20 at 02:40:13.769
