   * xtb version 6.7.1 (edcfbbe) compiled by 'albert@albert-system' on 2024-07-22

   ID    Z sym.   atoms
    1    6 C      1-9, 11-17, 19-23, 25, 27-31, 33-35, 37-44
    2    7 N      10, 18, 24, 26, 32, 36
    3    1 H      45-70

          program call               : xtb data2507/gas/3Py-DMAC/3Py-DMAC_gas_S0_crest.xyz --gfn 2 --ohess vtight --parallel 40 --molden --ceasefiles --namespace data2507/gas/3Py-DMAC/3Py-DMAC_gas_S0_finalOpt
          :  Hamiltonian                  GFN2-xTB          :
 * total energy  :  -112.1129255 Eh     change       -0.1325219E-08 Eh
 * total energy  :  -112.1129230 Eh     change        0.2539104E-05 Eh
 * total energy  :  -112.1129264 Eh     change       -0.3421219E-05 Eh
 * total energy  :  -112.1129261 Eh     change        0.2364368E-06 Eh
 * total energy  :  -112.1129280 Eh     change       -0.1833836E-05 Eh
 * total energy  :  -112.1129290 Eh     change       -0.9964719E-06 Eh
 * total energy  :  -112.1129315 Eh     change       -0.2500531E-05 Eh
 * total energy  :  -112.1129334 Eh     change       -0.1889404E-05 Eh
 * total energy  :  -112.1129329 Eh     change        0.4167358E-06 Eh
 * total energy  :  -112.1129341 Eh     change       -0.1159730E-05 Eh
 * total energy  :  -112.1129344 Eh     change       -0.2834323E-06 Eh
 * total energy  :  -112.1129348 Eh     change       -0.3865667E-06 Eh
 * total energy  :  -112.1129351 Eh     change       -0.3548730E-06 Eh
 * total energy  :  -112.1129354 Eh     change       -0.3126346E-06 Eh
 * total energy  :  -112.1129356 Eh     change       -0.2019457E-06 Eh
 * total energy  :  -112.1129357 Eh     change       -0.5367946E-07 Eh
   *** GEOMETRY OPTIMIZATION CONVERGED AFTER 16 ITERATIONS ***

 final structure:
================
70
 xtb: 6.7.1 (edcfbbe)
C           -7.57294931444875        0.21615882597477       -1.32591705080912
C           -6.71447254238750       -0.01290868818249       -0.06846921255868
C           -7.61517387820251       -0.25862923086992        1.15585930153873
C           -5.84977856822231       -1.23810478179841       -0.29312562560137
C           -6.45703143909608       -2.46034766472561       -0.54966333725352
C           -5.72593646542616       -3.60608161980927       -0.79981195750643
C           -4.34500356606409       -3.53409776650765       -0.81786422511808
C           -3.71628620848784       -2.33330671132416       -0.56481413904698
C           -4.45279969947249       -1.18045897338551       -0.27617580200464
N           -3.79259742314869        0.01473162108440       -0.01350406556133
C           -2.37969116021291        0.02620775186303        0.01414763811897
C           -1.66341872682136        0.68352418207713       -0.98206537442923
C           -0.28435706406731        0.69621617732557       -0.95342689304518
C            0.40307315584111        0.03695458093055        0.06324864589014
C            1.87039143068908        0.02873693832169        0.08571335832025
C            2.60690642355419        1.21959067023908        0.00856219103259
C            1.92715589930928        2.45377262290979       -0.07686893103365
N            1.36325389943553        3.45068136228580       -0.14459037093926
C            4.01574584371462        1.14802409371597        0.00085066948124
C            4.86425994191179        2.33679263500569       -0.10916972986924
C            4.59658752605120        3.52979261637857        0.55865036726198
C            5.45769017701410        4.59898373684222        0.38366755245165
C            6.56227321702957        4.43296992518748       -0.43895431887487
N            6.83232502341533        3.30038155834089       -1.06661090035675
C            6.01193684258296        2.28483511603515       -0.90655074729970
N            4.65205516870680       -0.01042506991028        0.06451431698909
C            3.98561451649804       -1.14882595721239        0.17400901189082
C            4.79796247084723       -2.36353183968494        0.25553728181980
C            4.45530693052610       -3.45483974236091        1.05143278491940
C            5.28468186590255       -4.56241464184655        1.05725157573012
C            6.43427745336811       -4.53335622840628        0.28112946177071
N            6.77541435254775       -3.49747461497654       -0.46738670895610
C            5.98454951302997       -2.44660314479485       -0.48014485593411
C            2.57563267913463       -1.17997957071824        0.17791307827210
C            1.86345410169467       -2.39875287817980        0.15070137184702
N            1.27562693882424       -3.38170994194019        0.08353087398674
C           -0.31553354459867       -0.62592612711945        1.05610758902092
C           -1.69452892134955       -0.62347678638632        1.03702404112627
C           -4.48444921509603        1.19716518674398        0.22193624849707
C           -3.78101129968391        2.36413584107158        0.53521920924497
C           -4.44119057629510        3.55290295260728        0.76371829647564
C           -5.82169343093206        3.59844145771781        0.69597246692513
C           -6.52127156778092        2.43887436291976        0.42059303039548
C           -5.88203042346420        1.22833584246467        0.18765627982437
H           -8.20154141112565       -0.64608971855581       -1.52997838777579
H           -6.92920193876344        0.38294357269427       -2.18762601040097
H           -8.21522124074487        1.08398906643777       -1.20475705035570
H           -8.23667953006635       -1.13774861704468        1.01028560465867
H           -8.26650172623126        0.59189976127800        1.33647619222399
H           -7.00135157438859       -0.41475934273341        2.04110822874872
H           -7.53454555485099       -2.52487080706728       -0.55856495886967
H           -6.23045211313228       -4.54078652113530       -0.99101588401888
H           -3.75148168410573       -4.40986279898628       -1.03259852989720
H           -2.63875652422625       -2.28962950875117       -0.59916998808160
H           -2.19603617003874        1.18313143613769       -1.77693574498578
H            0.26343462832434        1.19298974324341       -1.74047217779105
H            3.74834816149917        3.61430664748188        1.22176667023307
H            5.28009151505591        5.53646130694292        0.88624452929039
H            7.26944280302378        5.23574239100073       -0.59886825579596
H            6.26058801527049        1.37779901456743       -1.44007463608362
H            3.57260498539563       -3.43079822890442        1.67359057901615
H            5.04899097199412       -5.42378545549431        1.66183395992100
H            7.11951779684558       -5.37011564577385        0.26104868747954
H            6.29069267931580       -1.62165370500978       -1.10836360570463
H            0.20810216986422       -1.12083660690408        1.86096244130861
H           -2.25153745485500       -1.12862460994446        1.81147207211804
H           -2.70467135772283        2.34047906131653        0.60723963146958
H           -3.87290164721727        4.44039246781954        0.99795752369776
H           -6.35050508536680        4.52346170839682        0.86760186174144
H           -7.59940955102203        2.48297327358444        0.38999378792085

          :  Hamiltonian                  GFN2-xTB          :
         :: gradient norm              0.000129383874 Eh/a0 ::
         :: HOMO-LUMO gap              0.893975883522 eV    ::
         :: SCC energy              -114.183329691726 Eh    ::
         :: -> dispersion             -0.099805683300 Eh    ::
         :: repulsion energy           2.070393998228 Eh    ::

    * Orbital Energies and Occupations

         #    Occupation            Energy/Eh            Energy/eV
      -------------------------------------------------------------
         1        2.0000           -0.7074090             -19.2496
       ...           ...                  ...                  ...
        92        2.0000           -0.4306621             -11.7189
        93        2.0000           -0.4275740             -11.6349
        94        2.0000           -0.4223468             -11.4926
        95        2.0000           -0.4201488             -11.4328
        96        2.0000           -0.4085870             -11.1182
        97        2.0000           -0.4073619             -11.0849
        98        2.0000           -0.4048434             -11.0163
        99        2.0000           -0.4033451             -10.9756
       100        2.0000           -0.3974495             -10.8152
       101        2.0000           -0.3922062             -10.6725
       102        2.0000           -0.3829825             -10.4215
       103        2.0000           -0.3815862             -10.3835
       104        2.0000           -0.3480271              -9.4703 (HOMO)
       105                         -0.3151743              -8.5763 (LUMO)
       106                         -0.3051678              -8.3040
       107                         -0.2709359              -7.3725
       108                         -0.2635104              -7.1705
       109                         -0.2610118              -7.1025
       110                         -0.2499200              -6.8007
       111                         -0.2438853              -6.6365
       112                         -0.2414111              -6.5691
       113                         -0.2273924              -6.1877
       114                         -0.2240715              -6.0973
       115                         -0.2209620              -6.0127
       ...                                ...                  ...
       202                          1.1493125              31.2744
      -------------------------------------------------------------
                  HL-Gap            0.0328528 Eh            0.8940 eV

     #   Z          covCN         q      C6AA      α(0)
     1   6 C        3.761    -0.103    22.516     6.764
     2   6 C        3.909     0.021    20.157     6.381
     3   6 C        3.761    -0.103    22.515     6.764
     4   6 C        2.980    -0.013    28.336     8.732
     5   6 C        2.928    -0.036    28.897     8.816
     6   6 C        2.917    -0.044    29.081     8.843
     7   6 C        2.920    -0.032    28.800     8.801
     8   6 C        2.924    -0.058    29.448     8.899
     9   6 C        2.927     0.057    26.721     8.477
    10   7 N        2.754    -0.069    22.579     7.057
    11   6 C        2.928     0.077    26.285     8.408
    12   6 C        2.921    -0.034    28.857     8.809
    13   6 C        2.923    -0.026    28.644     8.777
    14   6 C        2.978     0.003    27.961     8.674
    15   6 C        2.996     0.038    27.136     8.545
    16   6 C        2.970    -0.008    28.223     8.714
    17   6 C        1.908     0.114    28.297     8.591
    18   7 N        0.911    -0.235    26.142     7.395
    19   6 C        2.950     0.107    25.629     8.303
    20   6 C        2.978    -0.003    28.086     8.693
    21   6 C        2.930    -0.010    28.257     8.718
    22   6 C        2.913    -0.034    28.840     8.806
    23   6 C        2.914     0.063    26.586     8.455
    24   7 N        1.835    -0.203    26.230     7.590
    25   6 C        2.919     0.066    26.520     8.445
    26   7 N        1.856    -0.241    27.142     7.722
    27   6 C        2.950     0.107    25.632     8.304
    28   6 C        2.978    -0.003    28.088     8.693
    29   6 C        2.930    -0.009    28.248     8.716
    30   6 C        2.913    -0.034    28.842     8.806
    31   6 C        2.914     0.063    26.580     8.454
    32   7 N        1.835    -0.202    26.224     7.589
    33   6 C        2.919     0.066    26.516     8.444
    34   6 C        2.971    -0.008    28.221     8.714
    35   6 C        1.909     0.113    28.305     8.592
    36   7 N        0.911    -0.235    26.149     7.396
    37   6 C        2.923    -0.026    28.649     8.778
    38   6 C        2.921    -0.035    28.869     8.811
    39   6 C        2.927     0.057    26.719     8.477
    40   6 C        2.924    -0.058    29.451     8.900
    41   6 C        2.920    -0.032    28.803     8.801
    42   6 C        2.917    -0.044    29.083     8.843
    43   6 C        2.928    -0.036    28.896     8.816
    44   6 C        2.980    -0.013    28.335     8.732
    45   1 H        0.925     0.040     2.454     2.450
    46   1 H        0.925     0.031     2.566     2.505
    47   1 H        0.925     0.040     2.454     2.450
    48   1 H        0.925     0.040     2.453     2.449
    49   1 H        0.925     0.040     2.455     2.450
    50   1 H        0.925     0.031     2.570     2.507
    51   1 H        0.926     0.031     2.577     2.510
    52   1 H        0.926     0.027     2.622     2.532
    53   1 H        0.926     0.031     2.568     2.506
    54   1 H        0.926     0.026     2.645     2.543
    55   1 H        0.926     0.052     2.291     2.367
    56   1 H        0.926     0.041     2.438     2.442
    57   1 H        0.926     0.044     2.393     2.419
    58   1 H        0.926     0.049     2.338     2.391
    59   1 H        0.925     0.051     2.313     2.378
    60   1 H        0.925     0.056     2.244     2.343
    61   1 H        0.926     0.043     2.409     2.427
    62   1 H        0.926     0.048     2.340     2.392
    63   1 H        0.925     0.051     2.311     2.377
    64   1 H        0.926     0.058     2.224     2.332
    65   1 H        0.926     0.038     2.471     2.458
    66   1 H        0.926     0.052     2.301     2.372
    67   1 H        0.926     0.025     2.656     2.548
    68   1 H        0.926     0.031     2.578     2.511
    69   1 H        0.926     0.027     2.624     2.533
    70   1 H        0.926     0.031     2.576     2.510

molecular dipole:
                 x           y           z       tot (Debye)
 q only:        0.116       0.014       0.479
   full:       -0.387       0.051       0.974       2.667

 projected vibrational frequencies (cm⁻¹)
eigval :       -0.00    -0.00    -0.00     0.00     0.00     0.00
eigval :       10.85    12.89    16.01    26.87    27.89    37.62
eigval :       42.46    47.61    55.01    58.49    63.49    84.66
eigval :       94.83   101.25   102.36   118.73   121.29   127.71
eigval :      148.13   151.80   168.38   188.94   201.35   204.30
eigval :      217.91   221.52   234.50   244.63   250.29   267.72
eigval :      282.92   294.34   305.56   322.64   330.18   332.33
eigval :      345.00   364.92   365.47   374.89   382.94   388.20
eigval :      396.74   400.35   413.51   448.17   453.31   459.32
eigval :      482.75   486.06   492.65   511.47   514.84   540.73
eigval :      547.46   553.21   564.88   577.93   580.64   592.92
eigval :      596.92   599.63   601.31   633.91   642.02   652.60
eigval :      664.91   673.86   679.15   683.12   686.80   690.07
eigval :      694.01   703.73   733.41   737.18   777.98   779.33
eigval :      787.62   790.21   795.62   820.03   828.80   838.37
eigval :      867.97   869.89   872.42   893.30   897.38   913.73
eigval :      914.41   914.97   918.43   918.79   919.55   922.18
eigval :      922.82   923.44   927.36   928.47   928.73   938.95
eigval :      957.30   975.99   988.14  1014.53  1014.87  1024.00
eigval :     1069.33  1077.09  1086.04  1093.61  1094.79  1115.53
eigval :     1120.20  1136.66  1141.92  1142.48  1142.65  1160.36
eigval :     1173.03  1186.14  1187.93  1188.85  1189.04  1193.05
eigval :     1196.54  1211.72  1217.67  1245.71  1251.04  1257.77
eigval :     1259.46  1263.65  1265.97  1269.39  1270.40  1277.79
eigval :     1288.85  1295.32  1309.16  1319.29  1325.26  1333.97
eigval :     1339.00  1354.42  1375.56  1394.49  1402.80  1403.58
eigval :     1407.30  1414.65  1421.18  1435.79  1442.04  1450.33
eigval :     1457.90  1477.22  1479.03  1488.26  1489.93  1490.87
eigval :     1498.86  1500.66  1505.17  1506.38  1556.20  1560.62
eigval :     1561.21  1571.33  1572.80  1576.19  1587.97  1592.41
eigval :     1593.09  1602.47  2356.71  2359.87  3026.60  3028.71
eigval :     3040.13  3042.82  3049.03  3052.96  3066.21  3066.28
eigval :     3072.04  3074.55  3080.33  3080.57  3081.39  3081.89
eigval :     3084.99  3085.26  3085.75  3086.26  3095.20  3095.63
eigval :     3099.75  3100.97  3102.72  3102.79  3103.35  3103.74

   temp. (K)  partition function   enthalpy   heat capacity  entropy
                                   cal/mol     cal/K/mol   cal/K/mol   J/K/mol
 298.15  VIB  0.146E+18            21561.388    131.364    135.441
         ROT  0.709E+08              888.752      2.981     38.904
         INT  0.104E+26            22450.140    134.345    174.345
         TR   0.131E+29             1481.254      4.968     44.868
         TOT                       23931.3943   139.3134   219.2133   917.1885

       T/K    H(0)-H(T)+PV         H(T)/Eh          T*S/Eh         G(T)/Eh
   ------------------------------------------------------------------------
    298.15    0.381371E-01    0.566189E+00    0.104155E+00    0.462033E+00
   ------------------------------------------------------------------------

         :::::::::::::::::::::::::::::::::::::::::::::::::::::
         ::                  THERMODYNAMIC                  ::
         :::::::::::::::::::::::::::::::::::::::::::::::::::::
         :: total free energy        -111.650902202244 Eh   ::
         ::.................................................::
         :: total energy             -112.112935693485 Eh   ::
         :: zero point energy           0.528051700755 Eh   ::
         :: G(RRHO) w/o ZPVE           -0.066018209515 Eh   ::
         :: G(RRHO) contrib.            0.462033491241 Eh   ::
         :::::::::::::::::::::::::::::::::::::::::::::::::::::

           -------------------------------------------------
          | TOTAL ENERGY             -112.112935693485 Eh   |
          | TOTAL ENTHALPY           -111.546746888320 Eh   |
          | TOTAL FREE ENERGY        -111.650902202244 Eh   |
          | GRADIENT NORM               0.000129579605 Eh/α |
          | HOMO-LUMO GAP               0.893971354644 eV   |
           -------------------------------------------------

 * finished run on 2025/09/10 at 22:09:02.465
