   * xtb version 6.7.1 (edcfbbe) compiled by 'albert@albert-system' on 2024-07-22

   ID    Z sym.   atoms
    1    6 C      1-9, 11-17, 19-23, 25, 27-31, 33-35, 37-44
    2    7 N      10, 18, 24, 26, 32, 36
    3    1 H      45-70

          program call               : xtb data2507/gas/3Py-DMAC/3Py-DMAC_gas_T1_crest.xyz --gfn 2 --spinpol --tblite --uhf 2 --ohess vtight --parallel 40 --molden --ceasefiles --namespace data2507/gas/3Py-DMAC/3Py-DMAC_gas_T1_finalOpt
 * total energy  :  -112.0524645 Eh     change       -0.3968277E-07 Eh
 * total energy  :  -112.0524674 Eh     change       -0.2877848E-05 Eh
 * total energy  :  -112.0524648 Eh     change        0.2649715E-05 Eh
 * total energy  :  -112.0524694 Eh     change       -0.4595480E-05 Eh
 * total energy  :  -112.0524696 Eh     change       -0.2199618E-06 Eh
 * total energy  :  -112.0524697 Eh     change       -0.1451103E-06 Eh
 * total energy  :  -112.0524706 Eh     change       -0.9151208E-06 Eh
 * total energy  :  -112.0524714 Eh     change       -0.7073228E-06 Eh
 * total energy  :  -112.0524726 Eh     change       -0.1226759E-05 Eh
 * total energy  :  -112.0524734 Eh     change       -0.7970668E-06 Eh
 * total energy  :  -112.0524747 Eh     change       -0.7563543E-07 Eh
 * total energy  :  -112.0524750 Eh     change       -0.2292887E-06 Eh
 * total energy  :  -112.0524752 Eh     change       -0.2197431E-06 Eh
 * total energy  :  -112.0524753 Eh     change       -0.1283062E-06 Eh
 * total energy  :  -112.0524753 Eh     change       -0.1416421E-07 Eh
 * total energy  :  -112.0524753 Eh     change        0.1105390E-07 Eh
 * total energy  :  -112.0524754 Eh     change       -0.1118030E-06 Eh
 * total energy  :  -112.0524754 Eh     change        0.1741196E-07 Eh
 * total energy  :  -112.0524755 Eh     change       -0.8567740E-07 Eh
   *** GEOMETRY OPTIMIZATION CONVERGED AFTER 21 ITERATIONS ***

 final structure:
================
70
 xtb: 6.7.1 (edcfbbe)
C           -7.60497875714556        0.24382116273642       -1.24122868322087
C           -6.72398043941141       -0.00566041260071       -0.00234943256203
C           -7.60563457818684       -0.26032678351353        1.23500706502498
C           -5.87379801241712       -1.23337804428374       -0.25487607633370
C           -6.48581008051359       -2.45344560869439       -0.50733375949725
C           -5.75553133696984       -3.60007754127098       -0.75991248328725
C           -4.37105846429044       -3.53836791098671       -0.77390641197128
C           -3.73535953726735       -2.34245349369058       -0.52661038554245
C           -4.47238264815544       -1.18194347184347       -0.25350579921654
N           -3.80991880372350        0.00294181328245        0.00001754055989
C           -2.38582969356681        0.00652479032073        0.00130248246418
C           -1.69469955770462        0.49156818294538       -1.10108044115224
C           -0.31398284168420        0.49739448201616       -1.09605153000283
C            0.38417547944824        0.00799251233910        0.00183868678695
C            1.86065578287096        0.00528882834990        0.00107192514225
C            2.54368257413046        1.22153937560251       -0.06098032498369
C            1.78803898068982        2.39192628718413       -0.02469843483012
N            1.08744129904003        3.30828716198450        0.03223540893071
C            3.99379870879288        1.17061112348461       -0.08689612720322
C            4.84557211047925        2.32855580560237       -0.19429350668129
C            4.42887350167966        3.61102154551131       -0.58180186116880
C            5.34957134994769        4.63741249660007       -0.65386664821527
C            6.67761030355116        4.37353220447346       -0.34454675013858
N            7.07634861263710        3.16301321845343        0.01390113433207
C            6.21933245885462        2.18360699968782        0.08976280540245
N            4.58163200131297       -0.00177592839683        0.00011112812683
C            3.98784521592145       -1.17108355251515        0.08724851600233
C            4.83348600014539       -2.33361481233105        0.19386813363451
C            4.40994982942508       -3.61371887484646        0.58170533151933
C            5.32488431947255       -4.64533440248148        0.65253818619838
C            6.65402577603318       -4.38890405686321        0.34171184256673
N            7.05931338207979       -3.18057120300653       -0.01679719964889
C            6.20772351336312       -2.19629873762411       -0.09149916230952
C            2.53754375043194       -1.21455241650754        0.06220130643534
C            1.77592443259157       -2.38101453631449        0.02527846475895
N            1.07051302955347       -3.29358961487908       -0.03315774676009
C           -0.31395024364792       -0.48081231720601        1.10006233814742
C           -1.69461868678069       -0.47645869234863        1.10456391778771
C           -4.47975079622692        1.18382043392970        0.25239210656871
C           -3.74993153849441        2.34860264948535        0.52656665874991
C           -4.39298968015836        3.54077780735045        0.77291554132948
C           -5.77778348465009        3.59435322102051        0.75685071795470
C           -6.50096827767992        2.44348122207131        0.50312174988145
C           -5.88144748991767        1.22703097513596        0.25158111224666
H           -8.23888190827565       -0.61439323154667       -1.44452538084853
H           -6.97763994040873        0.42181167339387       -2.11251432163683
H           -8.24256208272807        1.11078541062331       -1.09440679295007
H           -8.23791754176924       -1.13097451356342        1.08704481752514
H           -8.24487350696293        0.59416092914357        1.43726868835691
H           -6.97876753188171       -0.43474647432088        2.10735420734871
H           -7.56313189789762       -2.51698771051199       -0.50939205942902
H           -6.26350102123907       -4.53284505830770       -0.95002875387610
H           -3.78489960112906       -4.42062215164165       -0.97865813329575
H           -2.65792410096628       -2.30064833072069       -0.54541765475980
H           -2.24243971908632        0.86438727682822       -1.95348917976428
H            0.22602063424793        0.87255469756843       -1.95238485291402
H            3.39759214068417        3.79962881210504       -0.83431469760402
H            5.04609701756881        5.62924510319585       -0.95078160860235
H            7.43986336476858        5.13785133284921       -0.38444973728892
H            6.59593188220988        1.21679392527519        0.39636385072644
H            3.37790897241067       -3.79648642488749        0.83543026498429
H            5.01609536711907       -5.63550528789833        0.94951625175052
H            7.41192536673045       -5.15760934259872        0.38037548620399
H            6.58951029711452       -1.23153562185798       -0.39811781825556
H            0.22611646857240       -0.85546191419455        1.95658551891855
H           -2.24232198734624       -0.85007589580954        1.95664471350612
H           -2.67229463920474        2.31281364771015        0.54695917962682
H           -3.81241898560348        4.42651688583709        0.97857239046229
H           -6.29149202057238        4.52412243407005        0.94623167766016
H           -7.57864665371485        2.50072505959632        0.50352997242947

 projected vibrational frequencies (cm⁻¹)
eigval :       -0.00    -0.00    -0.00     0.00     0.00     0.00
eigval :        8.12    10.70    17.20    24.90    26.19    29.59
eigval :       39.54    50.55    51.58    59.48    67.24    67.59
eigval :       97.49   100.01   112.09   113.78   128.41   131.33
eigval :      142.03   154.07   166.30   191.33   196.13   203.84
eigval :      216.68   229.29   231.61   237.24   254.81   273.21
eigval :      289.11   289.31   304.14   326.70   327.62   341.36
eigval :      357.05   365.61   370.57   372.15   376.84   396.54
eigval :      397.11   400.84   405.82   421.27   445.41   450.34
eigval :      461.20   485.31   500.87   502.27   506.50   513.26
eigval :      539.00   541.27   543.55   573.04   575.89   582.56
eigval :      588.49   591.57   593.50   597.67   615.18   634.62
eigval :      646.65   650.81   659.56   661.29   671.06   673.14
eigval :      686.39   699.27   704.90   733.53   763.84   766.83
eigval :      775.52   776.52   777.80   816.73   827.16   827.56
eigval :      867.50   869.35   870.22   872.52   872.94   876.11
eigval :      877.63   909.09   909.35   909.46   916.31   917.11
eigval :      917.21   919.81   922.96   924.75   924.98   928.93
eigval :      937.75   957.96   967.59  1009.01  1010.02  1013.38
eigval :     1048.65  1075.71  1085.98  1089.74  1092.08  1108.91
eigval :     1113.68  1129.59  1133.24  1138.99  1140.06  1152.61
eigval :     1165.98  1167.27  1174.27  1180.64  1184.37  1185.16
eigval :     1185.25  1186.91  1207.41  1210.14  1239.54  1241.73
eigval :     1243.15  1245.08  1260.82  1264.48  1264.55  1293.97
eigval :     1297.02  1299.18  1308.90  1315.29  1319.87  1325.12
eigval :     1330.25  1334.12  1344.78  1377.20  1385.76  1401.83
eigval :     1403.36  1405.16  1414.34  1415.33  1419.36  1424.52
eigval :     1431.13  1437.28  1452.42  1458.70  1480.72  1487.08
eigval :     1487.73  1488.77  1497.74  1500.25  1501.44  1511.75
eigval :     1545.12  1557.42  1560.08  1566.29  1571.77  1580.09
eigval :     1590.80  1596.65  2270.63  2301.46  3030.15  3031.72
eigval :     3045.05  3047.45  3053.41  3056.95  3057.41  3059.79
eigval :     3075.75  3076.19  3086.92  3086.94  3087.16  3088.17
eigval :     3093.78  3094.02  3094.67  3094.76  3098.01  3098.68
eigval :     3102.70  3102.89  3112.25  3112.61  3113.32  3113.67

   temp. (K)  partition function   enthalpy   heat capacity  entropy
                                   cal/mol     cal/K/mol   cal/K/mol   J/K/mol
 298.15  VIB  0.395E+18            21792.703    132.780    136.987
         ROT  0.351E+08              888.752      2.981     37.506
         INT  0.138E+26            22681.456    135.761    174.493
         TR   0.131E+29             1481.254      4.968     44.868
         TOT                       24162.7094   140.7295   219.3610   917.8066

       T/K    H(0)-H(T)+PV         H(T)/Eh          T*S/Eh         G(T)/Eh
   ------------------------------------------------------------------------
    298.15    0.385057E-01    0.562843E+00    0.104226E+00    0.458617E+00
   ------------------------------------------------------------------------

         :::::::::::::::::::::::::::::::::::::::::::::::::::::
         ::                  THERMODYNAMIC                  ::
         :::::::::::::::::::::::::::::::::::::::::::::::::::::
         :: total free energy        -111.593858062929 Eh   ::
         ::.................................................::
         :: total energy             -112.052475510658 Eh   ::
         :: zero point energy           0.524337231846 Eh   ::
         :: G(RRHO) w/o ZPVE           -0.065719784118 Eh   ::
         :: G(RRHO) contrib.            0.458617447729 Eh   ::
         :::::::::::::::::::::::::::::::::::::::::::::::::::::

           -------------------------------------------------
          | TOTAL ENERGY             -112.052475510658 Eh   |
          | TOTAL ENTHALPY           -111.489632550351 Eh   |
          | TOTAL FREE ENERGY        -111.593858062929 Eh   |
          | GRADIENT NORM               0.000096203596 Eh/α |
           -------------------------------------------------

 * finished run on 2025/09/10 at 22:14:50.693
