   * xtb version 6.7.1 (edcfbbe) compiled by 'albert@albert-system' on 2024-07-22

   ID    Z sym.   atoms
    1    6 C      1-9, 11-17, 19-23, 25, 27-31, 33-35, 37-44
    2    7 N      10, 18, 24, 26, 32, 36
    3    1 H      45-70

          program call               : xtb data2507/gas/3Py-DMAC/3Py-DMAC.xyz --gfn 2 --ohess vtight --parallel 40 --molden --ceasefiles --namespace data2507/gas/3Py-DMAC/3Py-DMAC_gas_S0_preOpt
          :  Hamiltonian                  GFN2-xTB          :
 * total energy  :  -112.0835219 Eh     change       -0.3196917E-08 Eh
 * total energy  :  -112.1014613 Eh     change       -0.1793943E-01 Eh
 * total energy  :  -112.1063992 Eh     change       -0.4937836E-02 Eh
 * total energy  :  -112.1073920 Eh     change       -0.9928858E-03 Eh
 * total energy  :  -112.1083067 Eh     change       -0.9147042E-03 Eh
 * total energy  :  -112.1087348 Eh     change       -0.4280092E-03 Eh
 * total energy  :  -112.1090487 Eh     change       -0.3139588E-03 Eh
 * total energy  :  -112.1093197 Eh     change       -0.2709646E-03 Eh
 * total energy  :  -112.1095437 Eh     change       -0.2240250E-03 Eh
 * total energy  :  -112.1097276 Eh     change       -0.1839270E-03 Eh
 * total energy  :  -112.1126509 Eh     change       -0.3951898E-06 Eh
 * total energy  :  -112.1126513 Eh     change       -0.3870088E-06 Eh
 * total energy  :  -112.1126517 Eh     change       -0.3835415E-06 Eh
 * total energy  :  -112.1126519 Eh     change       -0.2805843E-06 Eh
 * total energy  :  -112.1126520 Eh     change       -0.8687068E-07 Eh
 * total energy  :  -112.1126522 Eh     change       -0.1391849E-06 Eh
 * total energy  :  -112.1126524 Eh     change       -0.2399621E-06 Eh
 * total energy  :  -112.1126526 Eh     change       -0.1691178E-06 Eh
 * total energy  :  -112.1126526 Eh     change       -0.4391345E-07 Eh
   *** GEOMETRY OPTIMIZATION CONVERGED AFTER 109 ITERATIONS ***

 final structure:
================
70
 xtb: 6.7.1 (edcfbbe)
C           -6.96225645446037        0.09006100621926       -1.29929803695093
C           -6.09148325783542        0.00421555058379       -0.03239055119476
C           -6.98028284324800       -0.08543795467442        1.22166178926052
C           -5.23936685379300       -1.24694588303423       -0.11893589022868
C           -5.85989444142577       -2.48497853058441       -0.22319581021866
C           -5.14153219466270       -3.65904063291234       -0.34607175677002
C           -3.76046137361683       -3.60259967793847       -0.39084576382233
C           -3.11885560019728       -2.38653781033073       -0.28740705261354
C           -3.84189831450518       -1.20102638844780       -0.12404707347636
N           -3.16850974039989        0.01047754598348       -0.00792043365161
C           -1.75592971826037        0.01176802234065        0.00756578429665
C           -1.04279511539442        0.56358312403849       -1.05313767434365
C            0.33636913635959        0.57018196069516       -1.03503876742227
C            1.02738071593925        0.00708791086670        0.03558539804967
C            2.49445694339196       -0.00660743600294        0.05062918356547
C            3.23554534861217        1.16833525326524       -0.14295287851966
C            2.56218865037598        2.39271960367836       -0.34294730332108
N            2.00815419571212        3.38428917603249       -0.50472535214506
C            4.64352756154657        1.08959671009024       -0.15271814905602
C            5.49653381448788        2.25848197921137       -0.38129439113796
C            5.24312867345396        3.50868057143984        0.17868915396941
C            6.10952697800881        4.55131322476429       -0.09978614054575
C            7.20510828703716        4.30404281731616       -0.91397846306080
N            7.46129499017718        3.11788397840080       -1.44050760013528
C            6.63499578700675        2.12749327375551       -1.18201397992363
N            5.27582366466013       -0.06004809436136        0.01920961858880
C            4.60421724463205       -1.17970562574596        0.24135855442315
C            5.41558859268656       -2.37663198720207        0.46654874215453
C            6.62158657117918       -2.53937398859032       -0.21612434023941
C            7.38005048134848       -3.66965818911198        0.02130991647177
C            6.90632283955509       -4.59868786617286        0.93805466196983
N            5.78574164654564       -4.43464149499683        1.61887345308273
C            5.06274581114688       -3.35670057106208        1.39708330495455
C            3.19508838610964       -1.20454711483470        0.25299544629644
C            2.47659052822634       -2.41822236285605        0.32951579108002
N            1.87632075551901       -3.39553500135859        0.33242925701164
C            0.31235386443006       -0.55338049724098        1.09214970454458
C           -1.06659949870516       -0.54157113983791        1.08323955883573
C           -3.84857608193325        1.21882550859060        0.09433872844079
C           -3.13356254292396        2.40796514115596        0.26686011126126
C           -3.78189546233037        3.62142586148145        0.35808178749947
C           -5.16229035796062        3.67190058462973        0.29178888407857
C           -5.87343078246548        2.49445900111481        0.15917091080549
C           -5.24612210655249        1.25902303052352        0.06645538513452
H           -7.59636263389184        0.97192652263659       -1.27582143100855
H           -7.59985710669545       -0.78455245829673       -1.39284040066694
H           -6.32690336463671        0.14720836931305       -2.18124785422143
H           -7.61036662218263       -0.96986107913769        1.18849740480992
H           -7.62266730504013        0.78662375481854        1.30618737555687
H           -6.35769131936081       -0.14054787236681        2.11280222723188
H           -6.93792920195698       -2.53966590558571       -0.21141409776315
H           -5.65601287763343       -4.60490476790410       -0.41957416434813
H           -3.17681001300111       -4.50279678429760       -0.51016528555820
H           -2.04170767101702       -2.35786261569094       -0.34176266217911
H           -1.57810884825887        0.98678443956340       -1.88949383918703
H            0.88122827277191        0.98532008262029       -1.87002368402019
H            4.40169786042428        3.65849236084580        0.83883565447635
H            5.94288149245812        5.53155078776046        0.31769641036942
H            7.91610637058444        5.08387930849690       -1.15150331826923
H            6.87127320308953        1.17502357031741       -1.63622627845586
H            6.93574262084654       -1.78641856801896       -0.92305591568669
H            8.31338170952841       -3.83080598225471       -0.49479324583748
H            7.44906674000876       -5.51087585790599        1.14650964769331
H            4.17427845975040       -3.25977102878542        2.00704115491751
H            0.83915565323712       -0.97384305979228        1.93625726728247
H           -1.62042797115368       -0.96504492276116        1.90731523179153
H           -2.05721515151991        2.38337404388139        0.33753066332575
H           -3.20435604429986        4.52468112464224        0.48474371053685
H           -5.68193620945246        4.61563545373402        0.35586522761521
H           -6.95135777007099        2.54452249527314        0.13038248457239

          :  Hamiltonian                  GFN2-xTB          :
         :: gradient norm              0.000152309998 Eh/a0 ::
         :: HOMO-LUMO gap              0.888374786289 eV    ::
         :: SCC energy              -114.183338743385 Eh    ::
         :: -> dispersion             -0.099788799293 Eh    ::
         :: repulsion energy           2.070686130362 Eh    ::

    * Orbital Energies and Occupations

         #    Occupation            Energy/Eh            Energy/eV
      -------------------------------------------------------------
         1        2.0000           -0.7070877             -19.2408
       ...           ...                  ...                  ...
        92        2.0000           -0.4295375             -11.6883
        93        2.0000           -0.4267993             -11.6138
        94        2.0000           -0.4223608             -11.4930
        95        2.0000           -0.4192516             -11.4084
        96        2.0000           -0.4078673             -11.0986
        97        2.0000           -0.4066557             -11.0657
        98        2.0000           -0.4039027             -10.9908
        99        2.0000           -0.4026413             -10.9564
       100        2.0000           -0.3967277             -10.7955
       101        2.0000           -0.3914647             -10.6523
       102        2.0000           -0.3838336             -10.4446
       103        2.0000           -0.3833846             -10.4324
       104        2.0000           -0.3473992              -9.4532 (HOMO)
       105                         -0.3147521              -8.5648 (LUMO)
       106                         -0.3046326              -8.2895
       107                         -0.2709836              -7.3738
       108                         -0.2640725              -7.1858
       109                         -0.2615223              -7.1164
       110                         -0.2487485              -6.7688
       111                         -0.2431855              -6.6174
       112                         -0.2415328              -6.5724
       113                         -0.2264717              -6.1626
       114                         -0.2234118              -6.0793
       115                         -0.2195349              -5.9738
       ...                                ...                  ...
       202                          1.1513758              31.3305
      -------------------------------------------------------------
                  HL-Gap            0.0326471 Eh            0.8884 eV

     #   Z          covCN         q      C6AA      α(0)
     1   6 C        3.761    -0.103    22.516     6.764
     2   6 C        3.909     0.021    20.157     6.381
     3   6 C        3.761    -0.103    22.515     6.764
     4   6 C        2.980    -0.013    28.335     8.732
     5   6 C        2.928    -0.036    28.898     8.816
     6   6 C        2.917    -0.043    29.076     8.842
     7   6 C        2.920    -0.032    28.798     8.800
     8   6 C        2.924    -0.058    29.444     8.899
     9   6 C        2.927     0.057    26.724     8.478
    10   7 N        2.753    -0.069    22.568     7.056
    11   6 C        2.928     0.077    26.289     8.408
    12   6 C        2.921    -0.035    28.865     8.810
    13   6 C        2.923    -0.026    28.648     8.777
    14   6 C        2.979     0.002    27.965     8.674
    15   6 C        2.996     0.038    27.129     8.544
    16   6 C        2.970    -0.008    28.225     8.714
    17   6 C        1.908     0.114    28.299     8.591
    18   7 N        0.911    -0.235    26.147     7.395
    19   6 C        2.950     0.107    25.645     8.306
    20   6 C        2.978    -0.002    28.082     8.693
    21   6 C        2.930    -0.009    28.253     8.717
    22   6 C        2.913    -0.034    28.836     8.806
    23   6 C        2.915     0.063    26.588     8.456
    24   7 N        1.835    -0.205    26.275     7.596
    25   6 C        2.920     0.066    26.525     8.446
    26   7 N        1.857    -0.241    27.154     7.724
    27   6 C        2.950     0.107    25.638     8.305
    28   6 C        2.978    -0.003    28.089     8.694
    29   6 C        2.934    -0.005    28.153     8.702
    30   6 C        2.912    -0.035    28.861     8.809
    31   6 C        2.913     0.064    26.568     8.452
    32   7 N        1.836    -0.202    26.224     7.589
    33   6 C        2.914     0.062    26.603     8.458
    34   6 C        2.971    -0.008    28.220     8.714
    35   6 C        1.909     0.111    28.350     8.599
    36   7 N        0.911    -0.229    26.006     7.376
    37   6 C        2.923    -0.026    28.646     8.777
    38   6 C        2.921    -0.035    28.869     8.811
    39   6 C        2.927     0.057    26.719     8.477
    40   6 C        2.924    -0.058    29.451     8.900
    41   6 C        2.920    -0.032    28.804     8.801
    42   6 C        2.917    -0.044    29.083     8.843
    43   6 C        2.928    -0.036    28.897     8.816
    44   6 C        2.980    -0.013    28.333     8.731
    45   1 H        0.925     0.040     2.455     2.450
    46   1 H        0.925     0.040     2.454     2.450
    47   1 H        0.925     0.031     2.567     2.506
    48   1 H        0.925     0.040     2.453     2.449
    49   1 H        0.925     0.039     2.456     2.451
    50   1 H        0.925     0.031     2.568     2.506
    51   1 H        0.926     0.031     2.577     2.510
    52   1 H        0.926     0.028     2.620     2.531
    53   1 H        0.926     0.032     2.558     2.501
    54   1 H        0.926     0.027     2.633     2.537
    55   1 H        0.926     0.052     2.295     2.369
    56   1 H        0.926     0.040     2.447     2.446
    57   1 H        0.926     0.045     2.388     2.417
    58   1 H        0.926     0.049     2.337     2.390
    59   1 H        0.925     0.050     2.319     2.381
    60   1 H        0.925     0.053     2.277     2.360
    61   1 H        0.926     0.055     2.263     2.353
    62   1 H        0.926     0.047     2.352     2.398
    63   1 H        0.925     0.051     2.310     2.377
    64   1 H        0.925     0.047     2.359     2.402
    65   1 H        0.926     0.039     2.459     2.452
    66   1 H        0.926     0.052     2.295     2.369
    67   1 H        0.926     0.026     2.651     2.546
    68   1 H        0.926     0.031     2.578     2.511
    69   1 H        0.926     0.027     2.625     2.534
    70   1 H        0.926     0.031     2.576     2.510

molecular dipole:
                 x           y           z       tot (Debye)
 q only:        0.524       0.261       0.020
   full:        0.476       0.584       0.056       1.921

 projected vibrational frequencies (cm⁻¹)
eigval :       -0.00     0.00     0.00     0.00     0.00     0.00
eigval :       11.14    12.88    15.92    27.04    29.05    37.39
eigval :       42.55    46.74    55.19    58.66    64.09    84.12
eigval :       93.31   101.56   102.99   119.24   121.63   127.81
eigval :      145.88   151.80   168.02   188.92   202.35   205.68
eigval :      217.70   220.79   235.08   245.16   250.69   267.13
eigval :      283.52   293.48   305.66   324.88   331.02   332.56
eigval :      345.21   361.76   365.40   374.80   383.32   387.66
eigval :      395.82   400.56   413.37   448.59   453.82   459.27
eigval :      482.83   486.13   493.11   511.57   514.78   541.05
eigval :      547.49   551.52   564.51   579.51   580.59   592.66
eigval :      596.01   597.99   602.50   634.23   641.64   652.33
eigval :      664.60   674.47   679.21   683.23   687.35   690.15
eigval :      694.14   703.84   733.26   737.22   778.12   779.56
eigval :      787.85   789.02   797.38   820.32   828.88   838.28
eigval :      867.90   870.43   873.15   894.73   898.54   913.76
eigval :      914.41   915.07   917.74   918.58   919.65   922.22
eigval :      922.83   923.88   924.92   928.64   929.05   938.96
eigval :      957.29   976.41   987.80  1014.53  1014.80  1024.01
eigval :     1069.66  1077.06  1085.94  1093.10  1094.50  1115.74
eigval :     1120.28  1134.30  1136.97  1141.98  1142.37  1160.33
eigval :     1173.18  1186.18  1188.16  1189.01  1189.14  1195.19
eigval :     1196.04  1211.75  1219.47  1245.78  1251.11  1259.30
eigval :     1262.89  1263.56  1266.96  1270.42  1272.51  1281.21
eigval :     1286.77  1295.40  1309.38  1319.25  1325.27  1333.87
eigval :     1338.32  1352.43  1377.07  1391.85  1402.91  1404.21
eigval :     1410.06  1416.86  1421.19  1435.66  1441.78  1450.01
eigval :     1456.25  1478.72  1478.98  1488.50  1489.92  1490.88
eigval :     1498.84  1500.67  1505.13  1505.89  1555.93  1558.68
eigval :     1561.62  1571.24  1572.60  1576.13  1587.76  1592.27
eigval :     1593.05  1602.42  2357.62  2361.31  3026.70  3028.77
eigval :     3040.07  3042.75  3048.99  3052.90  3062.71  3066.24
eigval :     3066.36  3070.74  3080.29  3080.73  3082.41  3085.22
eigval :     3085.62  3085.79  3086.22  3089.15  3095.34  3095.87
eigval :     3100.03  3100.69  3101.30  3103.14  3103.77  3104.33

   temp. (K)  partition function   enthalpy   heat capacity  entropy
                                   cal/mol     cal/K/mol   cal/K/mol   J/K/mol
 298.15  VIB  0.140E+18            21559.797    131.362    135.407
         ROT  0.709E+08              888.752      2.981     38.904
         INT  0.990E+25            22448.549    134.343    174.311
         TR   0.131E+29             1481.254      4.968     44.868
         TOT                       23929.8034   139.3107   219.1791   917.0454

       T/K    H(0)-H(T)+PV         H(T)/Eh          T*S/Eh         G(T)/Eh
   ------------------------------------------------------------------------
    298.15    0.381346E-01    0.566202E+00    0.104139E+00    0.462063E+00
   ------------------------------------------------------------------------

         :::::::::::::::::::::::::::::::::::::::::::::::::::::
         ::                  THERMODYNAMIC                  ::
         :::::::::::::::::::::::::::::::::::::::::::::::::::::
         :: total free energy        -111.650590000187 Eh   ::
         ::.................................................::
         :: total energy             -112.112652613019 Eh   ::
         :: zero point energy           0.528067116008 Eh   ::
         :: G(RRHO) w/o ZPVE           -0.066004503176 Eh   ::
         :: G(RRHO) contrib.            0.462062612832 Eh   ::
         :::::::::::::::::::::::::::::::::::::::::::::::::::::

           -------------------------------------------------
          | TOTAL ENERGY             -112.112652613019 Eh   |
          | TOTAL ENTHALPY           -111.546450927939 Eh   |
          | TOTAL FREE ENERGY        -111.650590000187 Eh   |
          | GRADIENT NORM               0.000152293592 Eh/α |
          | HOMO-LUMO GAP               0.888372777825 eV   |
           -------------------------------------------------

 * finished run on 2025/09/10 at 22:04:10.308
