   * xtb version 6.7.1 (edcfbbe) compiled by 'albert@albert-system' on 2024-07-22

   ID    Z sym.   atoms
    1    6 C      1-9, 11-17, 19-23, 25, 27-31, 33-35, 37-44
    2    7 N      10, 18, 24, 26, 32, 36
    3    1 H      45-70

          program call               : xtb data2507/gas/3Py-DMAC/3Py-DMAC_gas_S0_finalOpt.xtbopt.xyz --gfn 2 --spinpol --tblite --uhf 2 --ohess vtight --parallel 40 --molden --ceasefiles --namespace data2507/gas/3Py-DMAC/3Py-DMAC_gas_T1_preOpt
 * total energy  :  -112.0419726 Eh     change       -0.5939242E-08 Eh
 * total energy  :  -112.0455054 Eh     change       -0.3532809E-02 Eh
 * total energy  :  -112.0474056 Eh     change       -0.1900180E-02 Eh
 * total energy  :  -112.0471609 Eh     change        0.2446681E-03 Eh
 * total energy  :  -112.0482313 Eh     change       -0.1070398E-02 Eh
 * total energy  :  -112.0485635 Eh     change       -0.3322009E-03 Eh
 * total energy  :  -112.0490049 Eh     change       -0.4413979E-03 Eh
 * total energy  :  -112.0494973 Eh     change       -0.4923818E-03 Eh
 * total energy  :  -112.0499263 Eh     change       -0.4289831E-03 Eh
 * total energy  :  -112.0503433 Eh     change       -0.4169573E-03 Eh
 * total energy  :  -112.0524605 Eh     change       -0.3167960E-06 Eh
 * total energy  :  -112.0524607 Eh     change       -0.1885147E-06 Eh
 * total energy  :  -112.0524610 Eh     change       -0.3006556E-06 Eh
 * total energy  :  -112.0524612 Eh     change       -0.2302839E-06 Eh
 * total energy  :  -112.0524614 Eh     change       -0.1763269E-06 Eh
 * total energy  :  -112.0524615 Eh     change       -0.1237075E-06 Eh
 * total energy  :  -112.0524617 Eh     change       -0.1155566E-06 Eh
 * total energy  :  -112.0524618 Eh     change       -0.1272995E-06 Eh
 * total energy  :  -112.0524619 Eh     change       -0.8882400E-07 Eh
   *** GEOMETRY OPTIMIZATION CONVERGED AFTER 112 ITERATIONS ***

 final structure:
================
70
 xtb: 6.7.1 (edcfbbe)
C           -7.59542618217896        0.26246228931128       -1.27561940690024
C           -6.72651267679093        0.00939423030515       -0.02896058492708
C           -7.62012733457821       -0.24069247266783        1.20072244085658
C           -5.87983535359606       -1.22223165523145       -0.27399735280813
C           -6.49547206167046       -2.43944861004520       -0.53142307234425
C           -5.76857879199699       -3.58921616208902       -0.77937143591091
C           -4.38380970092285       -3.53332766774886       -0.78463865256685
C           -3.74459398366095       -2.34038140471437       -0.53207966662374
C           -4.47825841288715       -1.17705826906498       -0.26185558897007
N           -3.81239192155901        0.00450384591133       -0.00120973698345
C           -2.38855840806951        0.00210021594335        0.01239227583022
C           -1.68600564793511        0.50132888488454       -1.07643266483227
C           -0.30543328174118        0.50427066661605       -1.05829217187333
C            0.38125971487428       -0.00274963290657        0.03875839399115
C            1.85785703289293       -0.00544311543738        0.05261561873370
C            2.53988571410838        1.21274304757942        0.03316320504717
C            1.78073877548575        2.37997714928597        0.09136244654583
N            1.07536796938593        3.29163966888806        0.16292720772429
C            3.99021329237652        1.16383734667549        0.02378054165165
C            4.84214356894310        2.32535519311651       -0.03170261767920
C            4.42882870474864        3.62099289981400       -0.37660563360424
C            5.34914975875047        4.65002829646089       -0.39887068322931
C            6.67347360610745        4.37582149420156       -0.08270591429652
N            7.06918524639658        3.15307876966766        0.23531790745051
C            6.21241968417012        2.17091388325429        0.26388795501309
N            4.57804645687599       -0.01051939543968        0.07788527792074
C            3.98494041760862       -1.18265896117502        0.12101747848818
C            4.83130953106723       -2.34735096986204        0.19260662753337
C            4.40667022564320       -3.64127210235531        0.53010383544222
C            5.32254051065718       -4.67373650670801        0.57022117729378
C            6.65363436083848       -4.40461792581896        0.27915221497330
N            7.05986767402451       -3.18355761313741       -0.03205288254210
C            6.20745248795662       -2.19822708978038       -0.07730660258383
C            2.53486217674728       -1.22615790738065        0.08462649285581
C            1.77263226948765       -2.39054269666583        0.01181712164414
N            1.06545487103030       -3.29963506330522       -0.07350907606734
C           -0.32794544409330       -0.50726499172119        1.12255422969351
C           -1.70860626657525       -0.49947893452172        1.11440046347470
C           -4.47913402869174        1.18826890670003        0.24689015449475
C           -3.74684334732761        2.34909266840969        0.53121829735933
C           -4.38674434781774        3.54412394932035        0.77190151089730
C           -5.77096874414474        3.60465392544651        0.74033704997044
C           -6.49686260162227        2.45738513875121        0.47829118722690
C           -5.88052831778864        1.23814201335511        0.23237834498730
H           -8.23163489896110       -0.59281550750716       -1.48403546446886
H           -6.95964282915894        0.43695042431462       -2.14147611289027
H           -8.23011624492449        1.13254223730075       -1.13483077050945
H           -8.25521531603296       -1.10838499190896        1.04755213573081
H           -8.25705961165339        0.61688372321214        1.39712439799947
H           -7.00172283280672       -0.41770132168559        2.07857024054212
H           -7.57302338408372       -2.49811590111358       -0.54129517682089
H           -6.27932292076236       -4.51968847243033       -0.97326057155164
H           -3.80011065365849       -4.41780243744352       -0.98682610283445
H           -2.66691437053799       -2.30317338656679       -0.54491561124753
H           -2.22492055428091        0.88807658205489       -1.92827590532673
H            0.24352679000977        0.89153145537361       -1.90348973906299
H            3.40055306004833        3.81810949192902       -0.63476744297655
H            5.04822711119637        5.65201433917047       -0.66240662448433
H            7.43517000922607        5.14173925398988       -0.08416537334362
H            6.58631774277352        1.19363952652923        0.53901441244928
H            3.37295559966698       -3.83443261587432        0.76879753688095
H            5.01288851767505       -5.67446010643804        0.82840326538420
H            7.41233521430651       -5.17333197813115        0.29557465307050
H            6.59014040509839       -1.22254468562144       -0.34594942713404
H            0.20342593877567       -0.89642094004501        1.97806201508071
H           -2.26500185426192       -0.88429373958513        1.95581983207738
H           -2.66973074213922        2.30827446762408        0.56446623598021
H           -3.80403546861746        4.42659617171920        0.98537894067388
H           -6.28218619870606        4.53679057085781        0.92475315187457
H           -7.57420364047130        2.51968195927307        0.46763087027464

 projected vibrational frequencies (cm⁻¹)
eigval :       -0.00    -0.00     0.00     0.00     0.00     0.00
eigval :        8.46    10.97    17.27    25.53    26.48    29.62
eigval :       39.31    50.17    51.69    59.54    66.24    67.48
eigval :       97.52    99.99   112.18   113.67   128.49   131.09
eigval :      142.31   153.83   165.74   191.34   196.02   203.66
eigval :      216.48   229.31   231.59   236.99   255.10   273.19
eigval :      288.58   289.28   304.15   326.67   327.68   341.38
eigval :      357.07   365.48   370.42   371.98   376.82   396.43
eigval :      396.84   400.06   405.75   421.11   445.39   450.49
eigval :      461.16   485.30   501.11   502.34   506.50   513.64
eigval :      539.04   541.45   543.58   573.12   576.35   582.62
eigval :      589.09   592.16   593.53   597.59   615.32   633.38
eigval :      646.65   650.75   659.58   661.24   671.18   673.25
eigval :      686.41   699.29   704.72   733.75   763.89   766.91
eigval :      775.45   776.59   777.92   816.84   827.15   827.70
eigval :      867.62   869.43   870.31   872.71   873.12   876.07
eigval :      877.72   909.16   909.38   909.50   916.27   917.12
eigval :      917.28   920.03   922.93   924.86   925.07   929.16
eigval :      937.87   958.08   968.12  1009.10  1010.06  1013.53
eigval :     1048.32  1075.76  1086.05  1089.30  1091.76  1108.95
eigval :     1113.69  1129.43  1133.29  1138.81  1140.19  1152.66
eigval :     1166.25  1167.69  1174.69  1181.66  1184.98  1185.37
eigval :     1185.47  1187.30  1207.95  1210.53  1240.57  1241.81
eigval :     1242.94  1245.18  1261.01  1264.61  1265.01  1294.25
eigval :     1296.92  1299.31  1308.85  1315.00  1319.91  1325.30
eigval :     1330.25  1334.13  1345.53  1376.64  1386.34  1402.03
eigval :     1403.85  1405.21  1414.33  1415.97  1420.04  1424.75
eigval :     1431.16  1438.03  1452.83  1458.99  1479.32  1487.28
eigval :     1488.04  1489.71  1498.09  1499.73  1501.62  1511.37
eigval :     1544.64  1557.53  1559.56  1566.50  1571.93  1580.23
eigval :     1591.01  1596.61  2270.77  2301.47  3030.18  3031.88
eigval :     3045.06  3047.48  3053.60  3057.07  3057.92  3059.93
eigval :     3075.91  3076.21  3086.82  3087.08  3087.28  3088.21
eigval :     3093.94  3094.10  3094.83  3094.89  3098.00  3098.48
eigval :     3102.91  3103.09  3112.89  3112.97  3113.90  3114.09

   temp. (K)  partition function   enthalpy   heat capacity  entropy
                                   cal/mol     cal/K/mol   cal/K/mol   J/K/mol
 298.15  VIB  0.366E+18            21793.694    132.763    136.929
         ROT  0.351E+08              888.752      2.981     37.505
         INT  0.128E+26            22682.446    135.744    174.435
         TR   0.131E+29             1481.254      4.968     44.868
         TOT                       24163.7003   140.7117   219.3026   917.5621

       T/K    H(0)-H(T)+PV         H(T)/Eh          T*S/Eh         G(T)/Eh
   ------------------------------------------------------------------------
    298.15    0.385073E-01    0.562880E+00    0.104198E+00    0.458682E+00
   ------------------------------------------------------------------------

         :::::::::::::::::::::::::::::::::::::::::::::::::::::
         ::                  THERMODYNAMIC                  ::
         :::::::::::::::::::::::::::::::::::::::::::::::::::::
         :: total free energy        -111.593779923857 Eh   ::
         ::.................................................::
         :: total energy             -112.052461875291 Eh   ::
         :: zero point energy           0.524372384350 Eh   ::
         :: G(RRHO) w/o ZPVE           -0.065690432917 Eh   ::
         :: G(RRHO) contrib.            0.458681951433 Eh   ::
         :::::::::::::::::::::::::::::::::::::::::::::::::::::

           -------------------------------------------------
          | TOTAL ENERGY             -112.052461875291 Eh   |
          | TOTAL ENTHALPY           -111.489582183482 Eh   |
          | TOTAL FREE ENERGY        -111.593779923857 Eh   |
          | GRADIENT NORM               0.000083021287 Eh/α |
           -------------------------------------------------

 * finished run on 2025/09/10 at 22:09:20.555
