   * xtb version 6.7.1 (edcfbbe) compiled by 'albert@albert-system' on 2024-07-22

   ID    Z sym.   atoms
    1    6 C      1-10, 12-23, 25-30, 32-37
    2    7 N      11, 31
    3    5 B      24
    4    1 H      38-64

          program call               : xtb data2507/gas/B-dpa-Cz/B-dpa-Cz_gas_T1_crest.xyz --gfn 2 --spinpol --tblite --uhf 2 --ohess vtight --parallel 40 --molden --ceasefiles --namespace data2507/gas/B-dpa-Cz/B-dpa-Cz_gas_T1_finalOpt
 * total energy  :   -93.6589672 Eh     change       -0.2524439E-07 Eh
 * total energy  :   -93.6589733 Eh     change       -0.6079692E-05 Eh
 * total energy  :   -93.6589765 Eh     change       -0.3232101E-05 Eh
 * total energy  :   -93.6589776 Eh     change       -0.1083566E-05 Eh
 * total energy  :   -93.6589786 Eh     change       -0.9852392E-06 Eh
 * total energy  :   -93.6589800 Eh     change       -0.1441599E-05 Eh
 * total energy  :   -93.6589818 Eh     change       -0.1796854E-05 Eh
 * total energy  :   -93.6589834 Eh     change       -0.1561155E-05 Eh
 * total energy  :   -93.6589842 Eh     change       -0.8500654E-06 Eh
 * total energy  :   -93.6589848 Eh     change       -0.5936975E-06 Eh
 * total energy  :   -93.6589880 Eh     change       -0.4334054E-06 Eh
 * total energy  :   -93.6589883 Eh     change       -0.3196254E-06 Eh
 * total energy  :   -93.6589885 Eh     change       -0.2288806E-06 Eh
 * total energy  :   -93.6589887 Eh     change       -0.1792028E-06 Eh
 * total energy  :   -93.6589890 Eh     change       -0.2344248E-06 Eh
 * total energy  :   -93.6589895 Eh     change       -0.5135532E-06 Eh
 * total energy  :   -93.6589899 Eh     change       -0.4324592E-06 Eh
 * total energy  :   -93.6589901 Eh     change       -0.2416099E-06 Eh
 * total energy  :   -93.6589901 Eh     change       -0.8998825E-08 Eh
   *** GEOMETRY OPTIMIZATION CONVERGED AFTER 22 ITERATIONS ***

 final structure:
================
64
 xtb: 6.7.1 (edcfbbe)
C            1.58165451848860       -4.49493686239982       -0.70962437994641
C            0.74437269558790       -3.98366238414865        0.47212442492822
C            1.53609737678398       -4.14895972652612        1.77740800096014
C           -0.52017766526784       -4.84163168401359        0.56637983061503
C            0.43451267273028       -2.51124468115670        0.26185904642576
C            1.49445882199966       -1.60631319819138        0.13720755511548
C            1.27585113257471       -0.23147141332303        0.01403403780906
C           -0.02924632325472        0.29913445693343        0.00356774482162
C           -1.08788118193290       -0.63872398199710        0.01407716170359
C           -0.85410610905174       -2.00702693974483        0.20245976250733
N           -2.37582924661336       -0.14115258436007       -0.08229458573044
C           -3.56758197756568       -0.79308253776596       -0.32835442650798
C           -3.83513860265292       -2.06257188865461       -0.83003173607935
C           -5.15262418720303       -2.44479516301431       -0.99101690162249
C           -6.20509031535751       -1.57902411688318       -0.68260994267236
C           -5.95709026159355       -0.29189164702682       -0.25108932178136
C           -4.64106581647165        0.11875191502517       -0.08622651905074
C           -4.04758806811517        1.37454794042974        0.25518806384973
C           -4.55295626750421        2.63449217105478        0.58011523447345
C           -3.63524137943052        3.65075817126736        0.83452575698141
C           -2.27099737699352        3.45333309747338        0.73612819768391
C           -1.70859532665599        2.20878192431697        0.35886683045145
C           -2.65574680938106        1.18477442095567        0.19935661666651
B           -0.25300449414282        1.80352616760262        0.08337775234310
C            1.01234205243360        2.65578601888829       -0.08284545207671
C            1.02555560942213        4.05289159537905       -0.22149504921692
C            2.18621679940835        4.77279529800012       -0.40352203541913
C            3.40834542379610        4.11204974295583       -0.47074378296042
C            3.44729804247432        2.73537427415908       -0.36119421118346
C            2.27374481958278        1.99997427378201       -0.16481995319645
N            2.36088270130459        0.62038623246012       -0.06938817933256
C            3.65597760632785        0.02854177765135       -0.11486833566266
C            4.44022328317506       -0.00896001968155        1.03192380933146
C            5.69041121581423       -0.59966049128263        0.98963792078322
C            6.16013504355026       -1.15310673986675       -0.19042466131296
C            5.37766573706506       -1.11466892673342       -1.33322827270604
C            4.12654581102395       -0.52576122980321       -1.29956969183527
H            1.03895464327736       -4.35747418866087       -1.64267331581340
H            1.79397409941477       -5.55487778391742       -0.58709862653353
H            2.52836840997049       -3.96647157026439       -0.78484601414311
H            2.47987728199066       -3.61118633953497        1.73903508332273
H            1.75057610856518       -5.20053810788315        1.95561377954085
H            0.95962749560956       -3.76668570097937        2.61726909222051
H           -0.24121434781657       -5.88439455330308        0.70333323435295
H           -1.13380229290424       -4.54609532463770        1.41425271854879
H           -1.11034605337029       -4.77062953073911       -0.34450837634595
H            2.50523999567596       -1.97674958515662        0.19070313522907
H           -1.69630841284845       -2.65507732693789        0.36256455124962
H           -3.04720519096654       -2.73131661626481       -1.13876865194627
H           -5.37341393104610       -3.42772191807504       -1.37964519395240
H           -7.22217080499638       -1.91739921912054       -0.81438969298420
H           -6.76819586608046        0.39311367266683       -0.05465051397725
H           -5.61521873935415        2.80971592027722        0.64598378927609
H           -4.00488616697305        4.62952632095900        1.10904921755350
H           -1.61205047287070        4.27815810307033        0.95691267273099
H            0.08268868183656        4.57486137172138       -0.20446402596838
H            2.15032367800938        5.84834448826305       -0.50201856939945
H            4.32427515257495        4.66438795225514       -0.61712629169955
H            4.39996380750114        2.23229081043336       -0.43378680713368
H            4.06243713574315        0.42549055390039        1.94546675605949
H            6.29813890981026       -0.62985581078845        1.88146192136811
H            7.13574794627132       -1.61406515882765       -0.21964060873496
H            5.74251261610259       -1.54392421647265       -2.25426301393484
H            3.50613108611822       -0.49117586664411       -2.18283377624226

 projected vibrational frequencies (cm⁻¹)
eigval :       -0.00    -0.00    -0.00     0.00     0.00     0.00
eigval :       15.98    21.73    32.05    38.63    46.52    55.61
eigval :       67.28    82.21   101.16   111.28   117.23   143.07
eigval :      149.15   176.53   189.28   194.53   213.23   220.84
eigval :      226.66   228.91   249.31   254.98   272.54   280.33
eigval :      292.77   312.42   321.93   335.36   359.22   367.83
eigval :      373.16   381.00   395.35   400.25   413.96   431.42
eigval :      435.79   454.55   464.55   475.01   487.05   496.30
eigval :      504.58   524.24   530.47   549.50   564.25   571.16
eigval :      579.96   587.03   591.95   598.25   601.38   621.23
eigval :      644.82   652.63   663.48   675.99   680.71   689.82
eigval :      702.15   735.19   747.86   751.13   761.59   769.71
eigval :      770.95   786.58   802.64   825.32   845.00   850.51
eigval :      865.58   867.39   875.72   886.19   888.30   898.10
eigval :      898.73   902.30   902.96   908.47   911.28   915.72
eigval :      928.59   932.06   933.42   957.93   962.12   963.07
eigval :      976.26   989.27  1033.26  1034.77  1042.93  1069.18
eigval :     1074.23  1078.06  1089.87  1104.44  1113.86  1126.14
eigval :     1139.05  1148.59  1172.13  1177.25  1179.53  1183.22
eigval :     1185.24  1189.32  1198.92  1211.32  1221.05  1225.42
eigval :     1235.46  1241.11  1250.01  1260.34  1267.32  1269.91
eigval :     1273.00  1278.88  1284.74  1291.30  1308.77  1312.09
eigval :     1326.92  1343.00  1355.01  1368.82  1381.34  1382.92
eigval :     1396.30  1405.60  1406.26  1409.11  1415.27  1428.37
eigval :     1429.47  1432.22  1450.34  1465.10  1467.63  1472.01
eigval :     1489.60  1492.22  1494.83  1501.22  1505.79  1508.33
eigval :     1515.54  1518.97  1520.71  1521.90  1548.80  1556.45
eigval :     1559.84  1572.37  1585.15  3022.59  3024.32  3025.83
eigval :     3030.31  3030.63  3034.51  3038.99  3041.96  3045.13
eigval :     3060.40  3069.76  3076.03  3080.45  3082.42  3082.69
eigval :     3084.52  3090.00  3091.58  3092.20  3093.04  3095.77
eigval :     3096.92  3098.00  3101.74  3106.24  3113.09  3149.42

   temp. (K)  partition function   enthalpy   heat capacity  entropy
                                   cal/mol     cal/K/mol   cal/K/mol   J/K/mol
 298.15  VIB  0.776E+12            17182.055    113.452    103.415
         ROT  0.308E+08              888.752      2.981     37.247
         INT  0.239E+20            18070.807    116.433    140.662
         TR   0.100E+29             1481.254      4.968     44.339
         TOT                       19552.0609   121.4007   185.0009   774.0437

       T/K    H(0)-H(T)+PV         H(T)/Eh          T*S/Eh         G(T)/Eh
   ------------------------------------------------------------------------
    298.15    0.311582E-01    0.533921E+00    0.878999E-01    0.446021E+00
   ------------------------------------------------------------------------

         :::::::::::::::::::::::::::::::::::::::::::::::::::::
         ::                  THERMODYNAMIC                  ::
         :::::::::::::::::::::::::::::::::::::::::::::::::::::
         :: total free energy         -93.212969524192 Eh   ::
         ::.................................................::
         :: total energy              -93.658990155144 Eh   ::
         :: zero point energy           0.502762326636 Eh   ::
         :: G(RRHO) w/o ZPVE           -0.056741695685 Eh   ::
         :: G(RRHO) contrib.            0.446020630951 Eh   ::
         :::::::::::::::::::::::::::::::::::::::::::::::::::::

           -------------------------------------------------
          | TOTAL ENERGY              -93.658990155144 Eh   |
          | TOTAL ENTHALPY            -93.125069636195 Eh   |
          | TOTAL FREE ENERGY         -93.212969524192 Eh   |
          | GRADIENT NORM               0.000070561423 Eh/α |
           -------------------------------------------------

 * finished run on 2025/09/09 at 00:06:55.511
