   * xtb version 6.7.1 (edcfbbe) compiled by 'albert@albert-system' on 2024-07-22

   ID    Z sym.   atoms
    1    6 C      1-10, 12-23, 25-30, 32-37
    2    7 N      11, 31
    3    5 B      24
    4    1 H      38-64

          program call               : xtb data2507/gas/B-dpa-Cz/B-dpa-Cz_gas_S0_crest.xyz --gfn 2 --ohess vtight --parallel 40 --molden --ceasefiles --namespace data2507/gas/B-dpa-Cz/B-dpa-Cz_gas_S0_finalOpt
          :  Hamiltonian                  GFN2-xTB          :
 * total energy  :   -93.7434450 Eh     change       -0.4269978E-08 Eh
 * total energy  :   -93.7434457 Eh     change       -0.6742440E-06 Eh
 * total energy  :   -93.7434461 Eh     change       -0.4272925E-06 Eh
 * total energy  :   -93.7434468 Eh     change       -0.7016596E-06 Eh
 * total energy  :   -93.7434469 Eh     change       -0.3859313E-07 Eh
 * total energy  :   -93.7434471 Eh     change       -0.2526366E-06 Eh
 * total energy  :   -93.7434473 Eh     change       -0.1852681E-06 Eh
 * total energy  :   -93.7434473 Eh     change       -0.1050623E-08 Eh
   *** GEOMETRY OPTIMIZATION CONVERGED AFTER 8 ITERATIONS ***

 final structure:
================
64
 xtb: 6.7.1 (edcfbbe)
C            1.56617060958038       -4.22562368281828       -1.53604670186951
C            0.73713827611612       -3.99832899850853       -0.26414935632228
C            1.53316828299094       -4.46210097310377        0.96422711963159
C           -0.52826962959283       -4.85504916931204       -0.36030232554497
C            0.43746005849074       -2.51306556357868       -0.12779816227864
C            1.49649757384947       -1.62566954800475       -0.02466038673619
C            1.28501135952529       -0.24829085903837        0.04384235705076
C           -0.02388895292787        0.27430581741585        0.04557576228180
C           -1.09266806936475       -0.65052247149790        0.02974468096919
C           -0.85850419000075       -2.01292241979887       -0.10480885383785
N           -2.38072981341057       -0.13629244430769        0.08955013226342
C           -3.60133613728759       -0.77633282781238        0.28152082319394
C           -3.90737769092014       -2.03913588922258        0.76982144280263
C           -5.23891235549708       -2.40074982366667        0.87991855376241
C           -6.26414103112608       -1.52882408464305        0.53287303756325
C           -5.97608343034977       -0.24673255285685        0.10740173596866
C           -4.64831680807534        0.13572043128463       -0.00388946296976
C           -4.02832391895017        1.39238678172272       -0.32538517153441
C           -4.50340788225213        2.64412220088959       -0.67786158829908
C           -3.58010275107359        3.65560482084743       -0.89609701950507
C           -2.21930421400868        3.44371657313527       -0.72892642856757
C           -1.69201645102025        2.20462571975487       -0.35022993356194
C           -2.63934172700895        1.18577873000864       -0.20722287868525
B           -0.23795884668944        1.78233262050398       -0.03774696189557
C            1.02291173317689        2.63446284029592        0.18408452289612
C            1.01711424884125        4.02088134509839        0.38504535091224
C            2.17134652053230        4.74756008047059        0.56531595167977
C            3.39684917206365        4.09178518406870        0.54909923687489
C            3.44980645458595        2.72760837044746        0.38393413305013
C            2.27485706244188        1.97979477498130        0.21727677339288
N            2.36805413230722        0.60698444834934        0.08848433686209
C            3.66928283457465        0.02619363286289        0.01589143497504
C            4.30423860441887       -0.41239914863034        1.17149768136441
C            5.56066223272468       -0.98569536056553        1.09023730923523
C            6.18471304006399       -1.12223059137367       -0.13905315317395
C            5.55150999148272       -0.68417224600016       -1.29019539496161
C            4.29427931867167       -0.11041952113271       -1.21643693521843
H            2.51067615189491       -3.68971702863969       -1.49430744409290
H            1.01631104397004       -3.87979919667351       -2.40893673685928
H            1.78026925958752       -5.28519185061508       -1.65990059505325
H            2.48275142611161       -3.93978075479319        1.04258222366287
H            1.73649219769628       -5.52891878757876        0.89779103522761
H            0.96474191942506       -4.27474582822299        1.87293926319417
H           -0.24929614642353       -5.90277704335918       -0.45402730954290
H           -1.14031973992390       -4.75147762732881        0.53276412097398
H           -1.11963834885099       -4.58739918054944       -1.23289009579098
H            2.50607162750448       -2.00271811956789       -0.02245601662571
H           -1.69175330862778       -2.67495099078241       -0.24116263898254
H           -3.14647075517790       -2.72516468012194        1.10382562548395
H           -5.48428097740089       -3.38311514912032        1.25632204020902
H           -7.29091800580879       -1.85018487420479        0.62490091977234
H           -6.76515373220172        0.45388160428532       -0.12108912933655
H           -5.56233740459998        2.82632658053719       -0.78560558538410
H           -3.92937229100997        4.63518235890523       -1.19054056527655
H           -1.54538199417706        4.26674141415776       -0.91301471683075
H            0.06565503476166        4.52812355160706        0.41862647805768
H            2.13052590131134        5.81589933216972        0.71871715766759
H            4.31326217324477        4.64912489478891        0.67982778246447
H            4.40926566636047        2.23211079560794        0.39594739669255
H            3.80603464050476       -0.30160156093463        2.12328957820159
H            6.05361397209948       -1.32644184707313        1.98847414329463
H            7.16514177361058       -1.57032540340263       -0.19936804370920
H            6.03681848845283       -0.79049205912387       -2.24890766876893
H            3.78891296358403        0.23348261186833       -2.10667628921730

          :  Hamiltonian                  GFN2-xTB          :
         :: gradient norm              0.000160931436 Eh/a0 ::
         :: HOMO-LUMO gap              2.214474534656 eV    ::
         :: SCC energy               -95.455321592872 Eh    ::
         :: -> dispersion             -0.089323237803 Eh    ::
         :: repulsion energy           1.711874267925 Eh    ::

    * Orbital Energies and Occupations

         #    Occupation            Energy/Eh            Energy/eV
      -------------------------------------------------------------
         1        2.0000           -0.6694546             -18.2168
       ...           ...                  ...                  ...
        76        2.0000           -0.4165211             -11.3341
        77        2.0000           -0.4148104             -11.2876
        78        2.0000           -0.4131158             -11.2415
        79        2.0000           -0.4101361             -11.1604
        80        2.0000           -0.4021635             -10.9434
        81        2.0000           -0.3989157             -10.8550
        82        2.0000           -0.3929090             -10.6916
        83        2.0000           -0.3868666             -10.5272
        84        2.0000           -0.3792778             -10.3207
        85        2.0000           -0.3770770             -10.2608
        86        2.0000           -0.3718530             -10.1186
        87        2.0000           -0.3646202              -9.9218
        88        2.0000           -0.3444806              -9.3738 (HOMO)
        89                         -0.2631000              -7.1593 (LUMO)
        90                         -0.2387369              -6.4964
        91                         -0.2381132              -6.4794
        92                         -0.2315886              -6.3018
        93                         -0.2196478              -5.9769
        94                         -0.2142691              -5.8306
        95                         -0.2130611              -5.7977
        96                         -0.1967126              -5.3528
        97                         -0.1811339              -4.9289
        98                         -0.1711893              -4.6583
        99                         -0.1345511              -3.6613
       ...                                ...                  ...
       175                          0.7544054              20.5284
      -------------------------------------------------------------
                  HL-Gap            0.0813805 Eh            2.2145 eV

     #   Z          covCN         q      C6AA      α(0)
     1   6 C        3.762    -0.104    22.540     6.768
     2   6 C        3.904     0.025    20.091     6.371
     3   6 C        3.762    -0.104    22.534     6.767
     4   6 C        3.761    -0.105    22.557     6.770
     5   6 C        2.973     0.010    27.793     8.648
     6   6 C        2.926    -0.074    29.848     8.959
     7   6 C        2.925     0.059    26.679     8.470
     8   6 C        2.897    -0.107    30.712     9.086
     9   6 C        2.916     0.057    26.717     8.476
    10   6 C        2.922    -0.077    29.921     8.970
    11   7 N        2.801    -0.026    21.743     6.926
    12   6 C        3.062     0.045    26.924     8.509
    13   6 C        2.911    -0.049    29.223     8.864
    14   6 C        2.923    -0.036    28.885     8.814
    15   6 C        2.920    -0.040    28.986     8.829
    16   6 C        2.913    -0.034    28.837     8.806
    17   6 C        3.073    -0.015    28.304     8.723
    18   6 C        3.058    -0.018    28.395     8.739
    19   6 C        2.914    -0.031    28.776     8.796
    20   6 C        2.918    -0.041    29.026     8.835
    21   6 C        2.928    -0.034    28.836     8.806
    22   6 C        2.880    -0.081    30.020     8.982
    23   6 C        3.106     0.041    26.955     8.507
    24   5 B        2.727     0.194    18.467     7.199
    25   6 C        2.888    -0.084    30.101     8.995
    26   6 C        2.923    -0.032    28.801     8.801
    27   6 C        2.914    -0.043    29.060     8.840
    28   6 C        2.920    -0.028    28.708     8.786
    29   6 C        2.920    -0.056    29.403     8.892
    30   6 C        2.927     0.059    26.669     8.469
    31   7 N        2.755    -0.053    22.273     7.009
    32   6 C        2.934     0.071    26.413     8.429
    33   6 C        2.921    -0.037    28.916     8.818
    34   6 C        2.920    -0.028    28.702     8.785
    35   6 C        2.920    -0.031    28.765     8.795
    36   6 C        2.920    -0.028    28.689     8.784
    37   6 C        2.922    -0.037    28.920     8.819
    38   1 H        0.925     0.034     2.526     2.486
    39   1 H        0.925     0.034     2.534     2.489
    40   1 H        0.925     0.036     2.497     2.471
    41   1 H        0.925     0.035     2.522     2.483
    42   1 H        0.925     0.036     2.499     2.472
    43   1 H        0.925     0.034     2.536     2.490
    44   1 H        0.925     0.035     2.516     2.481
    45   1 H        0.925     0.034     2.524     2.484
    46   1 H        0.925     0.036     2.502     2.473
    47   1 H        0.926     0.021     2.715     2.577
    48   1 H        0.926     0.041     2.433     2.439
    49   1 H        0.926     0.033     2.540     2.492
    50   1 H        0.926     0.028     2.616     2.529
    51   1 H        0.926     0.027     2.628     2.535
    52   1 H        0.926     0.030     2.580     2.512
    53   1 H        0.926     0.027     2.634     2.538
    54   1 H        0.926     0.023     2.687     2.564
    55   1 H        0.926     0.030     2.593     2.518
    56   1 H        0.926     0.033     2.550     2.497
    57   1 H        0.926     0.022     2.702     2.570
    58   1 H        0.926     0.024     2.680     2.560
    59   1 H        0.926     0.019     2.752     2.594
    60   1 H        0.926     0.043     2.413     2.429
    61   1 H        0.926     0.039     2.468     2.457
    62   1 H        0.926     0.038     2.481     2.463
    63   1 H        0.926     0.039     2.466     2.455
    64   1 H        0.926     0.042     2.423     2.434

molecular dipole:
                 x           y           z       tot (Debye)
 q only:        0.940      -0.639      -0.036
   full:        1.032      -0.768      -0.021       3.269

 projected vibrational frequencies (cm⁻¹)
eigval :       -0.00    -0.00     0.00     0.00     0.00     0.00
eigval :       17.40    23.08    32.20    37.28    46.57    55.27
eigval :       69.34    87.02   101.45   114.86   119.89   142.55
eigval :      153.35   178.95   190.27   198.12   218.06   222.42
eigval :      225.58   232.03   249.81   255.39   278.18   283.94
eigval :      293.31   323.29   328.16   334.87   362.58   370.41
eigval :      373.95   388.89   403.02   405.92   418.03   435.75
eigval :      438.10   461.38   467.74   487.41   498.91   502.18
eigval :      530.06   534.38   538.38   553.92   576.49   580.70
eigval :      588.42   592.33   599.26   606.51   629.19   632.57
eigval :      649.13   658.56   677.97   686.86   690.95   706.89
eigval :      719.67   741.77   769.21   772.45   774.11   775.91
eigval :      791.58   794.04   826.62   853.94   867.82   869.22
eigval :      875.34   877.34   891.52   893.55   901.52   902.53
eigval :      908.91   913.82   919.67   921.56   924.80   926.13
eigval :      929.59   933.72   946.17   959.74   963.05   963.62
eigval :      982.07   993.68  1034.73  1035.90  1050.72  1078.34
eigval :     1081.17  1088.93  1100.57  1111.10  1113.02  1138.94
eigval :     1151.82  1155.69  1180.50  1181.47  1184.15  1187.46
eigval :     1193.06  1199.53  1207.73  1223.94  1227.40  1237.22
eigval :     1243.90  1256.63  1263.90  1273.09  1273.24  1288.39
eigval :     1291.24  1294.35  1307.66  1308.98  1315.57  1336.29
eigval :     1340.47  1361.45  1363.00  1374.59  1401.67  1406.64
eigval :     1407.50  1419.71  1426.68  1429.61  1432.09  1433.10
eigval :     1451.40  1460.71  1470.48  1477.00  1485.27  1492.47
eigval :     1495.62  1501.83  1505.62  1516.35  1520.81  1534.51
eigval :     1551.63  1566.70  1576.20  1583.22  1584.81  1592.08
eigval :     1594.67  1597.06  1611.76  3020.75  3022.80  3026.17
eigval :     3029.50  3030.55  3034.88  3037.85  3043.52  3047.23
eigval :     3068.42  3069.86  3076.06  3079.64  3080.36  3082.04
eigval :     3082.87  3084.31  3089.70  3090.67  3091.73  3093.63
eigval :     3094.67  3099.78  3103.31  3108.55  3108.75  3171.57

   temp. (K)  partition function   enthalpy   heat capacity  entropy
                                   cal/mol     cal/K/mol   cal/K/mol   J/K/mol
 298.15  VIB  0.484E+12            16928.442    111.825    101.784
         ROT  0.308E+08              888.752      2.981     37.247
         INT  0.149E+20            17817.195    114.806    139.030
         TR   0.100E+29             1481.254      4.968     44.339
         TOT                       19298.4485   119.7741   183.3691   767.2163

       T/K    H(0)-H(T)+PV         H(T)/Eh          T*S/Eh         G(T)/Eh
   ------------------------------------------------------------------------
    298.15    0.307540E-01    0.537639E+00    0.871246E-01    0.450514E+00
   ------------------------------------------------------------------------

         :::::::::::::::::::::::::::::::::::::::::::::::::::::
         ::                  THERMODYNAMIC                  ::
         :::::::::::::::::::::::::::::::::::::::::::::::::::::
         :: total free energy         -93.292933063907 Eh   ::
         ::.................................................::
         :: total energy              -93.743447324948 Eh   ::
         :: zero point energy           0.506884803180 Eh   ::
         :: G(RRHO) w/o ZPVE           -0.056370542139 Eh   ::
         :: G(RRHO) contrib.            0.450514261041 Eh   ::
         :::::::::::::::::::::::::::::::::::::::::::::::::::::

           -------------------------------------------------
          | TOTAL ENERGY              -93.743447324948 Eh   |
          | TOTAL ENTHALPY            -93.205808486481 Eh   |
          | TOTAL FREE ENERGY         -93.292933063907 Eh   |
          | GRADIENT NORM               0.000160943158 Eh/α |
          | HOMO-LUMO GAP               2.214477235300 eV   |
           -------------------------------------------------

 * finished run on 2025/09/09 at 00:03:43.565
