   * xtb version 6.7.1 (edcfbbe) compiled by 'albert@albert-system' on 2024-07-22

   ID    Z sym.   atoms
    1    6 C      1-10, 12-23, 25-30, 32-37
    2    7 N      11, 31
    3    5 B      24
    4    1 H      38-64

          program call               : xtb data2507/gas/B-dpa-Cz/B-dpa-Cz_gas_S0_finalOpt.xtbopt.xyz --gfn 2 --spinpol --tblite --uhf 2 --ohess vtight --parallel 40 --molden --ceasefiles --namespace data2507/gas/B-dpa-Cz/B-dpa-Cz_gas_T1_preOpt
 * total energy  :   -93.6573870 Eh     change       -0.1513475E-07 Eh
 * total energy  :   -93.6584835 Eh     change       -0.1096477E-02 Eh
 * total energy  :   -93.6587514 Eh     change       -0.2679136E-03 Eh
 * total energy  :   -93.6587810 Eh     change       -0.2965054E-04 Eh
 * total energy  :   -93.6587994 Eh     change       -0.1839192E-04 Eh
 * total energy  :   -93.6588093 Eh     change       -0.9903505E-05 Eh
 * total energy  :   -93.6588204 Eh     change       -0.1110798E-04 Eh
 * total energy  :   -93.6588320 Eh     change       -0.1158182E-04 Eh
 * total energy  :   -93.6588405 Eh     change       -0.8496505E-05 Eh
 * total energy  :   -93.6588480 Eh     change       -0.7479823E-05 Eh
 * total energy  :   -93.6589736 Eh     change       -0.2481917E-05 Eh
 * total energy  :   -93.6589764 Eh     change       -0.2810080E-05 Eh
 * total energy  :   -93.6589793 Eh     change       -0.2835144E-05 Eh
 * total energy  :   -93.6589818 Eh     change       -0.2523343E-05 Eh
 * total energy  :   -93.6589838 Eh     change       -0.1999955E-05 Eh
 * total energy  :   -93.6589852 Eh     change       -0.1402684E-05 Eh
 * total energy  :   -93.6589861 Eh     change       -0.9036386E-06 Eh
 * total energy  :   -93.6589861 Eh     change        0.5205692E-08 Eh
 * total energy  :   -93.6589861 Eh     change       -0.1635118E-07 Eh
   *** GEOMETRY OPTIMIZATION CONVERGED AFTER 45 ITERATIONS ***

 final structure:
================
64
 xtb: 6.7.1 (edcfbbe)
C            1.52239915979062       -4.21136061647366       -1.63573398054139
C            0.72984334012522       -3.99980784518722       -0.33771958105795
C            1.56357600998674       -4.47503181679077        0.86149055490841
C           -0.53803438218885       -4.85547946852940       -0.40504541447517
C            0.42561223159081       -2.52012963705996       -0.17555610004620
C            1.48884293262036       -1.61574779871420       -0.07796460495482
C            1.27515458031492       -0.23725290578256        0.00761178697883
C           -0.02827391503250        0.29764074076757        0.00341823205724
C           -1.09069470519421       -0.63581833500147        0.01392164915103
C           -0.86129412625177       -2.00981854238375       -0.13392449007627
N           -2.37745160362625       -0.13096112554308        0.08778830651562
C           -3.57402887173031       -0.77188744577392        0.33955761069946
C           -3.85130917702753       -2.02566118647688        0.87439342008014
C           -5.17171922678627       -2.39956816854954        1.03086059520110
C           -6.21790960690104       -1.54017723310434        0.68542965534259
C           -5.96097685593638       -0.26631658787180        0.22099035365763
C           -4.64187712667041        0.13599236823024        0.06015700986697
C           -4.04058785373723        1.38002805483216       -0.30949015817153
C           -4.53787349545402        2.63219718357061       -0.67472255495772
C           -3.61393397574599        3.63833760634524       -0.94673245901704
C           -2.25156496063337        3.43947142365528       -0.82814515130199
C           -1.69789523780928        2.20351273968273       -0.41170164935122
C           -2.65016180023732        1.18748076584681       -0.23357706256119
B           -0.24640628480019        1.80035891128882       -0.11450956908641
C            1.02002920012330        2.65241706280272        0.04138435265351
C            1.03553655258890        4.05154814716442        0.15731895676263
C            2.19742714921103        4.77167110990300        0.33024214366670
C            3.41786509658640        4.10922770904871        0.41109365924744
C            3.45413978086329        2.73083503809111        0.32445226137583
C            2.27935073018367        1.99490179271985        0.13771375717999
N            2.36288611634803        0.61341548920100        0.06662197829327
C            3.65850683268652        0.02245180282979        0.10307807330174
C            4.14496293168302       -0.52167624710390        1.28613356040171
C            5.39837723464584       -1.10622819331530        1.30913521861743
C            6.16760200902855       -1.15018433269629        0.15751167219904
C            5.68191954625118       -0.60730270875155       -1.02097069747922
C            4.42922868924024       -0.02132779217227       -1.05266831345392
H            2.46877702354526       -3.67724295576108       -1.61362171213819
H            0.94886359202305       -3.85395494644961       -2.48844367533489
H            1.73192699605396       -5.26923620382024       -1.77918015167526
H            2.51237598294607       -3.94824115453816        0.92032786460416
H            1.77161130506914       -5.53932393828718        0.77463818360129
H            1.02027157924624       -4.30430503440513        1.78867886829794
H           -0.26304480034804       -5.90334034477727       -0.50650726585965
H           -1.12907352109627       -4.75165567420528        0.50213337136718
H           -1.14942156028477       -4.58622164474679       -1.26323109195216
H            2.49820619604951       -1.99121389941042       -0.12188086201757
H           -1.70522990847266       -2.65949446998005       -0.27705693034784
H           -3.06901559599805       -2.68721233079387        1.21168027966610
H           -5.40007216701701       -3.37034311044477        1.44484666934106
H           -7.23745645889124       -1.87218049406431        0.81429126814175
H           -6.76763576074751        0.41503326969533       -0.00433483445104
H           -5.59871149770463        2.80900064828154       -0.75712612102231
H           -3.97738841588763        4.61033272218245       -1.25189707501918
H           -1.58679542775421        4.25556657012602       -1.06369737191481
H            0.09354270321559        4.57479968499028        0.12948511729640
H            2.16394144027079        5.84877005519507        0.41113206209579
H            4.33467104243573        4.66183262272701        0.55091622111137
H            4.40548422911567        2.22705163391576        0.40871021689581
H            3.53520440185484       -0.48238587788002        2.17662388959407
H            5.77569504910823       -1.52740818629708        2.22887623433662
H            7.14539089674158       -1.60694185646261        0.17877710044827
H            6.27922633809574       -0.64158916789698       -1.91963796914256
H            4.03925623046957        0.40546770097442       -1.96468379346295

 projected vibrational frequencies (cm⁻¹)
eigval :       -0.00    -0.00    -0.00     0.00     0.00     0.00
eigval :       16.35    21.66    32.11    39.00    46.50    55.84
eigval :       67.90    81.66   101.28   111.66   116.94   143.15
eigval :      149.26   176.50   188.99   194.52   213.41   221.05
eigval :      226.30   228.81   249.44   255.22   272.43   280.32
eigval :      292.61   312.59   322.16   335.19   359.49   367.72
eigval :      373.23   381.42   395.34   400.24   414.02   431.68
eigval :      435.46   454.53   464.69   475.25   486.98   496.25
eigval :      504.68   524.12   530.60   549.33   564.09   571.24
eigval :      579.99   587.37   592.09   598.18   601.41   621.28
eigval :      644.67   652.53   663.35   676.07   680.73   689.78
eigval :      702.20   734.96   748.23   751.52   761.57   769.79
eigval :      770.83   786.53   802.50   825.58   845.01   850.89
eigval :      865.54   867.24   875.76   886.37   888.20   898.00
eigval :      898.64   902.39   903.01   908.27   911.66   915.46
eigval :      928.58   932.04   933.46   958.05   962.24   963.25
eigval :      976.30   989.03  1033.29  1034.84  1042.72  1068.77
eigval :     1074.02  1077.98  1089.87  1103.73  1113.83  1125.95
eigval :     1139.02  1148.55  1172.55  1177.61  1179.67  1183.34
eigval :     1185.30  1189.26  1198.99  1210.98  1220.81  1225.61
eigval :     1235.70  1241.09  1250.51  1260.34  1267.39  1269.85
eigval :     1273.19  1279.44  1284.74  1291.15  1308.79  1312.14
eigval :     1327.06  1343.02  1355.15  1368.55  1381.47  1383.12
eigval :     1396.02  1405.89  1406.54  1409.50  1415.56  1428.78
eigval :     1429.49  1432.51  1450.36  1465.16  1467.45  1472.07
eigval :     1489.55  1492.31  1495.19  1501.50  1506.01  1508.32
eigval :     1515.33  1519.29  1520.88  1522.27  1548.60  1556.52
eigval :     1559.92  1572.09  1584.96  3022.61  3024.39  3026.04
eigval :     3030.67  3030.95  3034.62  3039.30  3042.53  3045.50
eigval :     3060.69  3070.09  3076.43  3080.69  3082.89  3083.03
eigval :     3084.84  3090.50  3091.96  3092.56  3093.39  3096.26
eigval :     3097.37  3098.20  3101.98  3106.84  3112.51  3150.55

   temp. (K)  partition function   enthalpy   heat capacity  entropy
                                   cal/mol     cal/K/mol   cal/K/mol   J/K/mol
 298.15  VIB  0.747E+12            17179.614    113.463    103.386
         ROT  0.308E+08              888.752      2.981     37.248
         INT  0.230E+20            18068.366    116.444    140.633
         TR   0.100E+29             1481.254      4.968     44.339
         TOT                       19549.6200   121.4122   184.9720   773.9229

       T/K    H(0)-H(T)+PV         H(T)/Eh          T*S/Eh         G(T)/Eh
   ------------------------------------------------------------------------
    298.15    0.311543E-01    0.533952E+00    0.878862E-01    0.446065E+00
   ------------------------------------------------------------------------

         :::::::::::::::::::::::::::::::::::::::::::::::::::::
         ::                  THERMODYNAMIC                  ::
         :::::::::::::::::::::::::::::::::::::::::::::::::::::
         :: total free energy         -93.212920686917 Eh   ::
         ::.................................................::
         :: total energy              -93.658986120320 Eh   ::
         :: zero point energy           0.502797303192 Eh   ::
         :: G(RRHO) w/o ZPVE           -0.056731869790 Eh   ::
         :: G(RRHO) contrib.            0.446065433403 Eh   ::
         :::::::::::::::::::::::::::::::::::::::::::::::::::::

           -------------------------------------------------
          | TOTAL ENERGY              -93.658986120320 Eh   |
          | TOTAL ENTHALPY            -93.125034514592 Eh   |
          | TOTAL FREE ENERGY         -93.212920686917 Eh   |
          | GRADIENT NORM               0.000108764760 Eh/α |
           -------------------------------------------------

 * finished run on 2025/09/09 at 00:03:49.192
