   * xtb version 6.7.1 (edcfbbe) compiled by 'albert@albert-system' on 2024-07-22

   ID    Z sym.   atoms
    1    6 C      1-10, 12-23, 25-30, 32-37
    2    7 N      11, 31
    3    5 B      24
    4    1 H      38-64

          program call               : xtb data2507/gas/B-dpa-Cz/B-dpa-Cz.xyz --gfn 2 --ohess vtight --parallel 40 --molden --ceasefiles --namespace data2507/gas/B-dpa-Cz/B-dpa-Cz_gas_S0_preOpt
          :  Hamiltonian                  GFN2-xTB          :
 * total energy  :   -93.6630014 Eh     change       -0.5025214E-08 Eh
 * total energy  :   -93.7061988 Eh     change       -0.4319732E-01 Eh
 * total energy  :   -93.7217752 Eh     change       -0.1557649E-01 Eh
 * total energy  :   -93.7279828 Eh     change       -0.6207526E-02 Eh
 * total energy  :   -93.7316523 Eh     change       -0.3669528E-02 Eh
 * total energy  :   -93.7339123 Eh     change       -0.2260039E-02 Eh
 * total energy  :   -93.7353862 Eh     change       -0.1473888E-02 Eh
 * total energy  :   -93.7364327 Eh     change       -0.1046477E-02 Eh
 * total energy  :   -93.7372171 Eh     change       -0.7843868E-03 Eh
 * total energy  :   -93.7378258 Eh     change       -0.6087137E-03 Eh
 * total energy  :   -93.7433382 Eh     change       -0.5654045E-06 Eh
 * total energy  :   -93.7433386 Eh     change       -0.4298824E-06 Eh
 * total energy  :   -93.7433390 Eh     change       -0.4235621E-06 Eh
 * total energy  :   -93.7433394 Eh     change       -0.4148786E-06 Eh
 * total energy  :   -93.7433398 Eh     change       -0.3267859E-06 Eh
 * total energy  :   -93.7433399 Eh     change       -0.1940026E-06 Eh
 * total energy  :   -93.7433401 Eh     change       -0.1302437E-06 Eh
 * total energy  :   -93.7433402 Eh     change       -0.1194745E-06 Eh
 * total energy  :   -93.7433402 Eh     change       -0.2118739E-08 Eh
   *** GEOMETRY OPTIMIZATION CONVERGED AFTER 68 ITERATIONS ***

 final structure:
================
64
 xtb: 6.7.1 (edcfbbe)
C            2.13566183695816       -3.92260776894794        0.04781984865637
C            0.64361158527057       -3.58305484861304       -0.01170458920492
C           -0.04476404191774       -4.25863702034685        1.18279785861150
C            0.07735414916988       -4.14458978066827       -1.32351109048179
C            0.37794831023169       -2.08607217884350        0.03697674785032
C            1.39771578359122       -1.15428013175342        0.07511742291234
C            1.12375526175350        0.21727787713690        0.05050473707413
C           -0.20405082645901        0.68436267130106        0.02083824973588
C           -1.23482116451534       -0.28344708981467        0.07678365357656
C           -0.94085042180311       -1.63669107460436        0.03395762491859
N           -2.54262790506508        0.18095874475538        0.10992174127740
C           -3.73344443405353       -0.49315844520935        0.35886285870973
C           -3.98169563289616       -1.72664076496682        0.94490221336840
C           -5.29566755782983       -2.13539818168937        1.09341319624596
C           -6.35912101520472       -1.33695476168176        0.68892890993317
C           -6.12909776459636       -0.07983048478849        0.16492594229111
C           -4.81973414532969        0.34969672238594        0.01388350409975
C           -4.25497056116336        1.60362741092743       -0.40544756901841
C           -4.78365533642449        2.80484311606598       -0.84667213937068
C           -3.90445945840827        3.83456139617128       -1.14611189421697
C           -2.53510057183977        3.69279963558127       -0.97331701925207
C           -1.95451070519775        2.50863019334987       -0.50736504566004
C           -2.85794507963232        1.46500591016785       -0.28259329932490
B           -0.48276440576073        2.17149029470339       -0.17264861864562
C            0.74161496474095        3.08926359519495       -0.02060571499777
C            0.67815873595085        4.48555604057564        0.07525533041280
C            1.80092108034967        5.27091136584234        0.19847932539569
C            3.05249959997791        4.66691044862009        0.23128137345815
C            3.16212417531593        3.29761175157434        0.16910109950559
C            2.01956873582888        2.49120010584267        0.05895214814225
N            2.17023178240960        1.11750653998047        0.03129160270344
C            3.49594901667180        0.59040622659757       -0.00019950265237
C            4.14334484069553        0.25634939823950        1.18311350443988
C            5.42487228133987       -0.26302227406690        1.14278029130510
C            6.06192521709629       -0.44907735365801       -0.07323795299006
C            5.41674001738247       -0.11418462738501       -1.25202639213443
C            4.13437629980432        0.40499950373768       -1.21923351087792
H            2.58415174513738       -3.55828199175990        0.96939960122568
H            2.66991059717512       -3.49821749321553       -0.79924561112243
H            2.26208456027527       -5.00304357985101        0.01636955097295
H           -1.12354825505311       -4.13880025406069        1.14060862363077
H            0.31188748380819       -3.82728744115342        2.11596227248641
H            0.17550169113274       -5.32413865349391        1.18842867878785
H            0.26222085276226       -5.21514522273552       -1.38360790645494
H           -0.99409711536822       -3.97965307734138       -1.39655161100708
H            0.55445062148770       -3.66283557086032       -2.17448921913296
H            2.42321922154086       -1.47769358637849        0.09954699640511
H           -1.74166375592202       -2.34876691413445       -0.05028000607572
H           -3.18914853553364       -2.34965002574061        1.32600365706572
H           -5.49679693978752       -3.09520269434151        1.54654890602886
H           -7.37055642809175       -1.69392817666486        0.81371547177990
H           -6.94909631282604        0.56678664053387       -0.10926662424848
H           -5.84973743126188        2.93443188785039       -0.95994898980011
H           -4.29572978874579        4.77419723080141       -1.50977249856250
H           -1.89757570712696        4.52766046294746       -1.22232369448260
H           -0.29350921707803        4.95407229334841        0.07180167694397
H            1.71569097779739        6.34520881277089        0.27041358029471
H            3.94481920610886        5.26985646956975        0.31934787487106
H            4.14128627925590        2.84488477300925        0.21848268515926
H            3.63507165422777        0.40552125971070        2.12432192988813
H            5.92746850422586       -0.52282125948188        2.06251624712954
H            7.06195974057494       -0.85491612660921       -0.10170193138587
H            5.91266941689871       -0.25816424248582       -2.20032334104740
H            3.61997628793904        0.66960431805350       -2.13117316514037

          :  Hamiltonian                  GFN2-xTB          :
         :: gradient norm              0.000031491528 Eh/a0 ::
         :: HOMO-LUMO gap              2.222811443076 eV    ::
         :: SCC energy               -95.455256029151 Eh    ::
         :: -> dispersion             -0.089295198795 Eh    ::
         :: repulsion energy           1.711915828135 Eh    ::

    * Orbital Energies and Occupations

         #    Occupation            Energy/Eh            Energy/eV
      -------------------------------------------------------------
         1        2.0000           -0.6694297             -18.2161
       ...           ...                  ...                  ...
        76        2.0000           -0.4165677             -11.3354
        77        2.0000           -0.4151242             -11.2961
        78        2.0000           -0.4129896             -11.2380
        79        2.0000           -0.4102806             -11.1643
        80        2.0000           -0.4023499             -10.9485
        81        2.0000           -0.3988062             -10.8521
        82        2.0000           -0.3928979             -10.6913
        83        2.0000           -0.3870422             -10.5320
        84        2.0000           -0.3793084             -10.3215
        85        2.0000           -0.3770653             -10.2605
        86        2.0000           -0.3717302             -10.1153
        87        2.0000           -0.3646234              -9.9219
        88        2.0000           -0.3445312              -9.3752 (HOMO)
        89                         -0.2628444              -7.1524 (LUMO)
        90                         -0.2386351              -6.4936
        91                         -0.2379749              -6.4756
        92                         -0.2316532              -6.3036
        93                         -0.2199094              -5.9840
        94                         -0.2142142              -5.8291
        95                         -0.2128373              -5.7916
        96                         -0.1969246              -5.3586
        97                         -0.1811801              -4.9302
        98                         -0.1710413              -4.6543
        99                         -0.1345608              -3.6616
       ...                                ...                  ...
       175                          0.7546123              20.5340
      -------------------------------------------------------------
                  HL-Gap            0.0816868 Eh            2.2228 eV

     #   Z          covCN         q      C6AA      α(0)
     1   6 C        3.761    -0.106    22.564     6.772
     2   6 C        3.903     0.026    20.088     6.371
     3   6 C        3.762    -0.103    22.516     6.764
     4   6 C        3.762    -0.105    22.543     6.768
     5   6 C        2.973     0.010    27.793     8.648
     6   6 C        2.924    -0.078    29.948     8.974
     7   6 C        2.925     0.059    26.680     8.471
     8   6 C        2.897    -0.108    30.715     9.087
     9   6 C        2.915     0.057    26.716     8.476
    10   6 C        2.924    -0.073    29.818     8.955
    11   7 N        2.801    -0.026    21.749     6.926
    12   6 C        3.063     0.045    26.922     8.509
    13   6 C        2.911    -0.049    29.224     8.864
    14   6 C        2.923    -0.036    28.888     8.814
    15   6 C        2.920    -0.040    28.988     8.829
    16   6 C        2.913    -0.034    28.836     8.806
    17   6 C        3.073    -0.015    28.306     8.723
    18   6 C        3.058    -0.018    28.398     8.739
    19   6 C        2.914    -0.031    28.777     8.797
    20   6 C        2.918    -0.041    29.028     8.835
    21   6 C        2.928    -0.034    28.837     8.807
    22   6 C        2.880    -0.081    30.021     8.982
    23   6 C        3.106     0.041    26.950     8.506
    24   5 B        2.727     0.194    18.468     7.200
    25   6 C        2.888    -0.084    30.098     8.994
    26   6 C        2.923    -0.032    28.800     8.801
    27   6 C        2.914    -0.043    29.057     8.839
    28   6 C        2.920    -0.028    28.708     8.786
    29   6 C        2.920    -0.056    29.401     8.892
    30   6 C        2.927     0.059    26.675     8.470
    31   7 N        2.755    -0.053    22.259     7.007
    32   6 C        2.934     0.071    26.415     8.429
    33   6 C        2.921    -0.037    28.909     8.817
    34   6 C        2.920    -0.028    28.693     8.784
    35   6 C        2.920    -0.030    28.758     8.794
    36   6 C        2.920    -0.027    28.685     8.783
    37   6 C        2.922    -0.037    28.917     8.818
    38   1 H        0.925     0.034     2.530     2.487
    39   1 H        0.925     0.034     2.536     2.490
    40   1 H        0.925     0.036     2.507     2.476
    41   1 H        0.925     0.035     2.511     2.478
    42   1 H        0.925     0.033     2.545     2.495
    43   1 H        0.925     0.036     2.504     2.475
    44   1 H        0.925     0.037     2.493     2.469
    45   1 H        0.925     0.037     2.486     2.466
    46   1 H        0.925     0.033     2.544     2.494
    47   1 H        0.926     0.029     2.605     2.524
    48   1 H        0.926     0.034     2.531     2.488
    49   1 H        0.926     0.032     2.558     2.501
    50   1 H        0.926     0.028     2.620     2.531
    51   1 H        0.926     0.027     2.629     2.536
    52   1 H        0.926     0.030     2.580     2.512
    53   1 H        0.926     0.027     2.636     2.539
    54   1 H        0.926     0.023     2.689     2.564
    55   1 H        0.926     0.029     2.596     2.519
    56   1 H        0.926     0.033     2.547     2.496
    57   1 H        0.926     0.022     2.700     2.570
    58   1 H        0.926     0.024     2.679     2.559
    59   1 H        0.926     0.019     2.749     2.593
    60   1 H        0.926     0.042     2.417     2.431
    61   1 H        0.926     0.039     2.467     2.456
    62   1 H        0.926     0.038     2.479     2.462
    63   1 H        0.926     0.039     2.466     2.456
    64   1 H        0.926     0.042     2.427     2.436

molecular dipole:
                 x           y           z       tot (Debye)
 q only:        1.009      -0.593       0.004
   full:        1.091      -0.721       0.030       3.324

 projected vibrational frequencies (cm⁻¹)
eigval :       -0.00    -0.00    -0.00    -0.00     0.00     0.00
eigval :       17.53    24.57    29.89    38.03    46.58    55.68
eigval :       68.87    86.67   100.17   114.26   123.64   144.35
eigval :      152.42   177.73   190.84   201.05   213.59   217.33
eigval :      222.27   234.93   247.48   259.53   274.07   283.35
eigval :      292.00   321.22   325.72   342.92   362.29   370.99
eigval :      374.07   387.73   402.99   406.05   418.32   433.97
eigval :      439.25   461.54   468.13   486.59   499.45   502.42
eigval :      529.94   534.27   538.29   553.85   576.39   580.73
eigval :      588.43   592.43   599.10   606.37   629.42   632.96
eigval :      648.77   658.81   677.99   686.93   691.00   706.90
eigval :      719.61   741.60   769.26   772.62   774.15   776.29
eigval :      791.63   793.96   822.73   854.63   867.95   869.03
eigval :      877.18   877.55   891.43   893.55   901.50   902.88
eigval :      908.74   913.82   919.64   921.60   924.86   926.11
eigval :      929.53   933.60   946.03   960.36   961.84   962.90
eigval :      982.24   993.41  1034.09  1035.07  1051.45  1078.39
eigval :     1080.59  1088.85  1100.46  1111.04  1113.09  1138.84
eigval :     1150.00  1155.67  1180.55  1181.39  1184.16  1187.54
eigval :     1192.30  1200.07  1208.63  1222.82  1227.66  1237.34
eigval :     1243.04  1254.66  1265.86  1273.30  1273.39  1287.07
eigval :     1291.53  1294.33  1307.44  1309.19  1314.70  1336.98
eigval :     1340.17  1361.43  1362.84  1377.05  1402.66  1405.75
eigval :     1407.27  1419.65  1426.07  1429.66  1431.75  1433.30
eigval :     1452.16  1458.37  1470.65  1476.50  1485.38  1492.58
eigval :     1494.43  1502.02  1505.91  1515.60  1521.29  1535.13
eigval :     1551.78  1566.69  1576.20  1583.26  1586.85  1592.13
eigval :     1594.78  1597.15  1611.66  3020.69  3023.02  3025.70
eigval :     3029.66  3030.61  3034.20  3037.10  3046.26  3050.44
eigval :     3068.40  3069.89  3075.82  3079.71  3080.29  3081.92
eigval :     3082.51  3084.19  3089.75  3090.65  3091.67  3093.55
eigval :     3094.22  3099.71  3103.58  3106.49  3139.92  3142.31

   temp. (K)  partition function   enthalpy   heat capacity  entropy
                                   cal/mol     cal/K/mol   cal/K/mol   J/K/mol
 298.15  VIB  0.483E+12            16935.053    111.837    101.811
         ROT  0.308E+08              888.752      2.981     37.248
         INT  0.149E+20            17823.806    114.818    139.059
         TR   0.100E+29             1481.254      4.968     44.339
         TOT                       19305.0595   119.7863   183.3976   767.3355

       T/K    H(0)-H(T)+PV         H(T)/Eh          T*S/Eh         G(T)/Eh
   ------------------------------------------------------------------------
    298.15    0.307646E-01    0.537628E+00    0.871381E-01    0.450489E+00
   ------------------------------------------------------------------------

         :::::::::::::::::::::::::::::::::::::::::::::::::::::
         ::                  THERMODYNAMIC                  ::
         :::::::::::::::::::::::::::::::::::::::::::::::::::::
         :: total free energy         -93.292850763895 Eh   ::
         ::.................................................::
         :: total energy              -93.743340201011 Eh   ::
         :: zero point energy           0.506862981445 Eh   ::
         :: G(RRHO) w/o ZPVE           -0.056373544329 Eh   ::
         :: G(RRHO) contrib.            0.450489437116 Eh   ::
         :::::::::::::::::::::::::::::::::::::::::::::::::::::

           -------------------------------------------------
          | TOTAL ENERGY              -93.743340201011 Eh   |
          | TOTAL ENTHALPY            -93.205712648960 Eh   |
          | TOTAL FREE ENERGY         -93.292850763895 Eh   |
          | GRADIENT NORM               0.000031484472 Eh/α |
          | HOMO-LUMO GAP               2.222811328801 eV   |
           -------------------------------------------------

 * finished run on 2025/09/09 at 00:01:04.908
