   * xtb version 6.7.1 (edcfbbe) compiled by 'albert@albert-system' on 2024-07-22

   ID    Z sym.   atoms
    1    6 C      1, 2, 4-8, 10-14, 16-21, 23-33, 35-40, 42-51, 53-59, 61, 62
    2    7 N      3, 9, 15, 34, 52, 60
    3    8 O      22, 41
    4    1 H      63-94

          program call               : xtb data2507/toluene/mDPBPZ-DPXZ/mDPBPZ-DPXZ_toluene_S0_finalOpt.xtbopt.xyz --gfn 2 --uhf 2 --gbsa toluene --ohess vtight --parallel 40 --molden --ceasefiles --namespace data2507/toluene/mDPBPZ-DPXZ/mDPBPZ-DPXZ_toluene_T1_preOpt
      * Solvation model:               GBSA
        Solvent                        toluene
        Solvent mass                       9.2140E+01 g/mol
          :  Hamiltonian                  GFN2-xTB          :
 * total energy  :  -157.7315171 Eh     change       -0.1591533E-07 Eh
 * total energy  :  -157.7337288 Eh     change       -0.2211714E-02 Eh
 * total energy  :  -157.7343802 Eh     change       -0.6513806E-03 Eh
 * total energy  :  -157.7344559 Eh     change       -0.7568434E-04 Eh
 * total energy  :  -157.7345053 Eh     change       -0.4938786E-04 Eh
 * total energy  :  -157.7345183 Eh     change       -0.1302869E-04 Eh
 * total energy  :  -157.7345374 Eh     change       -0.1903289E-04 Eh
 * total energy  :  -157.7345502 Eh     change       -0.1280438E-04 Eh
 * total energy  :  -157.7345602 Eh     change       -0.9993871E-05 Eh
 * total energy  :  -157.7345681 Eh     change       -0.7892467E-05 Eh
 * total energy  :  -157.7346467 Eh     change       -0.1400468E-05 Eh
 * total energy  :  -157.7346484 Eh     change       -0.1741747E-05 Eh
 * total energy  :  -157.7346503 Eh     change       -0.1893291E-05 Eh
 * total energy  :  -157.7346517 Eh     change       -0.1425193E-05 Eh
 * total energy  :  -157.7346525 Eh     change       -0.8170959E-06 Eh
 * total energy  :  -157.7346530 Eh     change       -0.4874912E-06 Eh
 * total energy  :  -157.7346534 Eh     change       -0.3383394E-06 Eh
 * total energy  :  -157.7346536 Eh     change       -0.2791285E-06 Eh
 * total energy  :  -157.7346536 Eh     change       -0.6155886E-08 Eh
   *** GEOMETRY OPTIMIZATION CONVERGED AFTER 44 ITERATIONS ***

 final structure:
================
94
 xtb: 6.7.1 (edcfbbe)
C            9.55984488880001        1.90817836468004       -1.36097210533397
C            9.69280139549399        2.98530740525540       -0.49678223058338
N            8.77304382490624        3.30971965473051        0.39850204814144
C            7.68266372427978        2.57005218655419        0.47020553109146
C            7.43810594983653        1.45783142081779       -0.33873707654956
C            6.19194880621826        0.69212533071125       -0.21337662364292
C            4.98392106514916        1.37899305376986       -0.18569302262186
C            3.76190664134753        0.71238688804369       -0.11941065632421
N            2.59905192851679        1.37285987934120       -0.09272107975690
C            1.44858800199453        0.70692322044570       -0.02837584570183
C            0.20763642409223        1.41557039939957        0.01833499450955
C            0.21825429261404        2.82026989388402       -0.02438138347485
C           -0.94487827807581        3.53986672966031        0.00345340642050
C           -2.16977811447578        2.86064523349018        0.09654975164167
N           -3.37890635356065        3.59961985600755        0.11973705784961
C           -4.28525420652371        3.51449573699058       -0.93363135836070
C           -4.08397116735287        2.67803520298824       -2.02841622557463
C           -5.01276568452263        2.61774594160542       -3.05352759411966
C           -6.15454910214627        3.39767612107405       -3.01308261507821
C           -6.36021405340710        4.25490341489054       -1.94385395048174
C           -5.43622767154269        4.31948899121334       -0.91494951534378
O           -5.69410245060218        5.20678300372252        0.09791307086431
C           -4.79993389683156        5.26650860385412        1.13499799577033
C           -5.08420852368098        6.14598323696241        2.16537759063925
C           -4.23486118209586        6.23749531741302        3.25683507240582
C           -3.11016259596798        5.43410788251797        3.31847487781860
C           -2.81840816484823        4.55436940148122        2.28993692546565
C           -3.64488692083718        4.46911133764609        1.17277273996277
C           -2.20145378742781        1.48382484415057        0.15523060168447
C           -1.02561167772468        0.72226687777922        0.10203722846986
C           -1.02791828753198       -0.71931952045861        0.11307548703684
C           -2.20710051180098       -1.47595508270478        0.16106034912033
C           -2.17982952077565       -2.85365307633834        0.12337758743916
N           -3.39315671137270       -3.58614747431533        0.12842285530998
C           -4.27253624588759       -3.50921481797339       -0.94837349719327
C           -4.03681600440750       -2.69113278431242       -2.05019345995727
C           -4.93948536849934       -2.63813603248460       -3.09874463298652
C           -6.08880247957716       -3.40756002834584       -3.07521184047236
C           -6.32806816474128       -4.24734242176325       -1.99916313061859
C           -5.43039430879613       -4.30443456013595       -0.94676212547941
O           -5.72063987063385       -5.17480485205904        0.07200350007386
C           -4.85007233761524       -5.23051652321099        1.12919086489733
C           -5.16448286417868       -6.09644897696954        2.16227180530809
C           -4.33992780554005       -6.18359474829423        3.27292214575288
C           -3.20996002168672       -5.38908442651049        3.35087991835939
C           -2.88831087701793       -4.52259116298696        2.32000760178287
C           -3.68943547175509       -4.44220152653525        1.18419149506077
C           -0.95606795709332       -3.53860169267611        0.06341021238775
C            0.20988806580501       -2.82332755127108        0.03887687733279
C            0.20371157034774       -1.41799273610533        0.05275365340743
C            1.44693559041309       -0.71414462771903       -0.00567742646937
N            2.59623500442269       -1.38418993522432       -0.04442852249171
C            3.76038881764101       -0.72730971380062       -0.09201646318733
C            4.98199571282747       -1.39770563793450       -0.11357577834985
C            6.19123158831477       -0.71428858318763       -0.16193040120284
C            7.43953071139563       -1.48470595010847       -0.10554206476681
C            8.46204293497819       -1.17174001566652        0.79083654754026
C            9.60667895917913       -1.94826212676006        0.80934374056611
C            9.69245662782913       -3.02155270230683       -0.06558617071559
N            8.72832621455458       -3.33828160897913       -0.91574650729891
C            7.63872745289180       -2.59409619549304       -0.93040318033354
C            8.41457726115202        1.13635987006024       -1.28234210340128
H           10.33035570783369        1.68351964349494       -2.08232556077605
H           10.56781451730129        3.62172046486525       -0.51809142323628
H            6.96593280745937        2.86585570223978        1.22661679561609
H            4.97274430737350        2.45739320306182       -0.23944396593472
H            1.17730405625419        3.31025620876018       -0.09409038985775
H           -0.93448618778520        4.61794203968897       -0.04905694527784
H           -3.18951874030044        2.07827951057055       -2.08023594661938
H           -4.83387505937244        1.95756409383255       -3.88785601955637
H           -6.87997540022972        3.35124027502293       -3.80960537333610
H           -7.23090270317483        4.88891498649164       -1.88832990101789
H           -5.97709998090775        6.74654223336090        2.09361255547516
H           -4.46081676468900        6.92690051083490        4.05469554996005
H           -2.45149573244782        5.48481790935528        4.17157316294722
H           -1.94452857989104        3.92549108140218        2.35163094433360
H           -3.16230553377140        1.00203155489416        0.24088114377934
H           -3.16765273977195       -0.98957161584416        0.22025475238364
H           -3.13592713014489       -2.10007159993452       -2.08923381458595
H           -4.73381482727142       -1.99239255791656       -3.93820287643351
H           -6.79419801608481       -3.36667489983186       -3.88980500517552
H           -7.20516392933678       -4.87344307262761       -1.95641496751240
H           -6.06079962230843       -6.69015880369651        2.07734567669260
H           -4.58914253456317       -6.86277570953072        4.07261113023294
H           -2.57045130532215       -5.43656292920755        4.21862529159925
H           -2.01085806114966       -3.90009765147513        2.39433195698963
H           -0.94858924600479       -4.61746524471984        0.03000073135077
H            1.16796202486795       -3.31777601556365       -0.00941777211734
H            4.97144050944305       -2.47605743274997       -0.05787980227220
H            8.34960480944662       -0.33881921833236        1.47054220978524
H           10.41254261420055       -1.73032234634729        1.49315637045154
H           10.56483095755950       -3.66145952026053       -0.09038609640098
H            6.88370891288766       -2.88370703746875       -1.65114118781452
H            8.26667818320484        0.30042122527711       -1.95142175205655

          :  Hamiltonian                  GFN2-xTB          :
         :: gradient norm              0.000057596165 Eh/a0 ::
         :: HOMO-LUMO gap              0.812424240333 eV    ::
         :: SCC energy              -160.480767830438 Eh    ::
         :: -> dispersion             -0.139312192234 Eh    ::
         :: -> Gsolv                  -0.068639196394 Eh    ::
         :: repulsion energy           2.746114182157 Eh    ::

    * Orbital Energies and Occupations

         #    Occupation            Energy/Eh            Energy/eV
      -------------------------------------------------------------
         1        2.0000           -0.7431448             -20.2220
       ...           ...                  ...                  ...
       134        2.0000           -0.4157696             -11.3137
       135        2.0000           -0.4108034             -11.1785
       136        2.0000           -0.4019105             -10.9365
       137        2.0000           -0.4010875             -10.9141
       138        2.0000           -0.4007105             -10.9039
       139        2.0000           -0.3920649             -10.6686
       140        2.0000           -0.3862418             -10.5102
       141        2.0000           -0.3720699             -10.1245
       142        2.0000           -0.3715030             -10.1091
       143        1.8552           -0.3538929              -9.6299
       144        1.8351           -0.3537468              -9.6259
       145        1.3098           -0.3514446              -9.5633
       146        1.0000           -0.3032997              -8.2532 (HOMO)
       147        0.0000           -0.2734438              -7.4408 (LUMO)
       148                         -0.2617705              -7.1231
       149                         -0.2554879              -6.9522
       150                         -0.2506279              -6.8199
       151                         -0.2498069              -6.7976
       152                         -0.2496859              -6.7943
       153                         -0.2491638              -6.7801
       154                         -0.2395933              -6.5197
       155                         -0.2394244              -6.5151
       156                         -0.2390798              -6.5057
       157                         -0.2290576              -6.2330
       ...                                ...                  ...
       280                          0.7054745              19.1969
      -------------------------------------------------------------
                  HL-Gap            0.0298559 Eh            0.8124 eV

     #   Z          covCN         q      C6AA      α(0)
     1   6 C        2.911    -0.040    28.998     8.830
     2   6 C        2.913     0.056    26.740     8.479
     3   7 N        1.835    -0.239    27.096     7.714
     4   6 C        2.917     0.055    26.756     8.482
     5   6 C        2.973     0.004    27.937     8.670
     6   6 C        2.974    -0.006    28.161     8.705
     7   6 C        2.924    -0.068    29.692     8.936
     8   6 C        2.943     0.085    26.100     8.379
     9   7 N        1.848    -0.264    27.707     7.801
    10   6 C        2.945     0.079    26.234     8.401
    11   6 C        2.987    -0.011    28.281     8.723
    12   6 C        2.923    -0.028    28.699     8.785
    13   6 C        2.917    -0.043    29.071     8.842
    14   6 C        2.920     0.056    26.745     8.481
    15   7 N        2.752    -0.048    22.171     6.993
    16   6 C        2.922     0.044    27.019     8.524
    17   6 C        2.922    -0.056    29.399     8.892
    18   6 C        2.918    -0.034    28.852     8.808
    19   6 C        2.919    -0.035    28.874     8.812
    20   6 C        2.918    -0.054    29.353     8.884
    21   6 C        2.884     0.126    25.226     8.234
    22   8 O        1.709    -0.250    18.142     5.751
    23   6 C        2.883     0.126    25.227     8.234
    24   6 C        2.918    -0.055    29.359     8.885
    25   6 C        2.919    -0.035    28.871     8.811
    26   6 C        2.918    -0.034    28.851     8.808
    27   6 C        2.922    -0.055    29.365     8.887
    28   6 C        2.924     0.044    27.008     8.522
    29   6 C        2.922    -0.047    29.158     8.855
    30   6 C        2.977    -0.001    28.041     8.686
    31   6 C        2.977    -0.001    28.042     8.686
    32   6 C        2.922    -0.047    29.158     8.855
    33   6 C        2.919     0.056    26.746     8.481
    34   7 N        2.752    -0.048    22.171     6.993
    35   6 C        2.922     0.044    27.019     8.524
    36   6 C        2.922    -0.056    29.398     8.891
    37   6 C        2.918    -0.034    28.851     8.808
    38   6 C        2.919    -0.035    28.874     8.812
    39   6 C        2.918    -0.054    29.353     8.884
    40   6 C        2.884     0.126    25.226     8.234
    41   8 O        1.709    -0.250    18.142     5.751
    42   6 C        2.883     0.126    25.227     8.234
    43   6 C        2.918    -0.055    29.359     8.885
    44   6 C        2.919    -0.035    28.872     8.811
    45   6 C        2.918    -0.034    28.852     8.808
    46   6 C        2.922    -0.055    29.366     8.887
    47   6 C        2.923     0.044    27.007     8.522
    48   6 C        2.917    -0.043    29.071     8.842
    49   6 C        2.923    -0.028    28.699     8.785
    50   6 C        2.986    -0.011    28.282     8.724
    51   6 C        2.945     0.079    26.235     8.401
    52   7 N        1.848    -0.264    27.708     7.801
    53   6 C        2.943     0.085    26.099     8.379
    54   6 C        2.924    -0.068    29.691     8.936
    55   6 C        2.974    -0.006    28.160     8.705
    56   6 C        2.973     0.004    27.933     8.669
    57   6 C        2.933    -0.016    28.403     8.740
    58   6 C        2.911    -0.040    28.997     8.830
    59   6 C        2.913     0.056    26.740     8.479
    60   7 N        1.835    -0.239    27.090     7.713
    61   6 C        2.917     0.055    26.756     8.482
    62   6 C        2.932    -0.016    28.404     8.740
    63   1 H        0.926     0.041     2.432     2.439
    64   1 H        0.925     0.038     2.471     2.458
    65   1 H        0.925     0.035     2.516     2.480
    66   1 H        0.926     0.038     2.471     2.458
    67   1 H        0.926     0.054     2.269     2.355
    68   1 H        0.926     0.046     2.373     2.409
    69   1 H        0.926     0.048     2.347     2.396
    70   1 H        0.926     0.050     2.321     2.382
    71   1 H        0.926     0.051     2.307     2.375
    72   1 H        0.926     0.056     2.243     2.342
    73   1 H        0.926     0.056     2.242     2.342
    74   1 H        0.926     0.050     2.314     2.379
    75   1 H        0.926     0.049     2.336     2.390
    76   1 H        0.926     0.047     2.359     2.402
    77   1 H        0.926     0.050     2.323     2.384
    78   1 H        0.926     0.050     2.324     2.384
    79   1 H        0.926     0.048     2.349     2.397
    80   1 H        0.926     0.050     2.322     2.383
    81   1 H        0.926     0.051     2.307     2.375
    82   1 H        0.926     0.056     2.243     2.342
    83   1 H        0.926     0.056     2.242     2.342
    84   1 H        0.926     0.050     2.315     2.379
    85   1 H        0.926     0.049     2.337     2.391
    86   1 H        0.926     0.047     2.358     2.401
    87   1 H        0.926     0.046     2.373     2.409
    88   1 H        0.926     0.054     2.269     2.356
    89   1 H        0.926     0.038     2.472     2.459
    90   1 H        0.926     0.032     2.556     2.500
    91   1 H        0.926     0.041     2.430     2.438
    92   1 H        0.925     0.038     2.469     2.457
    93   1 H        0.925     0.035     2.515     2.480
    94   1 H        0.926     0.032     2.556     2.500

molecular dipole:
                 x           y           z       tot (Debye)
 q only:       -4.348       0.004       0.133
   full:       -4.205       0.002       0.144      10.694

 projected vibrational frequencies (cm⁻¹)
eigval :       -0.00    -0.00    -0.00     0.00     0.00     0.00
eigval :        6.80    12.76    14.51    17.47    19.72    24.90
eigval :       30.12    39.01    41.48    44.61    49.30    57.62
eigval :       59.33    65.57    82.57    84.53    89.48    92.30
eigval :      106.96   109.16   115.38   122.30   127.21   144.73
eigval :      151.91   186.85   189.69   207.90   215.63   229.48
eigval :      235.88   239.90   241.35   246.02   248.43   264.22
eigval :      267.98   287.61   291.10   298.02   304.40   311.84
eigval :      344.68   351.01   372.80   373.81   378.19   379.60
eigval :      384.52   391.49   397.25   417.16   418.38   419.59
eigval :      429.00   430.03   435.59   437.20   445.50   447.91
eigval :      455.81   472.07   475.71   491.86   503.67   504.37
eigval :      506.05   512.60   517.52   526.23   527.71   533.81
eigval :      558.17   566.61   569.89   576.88   580.83   581.75
eigval :      596.35   596.49   602.20   616.01   622.18   623.98
eigval :      625.63   636.80   657.66   658.56   663.24   664.03
eigval :      665.70   667.05   669.55   681.95   689.81   693.05
eigval :      694.26   698.33   703.66   722.92   733.32   734.27
eigval :      763.78   772.58   778.16   778.28   780.68   785.74
eigval :      786.84   798.87   819.11   821.82   822.75   824.52
eigval :      824.88   854.05   854.23   855.52   856.84   863.77
eigval :      868.98   869.24   869.61   879.59   898.06   899.44
eigval :      899.93   901.34   901.86   902.22   903.06   910.40
eigval :      911.00   911.11   914.84   915.26   915.86   916.03
eigval :      916.21   918.40   920.03   927.94   929.96   938.83
eigval :      959.78   993.75   997.69  1017.31  1038.32  1064.37
eigval :     1079.22  1085.45  1086.41  1086.71  1087.68  1093.04
eigval :     1094.40  1109.39  1110.02  1115.42  1121.24  1136.12
eigval :     1136.97  1145.13  1146.17  1164.66  1166.15  1170.93
eigval :     1172.13  1178.91  1182.03  1190.18  1194.21  1196.79
eigval :     1199.95  1201.94  1202.26  1202.94  1223.27  1227.12
eigval :     1238.35  1238.79  1239.24  1246.97  1249.28  1254.52
eigval :     1256.13  1260.86  1263.33  1263.93  1274.54  1280.48
eigval :     1284.34  1287.89  1292.43  1295.30  1304.84  1307.17
eigval :     1308.83  1313.27  1320.14  1322.09  1337.52  1338.45
eigval :     1345.65  1354.80  1357.78  1397.31  1398.13  1400.04
eigval :     1402.40  1411.41  1417.57  1419.13  1420.81  1439.23
eigval :     1440.70  1450.75  1451.27  1455.33  1455.93  1456.57
eigval :     1468.51  1471.56  1475.13  1487.42  1500.98  1510.71
eigval :     1526.60  1530.99  1553.44  1554.27  1559.97  1560.07
eigval :     1563.73  1566.34  1568.04  1568.30  1571.21  1573.60
eigval :     1576.58  1578.61  1588.73  1591.34  3045.62  3046.10
eigval :     3055.68  3055.85  3069.95  3070.59  3083.93  3084.55
eigval :     3089.53  3089.64  3090.06  3090.34  3092.27  3092.33
eigval :     3093.07  3093.80  3099.65  3100.86  3100.90  3100.97
eigval :     3101.18  3101.77  3102.07  3108.32  3108.48  3109.05
eigval :     3109.18  3110.31  3112.74  3112.86  3112.90  3113.58

   temp. (K)  partition function   enthalpy   heat capacity  entropy
                                   cal/mol     cal/K/mol   cal/K/mol   J/K/mol
 298.15  VIB  0.160E+23            28013.057    177.344    174.363
         ROT  0.225E+09              888.752      2.981     41.196
         INT  0.360E+31            28901.809    180.325    215.559
         TR   0.218E+29             1481.254      4.968     45.884
         TOT                       30383.0629   185.2932   261.4425  1093.8754

       T/K    H(0)-H(T)+PV         H(T)/Eh          T*S/Eh         G(T)/Eh
   ------------------------------------------------------------------------
    298.15    0.484185E-01    0.742612E+00    0.124220E+00    0.618392E+00
   ------------------------------------------------------------------------

         :::::::::::::::::::::::::::::::::::::::::::::::::::::
         ::                  THERMODYNAMIC                  ::
         :::::::::::::::::::::::::::::::::::::::::::::::::::::
         :: total free energy        -157.116261335833 Eh   ::
         ::.................................................::
         :: total energy             -157.734653643799 Eh   ::
         :: zero point energy           0.694193578491 Eh   ::
         :: G(RRHO) w/o ZPVE           -0.075801270525 Eh   ::
         :: G(RRHO) contrib.            0.618392307966 Eh   ::
         :::::::::::::::::::::::::::::::::::::::::::::::::::::

           -------------------------------------------------
          | TOTAL ENERGY             -157.734653643799 Eh   |
          | TOTAL ENTHALPY           -156.992041572582 Eh   |
          | TOTAL FREE ENERGY        -157.116261335833 Eh   |
          | GRADIENT NORM               0.000063420198 Eh/α |
          | HOMO-LUMO GAP               0.812419152737 eV   |
           -------------------------------------------------

 * finished run on 2025/08/22 at 19:11:58.864
