   * xtb version 6.7.1 (edcfbbe) compiled by 'albert@albert-system' on 2024-07-22

   ID    Z sym.   atoms
    1    6 C      1, 2, 4-8, 10-14, 16-21, 23-33, 35-40, 42-51, 53-59, 61, 62
    2    7 N      3, 9, 15, 34, 52, 60
    3    8 O      22, 41
    4    1 H      63-94

          program call               : xtb data2507/toluene/mDPBPZ-DPXZ/mDPBPZ-DPXZ_toluene_T1_crest.xyz --gfn 2 --uhf 2 --gbsa toluene --ohess vtight --parallel 40 --molden --ceasefiles --namespace data2507/toluene/mDPBPZ-DPXZ/mDPBPZ-DPXZ_toluene_T1_finalOpt
      * Solvation model:               GBSA
        Solvent                        toluene
        Solvent mass                       9.2140E+01 g/mol
          :  Hamiltonian                  GFN2-xTB          :
 * total energy  :  -157.7344629 Eh     change        0.7836803E-08 Eh
 * total energy  :  -157.7345634 Eh     change       -0.1004398E-03 Eh
 * total energy  :  -157.7346137 Eh     change       -0.5029835E-04 Eh
 * total energy  :  -157.7346227 Eh     change       -0.9075672E-05 Eh
 * total energy  :  -157.7346288 Eh     change       -0.6119704E-05 Eh
 * total energy  :  -157.7346353 Eh     change       -0.6431078E-05 Eh
 * total energy  :  -157.7346419 Eh     change       -0.6653523E-05 Eh
 * total energy  :  -157.7346458 Eh     change       -0.3865576E-05 Eh
 * total energy  :  -157.7346476 Eh     change       -0.1772321E-05 Eh
 * total energy  :  -157.7346496 Eh     change       -0.2022408E-05 Eh
 * total energy  :  -157.7346637 Eh     change       -0.4283107E-06 Eh
 * total energy  :  -157.7346635 Eh     change        0.2514586E-06 Eh
 * total energy  :  -157.7346639 Eh     change       -0.3863477E-06 Eh
 * total energy  :  -157.7346637 Eh     change        0.2008781E-06 Eh
 * total energy  :  -157.7346640 Eh     change       -0.3260193E-06 Eh
 * total energy  :  -157.7346641 Eh     change       -0.1079239E-06 Eh
 * total energy  :  -157.7346643 Eh     change       -0.2049865E-06 Eh
 * total energy  :  -157.7346645 Eh     change       -0.1641022E-06 Eh
 * total energy  :  -157.7346645 Eh     change       -0.2664032E-07 Eh
   *** GEOMETRY OPTIMIZATION CONVERGED AFTER 31 ITERATIONS ***

 final structure:
================
94
 xtb: 6.7.1 (edcfbbe)
C            9.56461671738428        1.92592861783178       -1.29543096605861
C            9.69950813739227        2.99197061080662       -0.41788050580399
N            8.78118069958507        3.30576390932452        0.48262691487961
C            7.69026716426312        2.56609853452213        0.54640993842129
C            7.44387709683499        1.46434920825435       -0.27610536105619
C            6.19730518206576        0.69791229735219       -0.15976760351072
C            4.98948606428742        1.38482766185869       -0.12396362188921
C            3.76714479131513        0.71779227612869       -0.06950529764813
N            2.60419056468466        1.37809884092832       -0.03992217123324
C            1.45333203996429        0.71149656158281        0.00854191933765
C            0.21157941963697        1.41930308220681        0.04829777805905
C            0.22163797532348        2.82425026344362        0.01363660858785
C           -0.94243536184981        3.54291430512455        0.02505581835146
C           -2.16814025527236        2.86216244954246        0.09246159188136
N           -3.37935214768596        3.59812296674132        0.08895475019057
C           -4.25989231980259        3.51038592953668       -0.98596559119351
C           -4.02606140184472        2.68002780831087       -2.07897256308179
C           -4.92975159192315        2.61669409754559       -3.12608619666242
C           -6.07808535490119        3.38778455730770       -3.10993264341988
C           -6.31558462531043        4.23934086240271       -2.04273923190289
C           -5.41702188963617        4.30666417316325       -0.99171420831782
O           -5.70582083593515        5.18747749387439        0.01847301962764
C           -4.83419337150031        5.25356561954637        1.07423699876039
C           -5.14722577518861        6.13009022779643        2.09876766999301
C           -4.32158218402138        6.22810062690449        3.20771891452205
C           -3.19177562410927        5.43407396105945        3.29256452227168
C           -2.87151550520083        4.55699143772270        2.27024469951787
C           -3.67388988336797        4.46527799213771        1.13616841536389
C           -2.19937589142691        1.48516604498471        0.14753513578481
C           -1.02216586444110        0.72478863703132        0.11257773882617
C           -1.02376198452934       -0.71681268151881        0.11998911037391
C           -2.20256752812439       -1.47439085018550        0.16199808680577
C           -2.17406514313825       -2.85191972006697        0.12049069866584
N           -3.38666104807893       -3.58560330766307        0.12263149355169
C           -4.26487431976433       -3.50801227139964       -0.95499747989092
C           -4.02896090909185       -2.68757982978231       -2.05502333833663
C           -4.93037642475452       -2.63413635072131       -3.10463454448787
C           -6.07846244118996       -3.40547601522291       -3.08391800201613
C           -6.31794588246639       -4.24740271790564       -2.00955701037150
C           -5.42162815141129       -4.30484934626145       -0.95603200408727
O           -5.71200187424866       -5.17699808867380        0.06122225033232
C           -4.84259618550657       -5.23322675335723        1.11936138360147
C           -5.15704284736577       -6.10097710018730        2.15090903800051
C           -4.33347818196010       -6.18875444791068        3.26226725376045
C           -3.20446028350824       -5.39313103943417        3.34251509659028
C           -2.88283098421941       -4.52474023220860        2.31324481561226
C           -3.68295239560292       -4.44363652788220        1.17677197088759
C           -0.94970180010569       -3.53586046276283        0.06097919994747
C            0.21581548329844       -2.81975019434747        0.04323591597772
C            0.20854027185573       -1.41448631709571        0.06340634123878
C            1.45167759824065       -0.70974014655997        0.01643283485820
N            2.60108198098144       -1.37944427811899       -0.02460163282030
C            3.76533801070669       -0.72216042758115       -0.06088580890957
C            4.98673298455338       -1.39266406026985       -0.08892129912092
C            6.19615847676779       -0.70905350043411       -0.12715625642652
C            7.44432858415962       -1.48032255377817       -0.08056601019521
C            8.46616174955876       -1.17974356013714        0.82080940213619
C            9.61096579912127       -1.95616774930300        0.82914265389180
C            9.69757101844992       -3.01697822434393       -0.06081224511550
N            8.73404548655265       -3.32201328117293       -0.91590739508160
C            7.64422901360146       -2.57798379591306       -0.92075519526654
C            8.41892431568425        1.15401550155439       -1.22494384135819
H           10.33392025494261        1.70988816166453       -2.02069359503050
H           10.57492922165905        3.62802035069450       -0.43243066912458
H            6.97472874444328        2.85287082778126        1.30742321436891
H            4.97877870808259        2.46385045733644       -0.16348759478525
H            1.18125071600207        3.31530675865415       -0.03859684095533
H           -0.93204822233669        4.62118884513843       -0.02312263685443
H           -3.12593223197176        2.08742570048476       -2.11219646045145
H           -4.72575532561525        1.96132674922507       -3.95844991139515
H           -6.78420199281493        3.33890091583448       -3.92346917269837
H           -7.19210695575258        4.86663038293387       -2.00597394206385
H           -6.04338625917150        6.72327372317124        2.00868865964533
H           -4.56981068420162        6.91527457044032        4.00086023046233
H           -2.55135115183446        5.49011099745668        4.15911754490739
H           -1.99416329834244        3.93506740034438        2.35013677344620
H           -3.16133073244536        1.00230402275681        0.21231834700020
H           -3.16358395272216       -0.98896290365316        0.22136393767569
H           -3.12893010606737       -2.09504983418376       -2.09174590658148
H           -4.72475272408294       -1.98648220635736       -3.94262157384950
H           -6.78284322000950       -3.36432691891079       -3.89937796305257
H           -7.19421555428540       -4.87481554489118       -1.96913263576971
H           -6.05257383565587       -6.69563174413950        2.06434807673859
H           -4.58270788497875       -6.86931527828157        4.06077778467066
H           -2.56573523062853       -5.44113839087287        4.21081010140701
H           -2.00617090524226       -3.90135174252224        2.38935263415813
H           -0.94149976354188       -4.61458986569834        0.02369294454020
H            1.17447972262441       -3.31321980451162       -0.00322340318747
H            4.97573132651879       -2.47165327041267       -0.04749034350321
H            8.35299113414428       -0.35639086131157        1.51196787842216
H           10.41637945505012       -1.74767243540385        1.51640941426530
H           10.57019251952133       -3.65616245310915       -0.09416183352828
H            6.88969677789693       -2.85766856072166       -1.64591472841504
H            8.26960786073336        0.32656903883699       -1.90419827770683

          :  Hamiltonian                  GFN2-xTB          :
         :: gradient norm              0.000082495517 Eh/a0 ::
         :: HOMO-LUMO gap              0.812288709181 eV    ::
         :: SCC energy              -160.480805296481 Eh    ::
         :: -> dispersion             -0.139311377957 Eh    ::
         :: -> Gsolv                  -0.068640779128 Eh    ::
         :: repulsion energy           2.746140803208 Eh    ::

    * Orbital Energies and Occupations

         #    Occupation            Energy/Eh            Energy/eV
      -------------------------------------------------------------
         1        2.0000           -0.7431402             -20.2219
       ...           ...                  ...                  ...
       134        2.0000           -0.4157681             -11.3136
       135        2.0000           -0.4108122             -11.1788
       136        2.0000           -0.4019149             -10.9367
       137        2.0000           -0.4010908             -10.9142
       138        2.0000           -0.4007216             -10.9042
       139        2.0000           -0.3920628             -10.6686
       140        2.0000           -0.3862494             -10.5104
       141        2.0000           -0.3720690             -10.1245
       142        2.0000           -0.3715005             -10.1090
       143        1.8550           -0.3538951              -9.6300
       144        1.8350           -0.3537497              -9.6260
       145        1.3100           -0.3514488              -9.5634
       146        1.0000           -0.3032957              -8.2531 (HOMO)
       147        0.0000           -0.2734448              -7.4408 (LUMO)
       148                         -0.2617728              -7.1232
       149                         -0.2554695              -6.9517
       150                         -0.2506447              -6.8204
       151                         -0.2498093              -6.7977
       152                         -0.2496914              -6.7944
       153                         -0.2491679              -6.7802
       154                         -0.2395918              -6.5196
       155                         -0.2394306              -6.5152
       156                         -0.2390766              -6.5056
       157                         -0.2290549              -6.2329
       ...                                ...                  ...
       280                          0.7055000              19.1976
      -------------------------------------------------------------
                  HL-Gap            0.0298509 Eh            0.8123 eV

     #   Z          covCN         q      C6AA      α(0)
     1   6 C        2.911    -0.040    28.998     8.830
     2   6 C        2.913     0.056    26.740     8.479
     3   7 N        1.835    -0.239    27.096     7.714
     4   6 C        2.917     0.055    26.756     8.482
     5   6 C        2.973     0.004    27.937     8.670
     6   6 C        2.974    -0.006    28.162     8.705
     7   6 C        2.924    -0.068    29.692     8.936
     8   6 C        2.943     0.085    26.100     8.379
     9   7 N        1.848    -0.264    27.708     7.801
    10   6 C        2.945     0.079    26.234     8.401
    11   6 C        2.986    -0.011    28.281     8.723
    12   6 C        2.923    -0.028    28.699     8.785
    13   6 C        2.917    -0.043    29.071     8.842
    14   6 C        2.920     0.056    26.746     8.481
    15   7 N        2.752    -0.048    22.170     6.993
    16   6 C        2.922     0.044    27.019     8.524
    17   6 C        2.922    -0.056    29.398     8.891
    18   6 C        2.918    -0.034    28.851     8.808
    19   6 C        2.919    -0.035    28.874     8.812
    20   6 C        2.918    -0.054    29.353     8.884
    21   6 C        2.884     0.126    25.226     8.234
    22   8 O        1.709    -0.250    18.142     5.751
    23   6 C        2.883     0.126    25.227     8.234
    24   6 C        2.918    -0.055    29.358     8.885
    25   6 C        2.919    -0.035    28.871     8.811
    26   6 C        2.918    -0.034    28.851     8.808
    27   6 C        2.922    -0.055    29.366     8.887
    28   6 C        2.923     0.044    27.007     8.522
    29   6 C        2.922    -0.047    29.157     8.855
    30   6 C        2.977    -0.001    28.041     8.686
    31   6 C        2.977    -0.001    28.042     8.686
    32   6 C        2.922    -0.047    29.157     8.855
    33   6 C        2.920     0.056    26.746     8.481
    34   7 N        2.752    -0.048    22.171     6.993
    35   6 C        2.922     0.044    27.019     8.524
    36   6 C        2.922    -0.056    29.398     8.891
    37   6 C        2.918    -0.034    28.851     8.808
    38   6 C        2.919    -0.035    28.874     8.812
    39   6 C        2.918    -0.054    29.353     8.884
    40   6 C        2.884     0.126    25.226     8.234
    41   8 O        1.709    -0.250    18.142     5.751
    42   6 C        2.883     0.126    25.227     8.234
    43   6 C        2.918    -0.055    29.359     8.885
    44   6 C        2.919    -0.035    28.872     8.811
    45   6 C        2.918    -0.034    28.852     8.808
    46   6 C        2.922    -0.055    29.367     8.887
    47   6 C        2.923     0.044    27.007     8.522
    48   6 C        2.917    -0.043    29.071     8.842
    49   6 C        2.923    -0.028    28.699     8.785
    50   6 C        2.987    -0.011    28.282     8.724
    51   6 C        2.945     0.079    26.235     8.401
    52   7 N        1.848    -0.264    27.708     7.801
    53   6 C        2.943     0.085    26.098     8.379
    54   6 C        2.924    -0.068    29.691     8.936
    55   6 C        2.974    -0.006    28.160     8.705
    56   6 C        2.973     0.004    27.933     8.669
    57   6 C        2.933    -0.016    28.403     8.740
    58   6 C        2.912    -0.040    28.997     8.830
    59   6 C        2.913     0.056    26.740     8.479
    60   7 N        1.835    -0.239    27.090     7.713
    61   6 C        2.917     0.055    26.756     8.482
    62   6 C        2.933    -0.016    28.404     8.741
    63   1 H        0.926     0.041     2.432     2.439
    64   1 H        0.925     0.038     2.471     2.458
    65   1 H        0.925     0.035     2.516     2.480
    66   1 H        0.926     0.038     2.471     2.458
    67   1 H        0.926     0.054     2.269     2.355
    68   1 H        0.926     0.046     2.372     2.409
    69   1 H        0.926     0.048     2.349     2.397
    70   1 H        0.926     0.050     2.321     2.383
    71   1 H        0.926     0.051     2.307     2.375
    72   1 H        0.926     0.056     2.243     2.342
    73   1 H        0.926     0.056     2.242     2.342
    74   1 H        0.926     0.050     2.314     2.379
    75   1 H        0.926     0.049     2.336     2.390
    76   1 H        0.926     0.047     2.358     2.401
    77   1 H        0.926     0.050     2.324     2.384
    78   1 H        0.926     0.050     2.324     2.384
    79   1 H        0.926     0.048     2.348     2.396
    80   1 H        0.926     0.050     2.321     2.383
    81   1 H        0.926     0.051     2.307     2.375
    82   1 H        0.926     0.056     2.243     2.342
    83   1 H        0.926     0.056     2.242     2.342
    84   1 H        0.926     0.050     2.315     2.379
    85   1 H        0.926     0.049     2.337     2.391
    86   1 H        0.926     0.047     2.359     2.402
    87   1 H        0.926     0.046     2.373     2.409
    88   1 H        0.926     0.054     2.269     2.355
    89   1 H        0.926     0.038     2.472     2.459
    90   1 H        0.926     0.032     2.556     2.500
    91   1 H        0.926     0.041     2.430     2.438
    92   1 H        0.925     0.038     2.469     2.457
    93   1 H        0.925     0.035     2.515     2.480
    94   1 H        0.926     0.032     2.556     2.500

molecular dipole:
                 x           y           z       tot (Debye)
 q only:       -4.348       0.003       0.100
   full:       -4.207       0.000       0.113      10.697

 projected vibrational frequencies (cm⁻¹)
eigval :       -0.00    -0.00    -0.00    -0.00    -0.00     0.00
eigval :        8.96    13.65    14.61    17.70    19.77    25.00
eigval :       29.71    38.62    43.01    44.60    50.49    57.72
eigval :       59.65    65.31    81.65    83.51    88.91    92.36
eigval :      107.06   108.83   115.56   121.36   127.07   143.60
eigval :      152.32   186.51   189.77   207.84   215.77   229.41
eigval :      235.45   239.51   241.64   246.75   248.81   264.93
eigval :      268.22   288.13   290.72   297.38   303.84   311.36
eigval :      344.01   350.22   372.50   373.59   377.90   379.47
eigval :      383.36   391.42   397.22   417.29   417.99   419.35
eigval :      429.41   430.27   435.39   436.84   446.02   447.82
eigval :      455.46   471.58   475.74   491.91   503.95   504.48
eigval :      505.62   512.25   517.59   526.20   527.75   533.65
eigval :      558.26   566.38   570.01   576.88   580.85   581.70
eigval :      596.23   596.37   602.20   616.11   622.15   623.26
eigval :      625.40   636.65   656.75   658.61   663.42   664.30
eigval :      665.95   667.03   669.43   681.32   689.67   692.93
eigval :      693.88   698.32   703.69   721.90   733.33   734.31
eigval :      763.82   775.49   778.88   780.51   781.15   785.56
eigval :      787.12   798.82   819.08   821.53   822.57   824.05
eigval :      824.94   853.99   854.13   855.55   856.98   865.01
eigval :      869.11   869.53   869.91   879.24   898.17   900.61
eigval :      900.86   900.97   902.37   903.06   903.53   909.64
eigval :      911.04   913.33   914.97   915.37   915.86   916.08
eigval :      916.44   919.82   920.48   927.38   931.09   938.83
eigval :      959.76   993.75   997.64  1017.32  1038.23  1064.30
eigval :     1079.21  1085.46  1085.78  1086.50  1087.19  1093.09
eigval :     1094.44  1109.82  1110.14  1115.28  1121.15  1136.32
eigval :     1137.38  1144.91  1146.13  1164.86  1166.26  1171.33
eigval :     1172.52  1179.38  1182.36  1190.39  1194.46  1196.86
eigval :     1200.06  1201.83  1202.34  1202.63  1223.15  1227.04
eigval :     1238.32  1238.50  1239.16  1247.03  1249.23  1254.26
eigval :     1255.36  1260.86  1263.62  1264.04  1274.57  1280.44
eigval :     1284.29  1287.85  1292.33  1295.36  1304.82  1307.14
eigval :     1308.79  1313.28  1320.16  1322.11  1337.37  1338.49
eigval :     1345.72  1354.76  1357.80  1397.44  1398.09  1400.04
eigval :     1402.50  1411.41  1417.94  1419.38  1420.79  1439.63
eigval :     1440.93  1450.79  1451.25  1455.22  1455.74  1456.58
eigval :     1468.31  1471.56  1474.97  1487.37  1501.00  1510.69
eigval :     1526.54  1530.96  1553.44  1554.28  1560.03  1560.05
eigval :     1563.68  1566.34  1568.20  1568.36  1571.19  1573.67
eigval :     1576.53  1578.63  1588.79  1591.44  3045.54  3045.92
eigval :     3055.42  3055.85  3069.85  3070.71  3083.74  3084.54
eigval :     3089.49  3089.63  3090.10  3090.37  3092.31  3092.60
eigval :     3093.07  3093.83  3099.57  3100.90  3100.94  3101.02
eigval :     3101.14  3101.67  3101.89  3108.38  3108.46  3108.89
eigval :     3108.98  3110.23  3112.78  3112.84  3112.92  3113.53

   temp. (K)  partition function   enthalpy   heat capacity  entropy
                                   cal/mol     cal/K/mol   cal/K/mol   J/K/mol
 298.15  VIB  0.112E+23            28012.423    177.379    174.090
         ROT  0.225E+09              888.752      2.981     41.196
         INT  0.252E+31            28901.175    180.360    215.286
         TR   0.218E+29             1481.254      4.968     45.884
         TOT                       30382.4291   185.3282   261.1696  1092.7336

       T/K    H(0)-H(T)+PV         H(T)/Eh          T*S/Eh         G(T)/Eh
   ------------------------------------------------------------------------
    298.15    0.484175E-01    0.742628E+00    0.124090E+00    0.618538E+00
   ------------------------------------------------------------------------

         :::::::::::::::::::::::::::::::::::::::::::::::::::::
         ::                  THERMODYNAMIC                  ::
         :::::::::::::::::::::::::::::::::::::::::::::::::::::
         :: total free energy        -157.116126330194 Eh   ::
         ::.................................................::
         :: total energy             -157.734664489010 Eh   ::
         :: zero point energy           0.694210777621 Eh   ::
         :: G(RRHO) w/o ZPVE           -0.075672618805 Eh   ::
         :: G(RRHO) contrib.            0.618538158816 Eh   ::
         :::::::::::::::::::::::::::::::::::::::::::::::::::::

           -------------------------------------------------
          | TOTAL ENERGY             -157.734664489010 Eh   |
          | TOTAL ENTHALPY           -156.992036228718 Eh   |
          | TOTAL FREE ENERGY        -157.116126330194 Eh   |
          | GRADIENT NORM               0.000085321752 Eh/α |
          | HOMO-LUMO GAP               0.812284930916 eV   |
           -------------------------------------------------

 * finished run on 2025/08/22 at 19:19:37.173
