   * xtb version 6.7.1 (edcfbbe) compiled by 'albert@albert-system' on 2024-07-22

   ID    Z sym.   atoms
    1    6 C      1, 2, 4-8, 10-14, 16-21, 23-33, 35-40, 42-51, 53-59, 61, 62
    2    7 N      3, 9, 15, 34, 52, 60
    3    8 O      22, 41
    4    1 H      63-94

          program call               : xtb data2507/toluene/mDPBPZ-DPXZ/mDPBPZ-DPXZ.xyz --gfn 2 --gbsa toluene --ohess vtight --parallel 40 --molden --ceasefiles --namespace data2507/toluene/mDPBPZ-DPXZ/mDPBPZ-DPXZ_toluene_S0_preOpt
      * Solvation model:               GBSA
        Solvent                        toluene
        Solvent mass                       9.2140E+01 g/mol
          :  Hamiltonian                  GFN2-xTB          :
 * total energy  :  -157.7435232 Eh     change       -0.6098844E-08 Eh
 * total energy  :  -157.7638297 Eh     change       -0.2030645E-01 Eh
 * total energy  :  -157.7700836 Eh     change       -0.6253938E-02 Eh
 * total energy  :  -157.7718715 Eh     change       -0.1787847E-02 Eh
 * total energy  :  -157.7731732 Eh     change       -0.1301763E-02 Eh
 * total energy  :  -157.7737389 Eh     change       -0.5656972E-03 Eh
 * total energy  :  -157.7740467 Eh     change       -0.3077741E-03 Eh
 * total energy  :  -157.7742529 Eh     change       -0.2062002E-03 Eh
 * total energy  :  -157.7743972 Eh     change       -0.1443066E-03 Eh
 * total energy  :  -157.7746058 Eh     change       -0.2085957E-03 Eh
 * total energy  :  -157.7774994 Eh     change       -0.9693327E-06 Eh
 * total energy  :  -157.7775004 Eh     change       -0.1036206E-05 Eh
 * total energy  :  -157.7775016 Eh     change       -0.1133369E-05 Eh
 * total energy  :  -157.7775028 Eh     change       -0.1199500E-05 Eh
 * total energy  :  -157.7775040 Eh     change       -0.1215204E-05 Eh
 * total energy  :  -157.7775052 Eh     change       -0.1193038E-05 Eh
 * total energy  :  -157.7775063 Eh     change       -0.1158966E-05 Eh
 * total energy  :  -157.7775075 Eh     change       -0.1140239E-05 Eh
 * total energy  :  -157.7775075 Eh     change       -0.3942745E-08 Eh
   *** GEOMETRY OPTIMIZATION CONVERGED AFTER 152 ITERATIONS ***

 final structure:
================
94
 xtb: 6.7.1 (edcfbbe)
C            9.53153005291591        1.90232995018349       -1.11058291776147
C            9.66964515888849        2.95238725295893       -0.21428989714829
N            8.74469311479674        3.26565257020943        0.67855100837813
C            7.64103153180033        2.54400670920264        0.71621980729533
C            7.39170232252619        1.46135323937675       -0.12904866889660
C            6.12895713323769        0.71197685407283       -0.03944537883895
C            4.93975146728500        1.39719932764429       -0.06199101185256
C            3.70969978551111        0.71256520357085       -0.02718895740607
N            2.55778437395317        1.39946298151805       -0.05343316895603
C            1.42850440093047        0.71419370958304       -0.02619265771103
C            0.17405053812114        1.42948348970732       -0.04932651037039
C            0.18204605064298        2.82811668131161       -0.09572268295817
C           -0.98979273876081        3.54254343974617       -0.10898561446934
C           -2.20996830409857        2.85994644850836       -0.08399104216259
N           -3.42157084403320        3.58240973274116       -0.08208867272196
C           -3.73042396308579        4.44472538660993       -1.13831851183783
C           -2.95810331164696        4.50763578243745       -2.29216426684637
C           -3.29287835479863        5.36950980997876       -3.32555701999799
C           -4.41118831483788        6.17338669010718       -3.23006446992164
C           -5.21216922988272        6.09779707417286       -2.09977876770859
C           -4.88273179629804        5.23846613233993       -1.06769283619269
O           -5.74198647912932        5.19607875257397        0.00517368270470
C           -5.43068804407428        4.33481064825669        1.03132678601280
C           -6.30097663540022        4.30746550526714        2.10568908576626
C           -6.04379719453367        3.48884069763559        3.19570967149552
C           -4.90166965088396        2.71388546302667        3.20708710499245
C           -4.02594159682183        2.73831115046624        2.13196843038716
C           -4.28327674354679        3.52968380630211        1.01865470658930
C           -2.22967532544407        1.47492319361894       -0.05229735142107
C           -1.04890671813757        0.72833288720776       -0.02382823360831
C           -1.04892092521838       -0.72835823231900        0.02336220768394
C           -2.22970537015977       -1.47492826222711        0.05168466179311
C           -2.21002729207117       -2.85995391141445        0.08331701290980
N           -3.42163847837641       -3.58239845031007        0.08129386295897
C           -4.28332135587414       -3.52954171052260       -1.01946149643661
C           -4.02594030127099       -2.73807409352146       -2.13269734836825
C           -4.90164290183248       -2.71352682392567       -3.20783449303683
C           -6.04379480215090       -3.48844835262728       -3.19655239725932
C           -6.30102162630685       -4.30716440504800       -2.10661107062474
C           -5.43075419029468       -4.33463620906102       -1.03223466282720
O           -5.74209042995085       -5.19600536811046       -0.00617848600980
C           -4.88289181741906       -5.23847620998007        1.06672895432757
C           -5.21240487184124       -6.09785836110729        2.09874853678772
C           -4.41148732642707       -6.17353066922569        3.22907322655132
C           -3.29316454303613       -5.36968438444544        3.32467110844710
C           -2.95831488515940       -4.50775869999885        2.29134612012558
C           -3.73057044376674       -4.44476477888114        1.13746123911969
C           -0.98986422637029       -3.54257264675597        0.10838203556841
C            0.18198833239784       -2.82816568404174        0.09529302712988
C            0.17402208229685       -1.42952914377282        0.04898477954411
C            1.42848979671172       -0.71425623628517        0.02611858981213
N            2.55775566522216       -1.39953811235865        0.05364282220602
C            3.70968524215040       -0.71265220896572        0.02771132191054
C            4.93971952680548       -1.39729853210109        0.06288045260377
C            6.12893955322209       -0.71208796561362        0.04069182013870
C            7.39165305532837       -1.46147246561484        0.13067736436965
C            8.37270289786024       -1.14674468034543        1.06968354553034
C            9.53119850316605       -1.90244170024954        1.11283596176496
C            9.66954812379195       -2.95254434502257        0.21663264592979
N            8.74485162229004       -3.26582127176588       -0.67646868147418
C            7.64120823642069       -2.54416498748465       -0.71447517892029
C            8.37300403420229        1.14665777191590       -1.06780089208979
H           10.30802483027914        1.68491972784518       -1.82716081958606
H           10.55451063045391        3.57510001627828       -0.20705453446155
H            6.91880632801622        2.82908089608342        1.47127174046459
H            4.92152700272687        2.47443942542441       -0.13124926400431
H            1.13859718115559        3.32620096033377       -0.10819897897861
H           -0.98079241779128        4.62175472238896       -0.13037038550347
H           -2.08972584627627        3.87471722435798       -2.38588469587209
H           -2.67096565851373        5.40163182516851       -4.20698294916749
H           -4.67378919174568        6.84959914194497       -4.02825576275383
H           -6.10350724005231        6.69721951350160       -2.00034382736431
H           -7.17294612521107        4.94167572024726        2.07170186129993
H           -6.73016620073553        3.47274417528261        4.02752172216529
H           -4.67616374075785        2.08537375629060        4.05497645639521
H           -3.12739118670044        2.14298205858762        2.16746548616845
H           -3.19073322847827        0.98664065017448       -0.05363701244954
H           -3.19075314666976       -0.98662610522574        0.05296422263033
H           -3.12737554836257       -2.14276333201785       -2.16812018618838
H           -4.67612305278335       -2.08490925332413       -4.05564106540448
H           -6.73016661370530       -3.47222414988982       -4.02835913080440
H           -7.17301154098397       -4.94134953149192       -2.07269884566730
H           -6.10375473873983       -6.69724995238402        1.99923250040078
H           -4.67414921503972       -6.84977858709301        4.02721474031483
H           -2.67130065980361       -5.40186902965893        4.20612939007949
H           -2.08992560196945       -3.87486876829576        2.38514966755430
H           -0.98088409576096       -4.62178562697433        0.12968898215636
H            1.13852971954292       -3.32626691444502        0.10784446548235
H            4.92146359800496       -2.47453867582946        0.13212498987205
H            8.21984922075633       -0.33226342072194        1.76317420036841
H           10.30748257937478       -1.68502519869487        1.82964019937104
H           10.55441070108804       -3.57526428018976        0.20966730068189
H            6.91921978536968       -2.82922613212852       -1.46975817425093
H            8.22033990378821        0.33219070534473       -1.76135052794188

          :  Hamiltonian                  GFN2-xTB          :
         :: gradient norm              0.000049690479 Eh/a0 ::
         :: HOMO-LUMO gap              0.898941082779 eV    ::
         :: SCC energy              -160.524487259627 Eh    ::
         :: -> dispersion             -0.138755769440 Eh    ::
         :: -> Gsolv                  -0.065495361112 Eh    ::
         :: repulsion energy           2.746979769129 Eh    ::

    * Orbital Energies and Occupations

         #    Occupation            Energy/Eh            Energy/eV
      -------------------------------------------------------------
         1        2.0000           -0.7319837             -19.9183
       ...           ...                  ...                  ...
       133        2.0000           -0.4181981             -11.3797
       134        2.0000           -0.4158792             -11.3166
       135        2.0000           -0.4152644             -11.2999
       136        2.0000           -0.4104681             -11.1694
       137        2.0000           -0.4028746             -10.9628
       138        2.0000           -0.4014055             -10.9228
       139        2.0000           -0.3928954             -10.6912
       140        2.0000           -0.3926543             -10.6847
       141        2.0000           -0.3787668             -10.3068
       142        2.0000           -0.3779797             -10.2854
       143        2.0000           -0.3615034              -9.8370
       144        2.0000           -0.3468013              -9.4369
       145        2.0000           -0.3466454              -9.4327 (HOMO)
       146                         -0.3136100              -8.5338 (LUMO)
       147                         -0.2818907              -7.6706
       148                         -0.2679970              -7.2926
       149                         -0.2622449              -7.1360
       150                         -0.2591719              -7.0524
       151                         -0.2568462              -6.9891
       152                         -0.2482738              -6.7559
       153                         -0.2409865              -6.5576
       154                         -0.2409839              -6.5575
       155                         -0.2340824              -6.3697
       156                         -0.2325060              -6.3268
       ...                                ...                  ...
       280                          0.7020836              19.1047
      -------------------------------------------------------------
                  HL-Gap            0.0330355 Eh            0.8989 eV

     #   Z          covCN         q      C6AA      α(0)
     1   6 C        2.912    -0.038    28.942     8.822
     2   6 C        2.913     0.059    26.678     8.470
     3   7 N        1.835    -0.229    26.862     7.681
     4   6 C        2.917     0.056    26.738     8.479
     5   6 C        2.974     0.004    27.929     8.669
     6   6 C        2.974     0.008    27.831     8.653
     7   6 C        2.923    -0.050    29.239     8.868
     8   6 C        2.964     0.081    26.187     8.394
     9   7 N        1.848    -0.259    27.579     7.783
    10   6 C        2.961     0.085    26.103     8.380
    11   6 C        2.987    -0.008    28.212     8.713
    12   6 C        2.923    -0.027    28.667     8.780
    13   6 C        2.918    -0.039    28.970     8.826
    14   6 C        2.919     0.069    26.465     8.436
    15   7 N        2.751    -0.070    22.605     7.061
    16   6 C        2.922     0.042    27.064     8.531
    17   6 C        2.924    -0.060    29.484     8.905
    18   6 C        2.919    -0.039    28.961     8.825
    19   6 C        2.919    -0.040    28.999     8.831
    20   6 C        2.919    -0.058    29.430     8.896
    21   6 C        2.882     0.123    25.301     8.246
    22   8 O        1.708    -0.270    18.483     5.805
    23   6 C        2.883     0.123    25.300     8.246
    24   6 C        2.920    -0.057    29.428     8.896
    25   6 C        2.919    -0.040    29.005     8.832
    26   6 C        2.919    -0.039    28.967     8.826
    27   6 C        2.924    -0.061    29.521     8.910
    28   6 C        2.920     0.042    27.066     8.532
    29   6 C        2.925    -0.047    29.159     8.855
    30   6 C        2.975     0.008    27.832     8.654
    31   6 C        2.975     0.008    27.832     8.654
    32   6 C        2.925    -0.047    29.159     8.855
    33   6 C        2.919     0.069    26.465     8.436
    34   7 N        2.751    -0.070    22.605     7.061
    35   6 C        2.920     0.042    27.066     8.532
    36   6 C        2.924    -0.061    29.521     8.910
    37   6 C        2.919    -0.039    28.967     8.826
    38   6 C        2.919    -0.040    29.005     8.832
    39   6 C        2.920    -0.057    29.428     8.896
    40   6 C        2.883     0.123    25.300     8.246
    41   8 O        1.708    -0.270    18.483     5.805
    42   6 C        2.882     0.123    25.301     8.246
    43   6 C        2.919    -0.058    29.430     8.896
    44   6 C        2.919    -0.040    28.999     8.831
    45   6 C        2.919    -0.039    28.961     8.825
    46   6 C        2.924    -0.060    29.484     8.905
    47   6 C        2.922     0.042    27.064     8.531
    48   6 C        2.918    -0.039    28.970     8.826
    49   6 C        2.923    -0.027    28.667     8.780
    50   6 C        2.987    -0.008    28.212     8.713
    51   6 C        2.961     0.085    26.103     8.380
    52   7 N        1.848    -0.259    27.579     7.783
    53   6 C        2.964     0.081    26.187     8.394
    54   6 C        2.923    -0.050    29.239     8.868
    55   6 C        2.974     0.008    27.831     8.653
    56   6 C        2.974     0.004    27.929     8.669
    57   6 C        2.932    -0.013    28.344     8.731
    58   6 C        2.912    -0.038    28.942     8.822
    59   6 C        2.913     0.059    26.678     8.470
    60   7 N        1.835    -0.229    26.862     7.681
    61   6 C        2.917     0.056    26.738     8.479
    62   6 C        2.932    -0.013    28.344     8.731
    63   1 H        0.926     0.048     2.347     2.396
    64   1 H        0.925     0.044     2.393     2.419
    65   1 H        0.925     0.041     2.439     2.442
    66   1 H        0.926     0.055     2.259     2.350
    67   1 H        0.926     0.065     2.138     2.287
    68   1 H        0.926     0.052     2.299     2.371
    69   1 H        0.926     0.040     2.451     2.448
    70   1 H        0.926     0.042     2.420     2.433
    71   1 H        0.926     0.043     2.409     2.427
    72   1 H        0.926     0.049     2.338     2.391
    73   1 H        0.926     0.049     2.337     2.390
    74   1 H        0.926     0.043     2.412     2.429
    75   1 H        0.926     0.042     2.426     2.436
    76   1 H        0.926     0.040     2.449     2.447
    77   1 H        0.926     0.054     2.270     2.356
    78   1 H        0.926     0.054     2.270     2.356
    79   1 H        0.926     0.040     2.449     2.447
    80   1 H        0.926     0.042     2.426     2.436
    81   1 H        0.926     0.043     2.412     2.429
    82   1 H        0.926     0.049     2.337     2.390
    83   1 H        0.926     0.049     2.338     2.391
    84   1 H        0.926     0.043     2.409     2.427
    85   1 H        0.926     0.042     2.420     2.433
    86   1 H        0.926     0.040     2.451     2.448
    87   1 H        0.926     0.052     2.299     2.371
    88   1 H        0.926     0.065     2.138     2.287
    89   1 H        0.926     0.055     2.259     2.350
    90   1 H        0.926     0.039     2.460     2.453
    91   1 H        0.926     0.048     2.347     2.396
    92   1 H        0.925     0.044     2.393     2.419
    93   1 H        0.925     0.041     2.439     2.442
    94   1 H        0.926     0.039     2.460     2.453

molecular dipole:
                 x           y           z       tot (Debye)
 q only:        0.546      -0.000       0.000
   full:        0.558      -0.000       0.000       1.418

 projected vibrational frequencies (cm⁻¹)
eigval :       -0.00    -0.00    -0.00    -0.00     0.00     0.00
eigval :        8.97    11.97    14.75    14.92    19.23    25.69
eigval :       30.19    39.36    41.47    42.90    44.64    55.93
eigval :       60.84    62.50    80.18    82.90    91.76    94.28
eigval :      103.25   106.80   116.97   121.74   127.94   144.02
eigval :      155.17   189.23   193.37   209.42   211.25   230.99
eigval :      238.73   240.70   240.98   249.30   251.29   264.26
eigval :      267.95   283.81   288.93   296.79   301.37   321.28
eigval :      342.64   365.64   369.91   371.49   378.92   378.97
eigval :      386.06   390.68   399.48   418.03   420.13   421.92
eigval :      429.04   429.25   437.29   440.72   442.87   451.46
eigval :      457.67   459.74   477.38   493.21   501.26   510.24
eigval :      510.34   517.26   519.48   524.50   528.50   536.64
eigval :      566.57   568.33   574.34   580.64   580.73   591.00
eigval :      597.50   598.30   602.54   619.61   625.72   627.86
eigval :      646.46   646.90   658.76   659.93   661.11   661.93
eigval :      663.95   670.82   684.58   692.43   693.95   696.40
eigval :      700.34   710.58   731.02   739.64   747.54   763.20
eigval :      766.41   775.06   775.64   781.07   781.12   788.64
eigval :      788.89   801.01   822.03   832.24   834.38   853.08
eigval :      853.19   853.23   858.08   861.06   862.21   868.38
eigval :      868.39   874.14   877.62   885.20   897.55   898.74
eigval :      899.38   899.44   901.16   902.40   906.48   911.83
eigval :      912.31   915.63   916.17   916.63   916.75   916.90
eigval :      917.10   929.08   929.10   932.16   932.39   941.40
eigval :      975.83   992.77  1001.70  1019.56  1046.36  1063.34
eigval :     1073.59  1087.69  1087.97  1090.40  1090.97  1093.18
eigval :     1094.11  1106.02  1106.05  1116.21  1120.98  1139.86
eigval :     1140.48  1144.57  1147.24  1166.07  1166.39  1172.31
eigval :     1172.31  1182.53  1183.18  1191.45  1195.38  1198.00
eigval :     1198.03  1198.31  1201.09  1206.57  1223.00  1227.49
eigval :     1232.18  1241.67  1241.99  1254.21  1259.34  1259.90
eigval :     1261.79  1262.33  1265.48  1269.43  1273.93  1277.88
eigval :     1280.40  1283.89  1302.99  1303.84  1306.62  1310.00
eigval :     1319.39  1324.66  1331.13  1338.42  1346.91  1352.20
eigval :     1354.08  1376.31  1394.72  1398.54  1399.59  1414.74
eigval :     1419.97  1420.74  1423.14  1431.95  1440.75  1442.37
eigval :     1447.76  1453.60  1466.01  1467.67  1478.87  1478.94
eigval :     1479.19  1489.57  1500.40  1500.61  1519.05  1540.29
eigval :     1548.62  1555.87  1558.07  1565.81  1565.96  1568.97
eigval :     1569.44  1573.06  1578.54  1578.71  1582.67  1587.55
eigval :     1588.86  1592.03  1601.24  1601.42  3049.21  3049.33
eigval :     3060.01  3060.06  3074.93  3075.37  3087.29  3087.30
eigval :     3087.37  3087.37  3092.77  3093.13  3093.15  3093.49
eigval :     3095.77  3095.78  3096.05  3096.06  3096.42  3096.61
eigval :     3103.78  3103.79  3104.28  3104.56  3105.87  3108.75
eigval :     3108.79  3109.50  3109.54  3111.85  3111.98  3115.70

   temp. (K)  partition function   enthalpy   heat capacity  entropy
                                   cal/mol     cal/K/mol   cal/K/mol   J/K/mol
 298.15  VIB  0.159E+23            27902.444    176.162    173.728
         ROT  0.112E+09              888.752      2.981     39.818
         INT  0.179E+31            28791.197    179.143    213.547
         TR   0.218E+29             1481.254      4.968     45.884
         TOT                       30272.4506   184.1108   259.4306  1085.4576

       T/K    H(0)-H(T)+PV         H(T)/Eh          T*S/Eh         G(T)/Eh
   ------------------------------------------------------------------------
    298.15    0.482422E-01    0.745016E+00    0.123264E+00    0.621752E+00
   ------------------------------------------------------------------------

         :::::::::::::::::::::::::::::::::::::::::::::::::::::
         ::                  THERMODYNAMIC                  ::
         :::::::::::::::::::::::::::::::::::::::::::::::::::::
         :: total free energy        -157.155755441017 Eh   ::
         ::.................................................::
         :: total energy             -157.777507491137 Eh   ::
         :: zero point energy           0.696773672376 Eh   ::
         :: G(RRHO) w/o ZPVE           -0.075021622256 Eh   ::
         :: G(RRHO) contrib.            0.621752050120 Eh   ::
         :::::::::::::::::::::::::::::::::::::::::::::::::::::

           -------------------------------------------------
          | TOTAL ENERGY             -157.777507491137 Eh   |
          | TOTAL ENTHALPY           -157.032491597995 Eh   |
          | TOTAL FREE ENERGY        -157.155755441017 Eh   |
          | GRADIENT NORM               0.000049689706 Eh/α |
          | HOMO-LUMO GAP               0.898941066464 eV   |
           -------------------------------------------------

 * finished run on 2025/08/22 at 19:06:40.872
