   * xtb version 6.7.1 (edcfbbe) compiled by 'albert@albert-system' on 2024-07-22

   ID    Z sym.   atoms
    1    6 C      1, 2, 4-8, 10-14, 16-21, 23-33, 35-40, 42-51, 53-59, 61, 62
    2    7 N      3, 9, 15, 34, 52, 60
    3    8 O      22, 41
    4    1 H      63-94

          program call               : xtb data2507/toluene/mDPBPZ-DPXZ/mDPBPZ-DPXZ_toluene_S0_crest.xyz --gfn 2 --gbsa toluene --ohess vtight --parallel 40 --molden --ceasefiles --namespace data2507/toluene/mDPBPZ-DPXZ/mDPBPZ-DPXZ_toluene_S0_finalOpt
      * Solvation model:               GBSA
        Solvent                        toluene
        Solvent mass                       9.2140E+01 g/mol
          :  Hamiltonian                  GFN2-xTB          :
 * total energy  :  -157.7777713 Eh     change       -0.5673911E-08 Eh
 * total energy  :  -157.7778352 Eh     change       -0.6397268E-04 Eh
 * total energy  :  -157.7778717 Eh     change       -0.3647910E-04 Eh
 * total energy  :  -157.7778883 Eh     change       -0.1659814E-04 Eh
 * total energy  :  -157.7779080 Eh     change       -0.1973205E-04 Eh
 * total energy  :  -157.7779295 Eh     change       -0.2146709E-04 Eh
 * total energy  :  -157.7779537 Eh     change       -0.2417171E-04 Eh
 * total energy  :  -157.7779731 Eh     change       -0.1942836E-04 Eh
 * total energy  :  -157.7779843 Eh     change       -0.1124062E-04 Eh
 * total energy  :  -157.7779915 Eh     change       -0.7130995E-05 Eh
 * total energy  :  -157.7780779 Eh     change       -0.1091794E-05 Eh
 * total energy  :  -157.7780785 Eh     change       -0.5777082E-06 Eh
 * total energy  :  -157.7780788 Eh     change       -0.3440857E-06 Eh
 * total energy  :  -157.7780792 Eh     change       -0.3245465E-06 Eh
 * total energy  :  -157.7780795 Eh     change       -0.3051172E-06 Eh
 * total energy  :  -157.7780797 Eh     change       -0.2380144E-06 Eh
 * total energy  :  -157.7780799 Eh     change       -0.2094599E-06 Eh
 * total energy  :  -157.7780801 Eh     change       -0.1513763E-06 Eh
 * total energy  :  -157.7780801 Eh     change       -0.1837662E-08 Eh
   *** GEOMETRY OPTIMIZATION CONVERGED AFTER 44 ITERATIONS ***

 final structure:
================
94
 xtb: 6.7.1 (edcfbbe)
C            9.55750441089181        1.89328284073490       -1.32925816543049
C            9.71248766002247        2.94164361719560       -0.43377809588515
N            8.80407840184075        3.25347454425545        0.47637807952292
C            7.70080607479620        2.53242896447305        0.53257776509578
C            7.43486344270454        1.45194086134968       -0.31051520545224
C            6.17324984096132        0.70347144604503       -0.20009625295395
C            4.98460609899357        1.39004845010676       -0.18434107420650
C            3.75496945191492        0.70629533903587       -0.12689156162591
N            2.60402951254458        1.39515903467883       -0.10350754861211
C            1.47485822211999        0.71093988716297       -0.05449874468283
C            0.22208813911776        1.42838404230147       -0.01737208908516
C            0.22937502147807        2.82734473716171       -0.05448711005000
C           -0.94153039485072        3.54261363937840       -0.02073854752835
C           -2.16022284552500        2.86167401710148        0.06325103637668
N           -3.37016223664041        3.58446527201237        0.09993871405817
C           -4.32132152988750        3.44539469652059       -0.91659557218570
C           -4.14239493379015        2.58873595859733       -1.99664362995578
C           -5.10730342222672        2.47849774091287       -2.98646231073739
C           -6.26398554061793        3.22891452748336       -2.92211853952901
C           -6.44423095328966        4.11318659057635       -1.86876532251383
C           -5.48318765851984        4.22880284727050       -0.88107863436194
O           -5.72201252095312        5.15468177453893        0.10748933787603
C           -4.77987970388370        5.27549141224268        1.10165203428576
C           -5.04217893227483        6.19204102200454        2.10339898504473
C           -4.15699137883218        6.34655455197430        3.16032371056546
C           -3.02209251786774        5.56243540113113        3.21557508704130
C           -2.75404254241534        4.64413270765694        2.21174312809053
C           -3.61151215276708        4.50265634981472        1.12690390190510
C           -2.17843502294109        1.47683807538735        0.10618995675740
C           -0.99970299759782        0.72869424194708        0.05572776842933
C           -1.00141966129985       -0.72857847939096        0.06565878945310
C           -2.18260276782410       -1.47291864584463        0.11204065805668
C           -2.16801997576763       -2.85836957567811        0.08796667879915
N           -3.38115142142437       -3.57595324396885        0.11185867604151
C           -4.31555711472490       -3.43921581461402       -0.92066895091495
C           -4.11273533561842       -2.59541367117485       -2.00665353704847
C           -5.06202449369516       -2.48597150021090       -3.01150261697314
C           -6.22699563693902       -3.22421589920538       -2.95642727335587
C           -6.43031183831203       -4.09708800678471       -1.89780462438171
C           -5.48454180455654       -4.21229098498367       -0.89537381966981
O           -5.74541018953455       -5.12759519297581        0.09735249372187
C           -4.81751560905966       -5.24973454224903        1.10460529632829
C           -5.10025345798618       -6.15870781408105        2.10769889914213
C           -4.23135873497518       -6.31292489998521        3.17806226871564
C           -3.09230694707677       -5.53576911661656        3.24518320740154
C           -2.80347014519144       -4.62552816677610        2.23977174443203
C           -3.64394826618751       -4.48521066892695        1.14155173327388
C           -0.95008626880955       -3.54359696837969        0.03204636076657
C            0.22303051348176       -2.83173989106689        0.00153747950595
C            0.21919285177899       -1.43231712583454        0.01433764989965
C            1.47370159572234       -0.71852170376419       -0.03195272320500
N            2.60207504908311       -1.40561493171423       -0.05123835598444
C            3.75406412131912       -0.71958749225612       -0.09675762406490
C            4.98365311981206       -1.40586674981531       -0.10037089159159
C            6.17301175977116       -0.72148083905311       -0.13727844580707
C            7.43613998562126       -1.47288423708186       -0.07422715089858
C            8.42914582575059       -1.16764186600411        0.85538038717706
C            9.58731015546143       -1.92465508589508        0.87729848559499
C            9.71320177144363       -2.96686099963294       -0.02992576678071
N            8.77700867083026       -3.27133116836945       -0.91403829337790
C            7.67369507062054       -2.54827301283934       -0.93189591840952
C            8.39935322019132        1.13845890105353       -1.26710675131987
H           10.32075888660539        1.67646403158973       -2.06010073914035
H           10.59763432156583        3.56395422152759       -0.44152489584698
H            6.99319534718355        2.81631836803741        1.30174795433785
H            4.96587553966563        2.46815452940910       -0.23808655685791
H            1.18419303791141        3.32443073284162       -0.12145593551128
H           -0.93322553630018        4.62114806247038       -0.06402169706051
H           -3.23574517483945        2.01002552277806       -2.07402061192159
H           -4.94015683083641        1.80318442064537       -3.81110803287550
H           -7.02046403967554        3.14391518560298       -3.68617744662272
H           -7.32488003476842        4.73212566659926       -1.79752622087397
H           -5.94899058443144        6.77274260276218        2.03902528594132
H           -4.36783234352283        7.06697979290090        3.93481855811882
H           -2.33407177617243        5.65461401231993        4.04184485290262
H           -1.87106776018911        4.02809400566775        2.27659218773560
H           -3.13679089711388        0.98989147997486        0.18575312143473
H           -3.14067720028280       -0.98233667195557        0.16967614633525
H           -3.19952771126544       -2.02619190780449       -2.07691640980489
H           -4.87599912257053       -1.82081545045118       -3.84036022695573
H           -6.97177637729811       -3.13903473770236       -3.73186740303294
H           -7.31754225074940       -4.70731428306591       -1.83347099104406
H           -6.01013194146669       -6.73343739792032        2.03376777795901
H           -4.45812976430783       -7.02738144943891        3.95357464812955
H           -2.41729621139890       -5.62716301038852        4.08222107869566
H           -1.91758176964532       -4.01476505180011        2.31396900656689
H           -0.94387803318601       -4.62265820252832        0.00456266598161
H            1.17718304976226       -3.33225720572961       -0.04686497801841
H            4.96554412659323       -2.48396424829488       -0.04582757923522
H            8.28533915495538       -0.35936041604672        1.55803936451092
H           10.37274647391713       -1.71437567026483        1.58623360995367
H           10.59718837542417       -3.59043050135612       -0.05337926879959
H            6.94188516134936       -2.82617499796244       -1.68035452536678
H            8.23425158447256        0.32551319554748       -1.95956660271576

          :  Hamiltonian                  GFN2-xTB          :
         :: gradient norm              0.000030559334 Eh/a0 ::
         :: HOMO-LUMO gap              0.901926193061 eV    ::
         :: SCC energy              -160.525220914511 Eh    ::
         :: -> dispersion             -0.139581057307 Eh    ::
         :: -> Gsolv                  -0.065417059811 Eh    ::
         :: repulsion energy           2.747140842869 Eh    ::

    * Orbital Energies and Occupations

         #    Occupation            Energy/Eh            Energy/eV
      -------------------------------------------------------------
         1        2.0000           -0.7321517             -19.9229
       ...           ...                  ...                  ...
       133        2.0000           -0.4181758             -11.3791
       134        2.0000           -0.4157947             -11.3143
       135        2.0000           -0.4153655             -11.3027
       136        2.0000           -0.4100584             -11.1583
       137        2.0000           -0.4026873             -10.9577
       138        2.0000           -0.4010759             -10.9138
       139        2.0000           -0.3928935             -10.6912
       140        2.0000           -0.3925044             -10.6806
       141        2.0000           -0.3786602             -10.3039
       142        2.0000           -0.3778941             -10.2830
       143        2.0000           -0.3611860              -9.8284
       144        2.0000           -0.3471646              -9.4468
       145        2.0000           -0.3464003              -9.4260 (HOMO)
       146                         -0.3132551              -8.5241 (LUMO)
       147                         -0.2816562              -7.6643
       148                         -0.2676480              -7.2831
       149                         -0.2621299              -7.1329
       150                         -0.2590358              -7.0487
       151                         -0.2567648              -6.9869
       152                         -0.2481218              -6.7517
       153                         -0.2410896              -6.5604
       154                         -0.2410068              -6.5581
       155                         -0.2339318              -6.3656
       156                         -0.2325262              -6.3274
       ...                                ...                  ...
       280                          0.7024209              19.1138
      -------------------------------------------------------------
                  HL-Gap            0.0331452 Eh            0.9019 eV

     #   Z          covCN         q      C6AA      α(0)
     1   6 C        2.912    -0.038    28.944     8.822
     2   6 C        2.913     0.059    26.679     8.470
     3   7 N        1.835    -0.229    26.865     7.681
     4   6 C        2.917     0.056    26.738     8.479
     5   6 C        2.974     0.004    27.930     8.669
     6   6 C        2.974     0.008    27.836     8.654
     7   6 C        2.923    -0.050    29.242     8.868
     8   6 C        2.964     0.081    26.188     8.394
     9   7 N        1.848    -0.259    27.593     7.785
    10   6 C        2.960     0.085    26.103     8.380
    11   6 C        2.987    -0.008    28.218     8.714
    12   6 C        2.923    -0.027    28.669     8.781
    13   6 C        2.918    -0.039    28.977     8.827
    14   6 C        2.918     0.068    26.470     8.437
    15   7 N        2.751    -0.070    22.591     7.059
    16   6 C        2.920     0.041    27.072     8.532
    17   6 C        2.924    -0.061    29.513     8.909
    18   6 C        2.919    -0.039    28.959     8.825
    19   6 C        2.919    -0.040    29.001     8.831
    20   6 C        2.920    -0.057    29.427     8.896
    21   6 C        2.883     0.123    25.301     8.246
    22   8 O        1.708    -0.270    18.481     5.804
    23   6 C        2.883     0.123    25.300     8.246
    24   6 C        2.919    -0.058    29.431     8.896
    25   6 C        2.919    -0.040    28.998     8.831
    26   6 C        2.919    -0.039    28.962     8.825
    27   6 C        2.924    -0.060    29.487     8.905
    28   6 C        2.922     0.042    27.067     8.532
    29   6 C        2.925    -0.047    29.168     8.857
    30   6 C        2.976     0.008    27.836     8.654
    31   6 C        2.976     0.008    27.836     8.654
    32   6 C        2.925    -0.047    29.170     8.857
    33   6 C        2.918     0.068    26.471     8.437
    34   7 N        2.751    -0.069    22.586     7.058
    35   6 C        2.920     0.041    27.073     8.533
    36   6 C        2.924    -0.061    29.511     8.909
    37   6 C        2.919    -0.039    28.958     8.824
    38   6 C        2.919    -0.040    28.999     8.831
    39   6 C        2.920    -0.057    29.426     8.896
    40   6 C        2.883     0.123    25.300     8.246
    41   8 O        1.708    -0.270    18.479     5.804
    42   6 C        2.883     0.123    25.299     8.246
    43   6 C        2.919    -0.058    29.430     8.896
    44   6 C        2.919    -0.040    28.997     8.830
    45   6 C        2.919    -0.039    28.962     8.825
    46   6 C        2.924    -0.060    29.486     8.905
    47   6 C        2.921     0.042    27.067     8.532
    48   6 C        2.918    -0.039    28.979     8.828
    49   6 C        2.923    -0.027    28.669     8.781
    50   6 C        2.987    -0.008    28.220     8.714
    51   6 C        2.960     0.085    26.103     8.380
    52   7 N        1.848    -0.259    27.595     7.785
    53   6 C        2.964     0.081    26.187     8.394
    54   6 C        2.923    -0.050    29.241     8.868
    55   6 C        2.974     0.008    27.835     8.654
    56   6 C        2.974     0.004    27.928     8.669
    57   6 C        2.932    -0.013    28.345     8.731
    58   6 C        2.912    -0.038    28.943     8.822
    59   6 C        2.913     0.059    26.679     8.470
    60   7 N        1.835    -0.229    26.865     7.681
    61   6 C        2.917     0.056    26.738     8.479
    62   6 C        2.932    -0.013    28.345     8.731
    63   1 H        0.926     0.048     2.348     2.396
    64   1 H        0.925     0.044     2.394     2.420
    65   1 H        0.925     0.041     2.438     2.442
    66   1 H        0.926     0.055     2.260     2.351
    67   1 H        0.926     0.065     2.142     2.289
    68   1 H        0.926     0.052     2.297     2.370
    69   1 H        0.926     0.040     2.442     2.444
    70   1 H        0.926     0.043     2.416     2.430
    71   1 H        0.926     0.043     2.406     2.426
    72   1 H        0.926     0.049     2.337     2.391
    73   1 H        0.926     0.049     2.337     2.391
    74   1 H        0.926     0.043     2.408     2.427
    75   1 H        0.926     0.042     2.419     2.432
    76   1 H        0.926     0.040     2.447     2.446
    77   1 H        0.926     0.054     2.276     2.359
    78   1 H        0.926     0.054     2.276     2.359
    79   1 H        0.926     0.040     2.442     2.444
    80   1 H        0.926     0.042     2.416     2.431
    81   1 H        0.926     0.043     2.405     2.425
    82   1 H        0.926     0.049     2.336     2.390
    83   1 H        0.926     0.049     2.336     2.390
    84   1 H        0.926     0.043     2.408     2.427
    85   1 H        0.926     0.042     2.420     2.433
    86   1 H        0.926     0.040     2.445     2.445
    87   1 H        0.926     0.052     2.296     2.370
    88   1 H        0.926     0.065     2.142     2.289
    89   1 H        0.926     0.055     2.261     2.352
    90   1 H        0.926     0.039     2.462     2.454
    91   1 H        0.926     0.048     2.348     2.396
    92   1 H        0.925     0.044     2.394     2.420
    93   1 H        0.925     0.041     2.440     2.443
    94   1 H        0.926     0.039     2.461     2.453

molecular dipole:
                 x           y           z       tot (Debye)
 q only:        0.464      -0.011       0.007
   full:        0.471      -0.013       0.004       1.197

 projected vibrational frequencies (cm⁻¹)
eigval :       -0.00    -0.00    -0.00    -0.00     0.00     0.00
eigval :        0.49    11.47    13.04    15.40    19.63    20.98
eigval :       31.28    37.33    39.81    43.22    44.76    55.62
eigval :       59.30    62.59    79.77    83.57    90.71    95.35
eigval :      103.74   106.37   117.02   121.54   132.40   146.44
eigval :      153.46   189.79   194.76   209.87   215.07   229.97
eigval :      236.05   240.35   243.44   248.08   251.38   262.29
eigval :      269.50   285.73   289.60   298.56   300.79   320.74
eigval :      343.99   364.38   370.35   372.78   379.14   379.43
eigval :      388.07   390.54   398.80   417.10   420.48   421.25
eigval :      429.53   430.23   438.12   441.80   443.40   449.07
eigval :      455.57   465.69   475.23   493.32   503.16   508.04
eigval :      509.22   516.65   518.72   524.90   525.89   537.68
eigval :      566.01   570.49   574.07   577.74   581.24   590.94
eigval :      597.38   600.17   602.48   619.52   625.35   626.83
eigval :      646.65   647.83   657.63   658.40   659.90   660.87
eigval :      663.42   670.64   684.66   692.53   693.70   696.48
eigval :      700.31   710.66   731.39   739.81   747.54   763.44
eigval :      766.20   774.72   775.74   780.22   781.06   788.74
eigval :      788.93   800.84   821.96   831.86   833.32   853.04
eigval :      853.26   853.43   858.18   860.06   863.25   866.60
eigval :      868.55   873.66   877.12   886.89   896.39   898.37
eigval :      899.24   900.95   901.61   902.27   906.49   908.76
eigval :      912.92   915.51   915.62   915.71   916.14   917.12
eigval :      919.81   928.13   928.81   931.87   932.26   941.32
eigval :      975.83   992.65  1001.84  1019.45  1046.66  1063.42
eigval :     1073.49  1089.16  1090.33  1090.77  1091.85  1093.03
eigval :     1094.13  1105.61  1106.22  1116.21  1121.24  1139.40
eigval :     1140.45  1144.91  1147.53  1166.94  1167.69  1171.18
eigval :     1173.65  1180.19  1184.76  1190.98  1194.87  1197.19
eigval :     1197.90  1199.19  1201.24  1206.67  1223.03  1227.77
eigval :     1232.36  1241.39  1242.47  1254.12  1258.26  1260.29
eigval :     1261.36  1262.59  1265.97  1269.55  1274.22  1277.88
eigval :     1280.50  1283.99  1302.52  1303.68  1306.78  1310.10
eigval :     1320.22  1324.24  1330.63  1338.69  1346.60  1351.88
eigval :     1354.00  1376.44  1394.72  1398.55  1400.00  1414.65
eigval :     1419.70  1420.84  1422.98  1432.01  1440.30  1442.57
eigval :     1447.95  1453.65  1465.98  1467.92  1478.04  1479.06
eigval :     1479.19  1488.95  1500.01  1500.42  1518.99  1540.18
eigval :     1548.67  1555.89  1558.07  1565.93  1566.08  1568.87
eigval :     1569.40  1573.00  1578.29  1578.75  1582.57  1587.47
eigval :     1588.81  1592.11  1600.89  1601.29  3049.02  3049.73
eigval :     3059.85  3059.91  3074.78  3075.28  3087.22  3088.10
eigval :     3089.93  3091.17  3092.59  3093.26  3093.56  3093.80
eigval :     3096.24  3096.38  3096.39  3096.71  3097.13  3097.50
eigval :     3104.03  3104.32  3104.67  3105.20  3106.25  3109.01
eigval :     3109.24  3110.37  3110.91  3111.64  3111.93  3116.56

   temp. (K)  partition function   enthalpy   heat capacity  entropy
                                   cal/mol     cal/K/mol   cal/K/mol   J/K/mol
 298.15  VIB  0.931E+21            27324.473    175.057    168.604
         ROT  0.223E+09              888.752      2.981     41.185
         INT  0.208E+30            28213.225    178.038    209.789
         TR   0.218E+29             1481.254      4.968     45.884
         TOT                       29694.4793   183.0063   255.6732  1069.7365

       T/K    H(0)-H(T)+PV         H(T)/Eh          T*S/Eh         G(T)/Eh
   ------------------------------------------------------------------------
    298.15    0.473212E-01    0.744103E+00    0.121479E+00    0.622624E+00
   ------------------------------------------------------------------------

         :::::::::::::::::::::::::::::::::::::::::::::::::::::
         ::                  THERMODYNAMIC                  ::
         :::::::::::::::::::::::::::::::::::::::::::::::::::::
         :: total free energy        -157.155455732232 Eh   ::
         ::.................................................::
         :: total energy             -157.778080071380 Eh   ::
         :: zero point energy           0.696781742810 Eh   ::
         :: G(RRHO) w/o ZPVE           -0.074157403661 Eh   ::
         :: G(RRHO) contrib.            0.622624339149 Eh   ::
         :::::::::::::::::::::::::::::::::::::::::::::::::::::

           -------------------------------------------------
          | TOTAL ENERGY             -157.778080071380 Eh   |
          | TOTAL ENTHALPY           -157.033977163606 Eh   |
          | TOTAL FREE ENERGY        -157.155455732232 Eh   |
          | GRADIENT NORM               0.000030560757 Eh/α |
          | HOMO-LUMO GAP               0.901926582694 eV   |
           -------------------------------------------------

 * finished run on 2025/08/22 at 19:11:45.939
