   * xtb version 6.7.1 (edcfbbe) compiled by 'albert@albert-system' on 2024-07-22

   ID    Z sym.   atoms
    1    6 C      1-5, 7-12, 14-34, 36-50, 52-60
    2    7 N      6, 13, 35, 51
    3    1 H      61-96

          program call               : xtb data2507/toluene/BDQPCz/BDQPCz_toluene_S0_crest.xyz --gfn 2 --gbsa toluene --ohess vtight --parallel 40 --molden --ceasefiles --namespace data2507/toluene/BDQPCz/BDQPCz_toluene_S0_finalOpt
      * Solvation model:               GBSA
        Solvent                        toluene
        Solvent mass                       9.2140E+01 g/mol
          :  Hamiltonian                  GFN2-xTB          :
 * total energy  :  -150.1024083 Eh     change       -0.2294371E-08 Eh
 * total energy  :  -150.1024650 Eh     change       -0.5665549E-04 Eh
 * total energy  :  -150.1025474 Eh     change       -0.8246145E-04 Eh
 * total energy  :  -150.1025880 Eh     change       -0.4060460E-04 Eh
 * total energy  :  -150.1027033 Eh     change       -0.1152575E-03 Eh
 * total energy  :  -150.1027674 Eh     change       -0.6413869E-04 Eh
 * total energy  :  -150.1028085 Eh     change       -0.4111314E-04 Eh
 * total energy  :  -150.1029046 Eh     change       -0.9602601E-04 Eh
 * total energy  :  -150.1029815 Eh     change       -0.7697087E-04 Eh
 * total energy  :  -150.1030183 Eh     change       -0.3679288E-04 Eh
 * total energy  :  -150.1037184 Eh     change       -0.9398499E-06 Eh
 * total energy  :  -150.1037192 Eh     change       -0.8361804E-06 Eh
 * total energy  :  -150.1037200 Eh     change       -0.7504720E-06 Eh
 * total energy  :  -150.1037207 Eh     change       -0.7123654E-06 Eh
 * total energy  :  -150.1037214 Eh     change       -0.7334498E-06 Eh
 * total energy  :  -150.1037222 Eh     change       -0.8088865E-06 Eh
 * total energy  :  -150.1037231 Eh     change       -0.9246827E-06 Eh
 * total energy  :  -150.1037243 Eh     change       -0.1140260E-05 Eh
 * total energy  :  -150.1037243 Eh     change       -0.4977750E-08 Eh
   *** GEOMETRY OPTIMIZATION CONVERGED AFTER 68 ITERATIONS ***

 final structure:
================
96
 xtb: 6.7.1 (edcfbbe)
C           -3.07092690419850       -5.55147086646051       -0.77632676665660
C           -3.59221274108659       -4.51878913234471       -0.01342626158857
C           -2.83069627329947       -3.39408390821539        0.24174177454917
C           -1.53156050877844       -3.29578261603514       -0.25207417769576
C           -0.74627544780015       -2.08606564010329        0.01856892411225
N           -1.39128133346195       -0.94480712244455       -0.01722497630019
C           -0.71180909323908        0.21165462158974        0.08516092871637
C           -1.40790683504123        1.44942442535808        0.05809060018894
C           -2.87318217660457        1.47030604734802        0.06347976260510
C           -3.59583270979870        0.61830841007533        0.89705324502337
C           -4.97502127530453        0.61003901284285        0.87561338493584
C           -5.66717098558591        1.45440745803754        0.01124040643107
N           -7.06834501770662        1.42074584435083       -0.03264675697655
C           -7.91346762652911        2.50621702749656        0.07970278663648
C           -7.61095151027820        3.84209922166279        0.30401799061859
C           -8.66176449746312        4.73391656515644        0.40494897842464
C           -9.98609244883765        4.31316618027649        0.29698686509475
C          -10.29400968056125        2.98231044350130        0.09481815563958
C           -9.25485841452001        2.06649908281175       -0.01146748260896
C           -9.20554652547196        0.64289492961313       -0.19835857221955
C          -10.17765739687301       -0.33414874341594       -0.37350818787135
C           -9.77592187070430       -1.64235884126636       -0.55767790329367
C           -8.42399453639175       -1.98040163784319       -0.58273943163357
C           -7.43853623051162       -1.02709293194613       -0.41084819063535
C           -7.83712383565166        0.28600255146904       -0.20168172561087
C           -4.95468047469448        2.32236009389939       -0.81203123251541
C           -3.57478376700013        2.33133119284427       -0.77964144195042
C           -0.65940315207394        2.60529949589788       -0.00494820565333
C            0.73732761084636        2.57967766260546       -0.02563740344420
C            1.44744531261159        1.39980505365925        0.04628710920093
C            2.91494539078818        1.38700611668665        0.03218229730885
C            3.61194688833312        2.18988150045076       -0.87038372717661
C            4.99116054433158        2.16743239314966       -0.92124846074974
C            5.70910256431548        1.34948997695804       -0.05248036743228
N            7.10986324735381        1.31120147314095       -0.10837386090448
C            7.95384295446760        2.40398165347474       -0.09708116143983
C            7.65241010087374        3.75370391364118        0.02253860194330
C            8.70251744283499        4.65189447757850        0.03301874211832
C           10.02593456213752        4.22568824962044       -0.06322195786183
C           10.33361644537112        2.88302871949725       -0.15990118846791
C            9.29485236538124        1.96085903370910       -0.17463422595116
C            9.24711099155498        0.52694403834493       -0.24477530246663
C           10.22084271313035       -0.45788853142128       -0.35505512432018
C            9.82255776495030       -1.77828137046015       -0.42175262288873
C            8.47203060992895       -2.12114952927603       -0.39360212136608
C            7.48527603397540       -1.15982353023084       -0.28518104931239
C            7.88008556834670        0.16797316395911       -0.19572592085107
C            5.02119642652190        0.56243105093788        0.86772705049351
C            3.64176386142446        0.57794802310894        0.90388744328903
C            0.71045001285475        0.18878819435516        0.12213602051246
N            1.34954578598192       -0.98787341430233        0.25109884994971
C            0.66435261963732       -2.10547744422367        0.26666887560374
C            1.41492228643346       -3.32827621677483        0.57355414108686
C            2.70541424966730       -3.48212540903427        0.07091161978484
C            3.43928777104980       -4.61488659137096        0.36805177178503
C            2.89896130164230       -5.59853667929763        1.18116650651046
C            1.62434993854562       -5.44138907833246        1.70226938847328
C            0.88288572046355       -4.31375604452626        1.40272306400307
C           -1.01971679759138       -4.33006084754687       -1.03332731527360
C           -1.78830485049131       -5.44967660991418       -1.29147596419317
H           -3.66470491737382       -6.43136401752480       -0.97524982650982
H           -4.59485458094568       -4.59019949012793        0.38224224275469
H           -3.22508262539578       -2.58067244879939        0.83116942387772
H           -3.06635113828182       -0.02873392424788        1.57890098427081
H           -5.52741985686394       -0.04233660692622        1.53562516911455
H           -6.58881384686584        4.17432097046549        0.40594100085276
H           -8.45249868494421        5.77996103639345        0.57632778878696
H          -10.77995939932095        5.04104323308689        0.38047323745885
H          -11.32085463901151        2.65521002464424        0.02522733653514
H          -11.22496518589862       -0.07076350425204       -0.37110403703648
H          -10.51648512032200       -2.41697564161951       -0.69406383067134
H           -8.13991493691728       -3.00994704374908       -0.74591122092303
H           -6.39340963277910       -1.29456275187892       -0.45202188745500
H           -5.48827917875444        2.97053907344376       -1.49133398794841
H           -3.03131054724219        2.98780082327054       -1.44306602997573
H           -1.16352145613083        3.56048392691443       -0.02109110338091
H            1.27482117793376        3.51589002046685       -0.06457761354477
H            3.06436505225862        2.81123539892439       -1.56391387715502
H            5.51870742550419        2.76753449640896       -1.64772008308398
H            6.63185413497540        4.09297310828875        0.11588295348906
H            8.49319572309015        5.70815193014072        0.12186302357687
H           10.81923280486476        4.95887559770668       -0.05289427985415
H           11.35985462669468        2.55202203721837       -0.21938441466390
H           11.26669072451631       -0.19127299721402       -0.39174001192917
H           10.56421358550591       -2.55928589065173       -0.50556420310123
H            8.19038749924098       -3.16203151736013       -0.46133650902735
H            6.44152775048518       -1.43427654984286       -0.27985858170630
H            5.57496511588946       -0.05286747738533        1.56114098905867
H            3.11863466241052       -0.03452018594790        1.62057186298251
H            3.11120650961304       -2.70510317510244       -0.55954971692836
H            4.43543486308801       -4.73080428887456       -0.03326518048198
H            3.47189060636199       -6.48410483301761        1.41327578324284
H            1.20607765828013       -6.19971836610185        2.34775881956264
H           -0.10442221630337       -4.18753020592016        1.82325092514051
H           -0.02655101163840       -4.24815226692835       -1.45093432284526
H           -1.38425387715566       -6.24575296490939       -1.89949546257471

          :  Hamiltonian                  GFN2-xTB          :
         :: gradient norm              0.000058142994 Eh/a0 ::
         :: HOMO-LUMO gap              1.551752943751 eV    ::
         :: SCC energy              -152.938902009350 Eh    ::
         :: -> dispersion             -0.139360201965 Eh    ::
         :: -> Gsolv                  -0.062867866937 Eh    ::
         :: repulsion energy           2.835177729282 Eh    ::

    * Orbital Energies and Occupations

         #    Occupation            Energy/Eh            Energy/eV
      -------------------------------------------------------------
         1        2.0000           -0.6806252             -18.5208
       ...           ...                  ...                  ...
       128        2.0000           -0.4116100             -11.2005
       129        2.0000           -0.4111581             -11.1882
       130        2.0000           -0.4101028             -11.1595
       131        2.0000           -0.4085250             -11.1165
       132        2.0000           -0.4044192             -11.0048
       133        2.0000           -0.4043844             -11.0039
       134        2.0000           -0.3932191             -10.7000
       135        2.0000           -0.3867832             -10.5249
       136        2.0000           -0.3778996             -10.2832
       137        2.0000           -0.3778623             -10.2822
       138        2.0000           -0.3621130              -9.8536
       139        2.0000           -0.3600194              -9.7966
       140        2.0000           -0.3557045              -9.6792 (HOMO)
       141                         -0.2986786              -8.1275 (LUMO)
       142                         -0.2677701              -7.2864
       143                         -0.2530299              -6.8853
       144                         -0.2453900              -6.6774
       145                         -0.2432207              -6.6184
       146                         -0.2343249              -6.3763
       147                         -0.2329370              -6.3385
       148                         -0.2310465              -6.2871
       149                         -0.2301772              -6.2634
       150                         -0.2274660              -6.1897
       151                         -0.2219533              -6.0397
       ...                                ...                  ...
       276                          0.7450998              20.2752
      -------------------------------------------------------------
                  HL-Gap            0.0570259 Eh            1.5518 eV

     #   Z          covCN         q      C6AA      α(0)
     1   6 C        2.920    -0.027    28.680     8.782
     2   6 C        2.918    -0.028    28.691     8.784
     3   6 C        2.925    -0.027    28.676     8.782
     4   6 C        2.981     0.002    27.966     8.675
     5   6 C        2.945     0.087    26.065     8.373
     6   7 N        1.852    -0.253    27.445     7.765
     7   6 C        2.960     0.077    26.288     8.410
     8   6 C        2.974    -0.005    28.134     8.700
     9   6 C        2.976     0.014    27.694     8.632
    10   6 C        2.924    -0.024    28.597     8.770
    11   6 C        2.921    -0.042    29.035     8.836
    12   6 C        2.913     0.064    26.566     8.452
    13   7 N        2.802    -0.045    22.101     6.982
    14   6 C        3.075     0.047    26.867     8.498
    15   6 C        2.909    -0.052    29.291     8.875
    16   6 C        2.924    -0.035    28.874     8.812
    17   6 C        2.919    -0.043    29.064     8.841
    18   6 C        2.912    -0.035    28.868     8.810
    19   6 C        3.067    -0.019    28.402     8.739
    20   6 C        3.067    -0.019    28.403     8.739
    21   6 C        2.912    -0.035    28.870     8.811
    22   6 C        2.919    -0.043    29.062     8.840
    23   6 C        2.924    -0.035    28.869     8.811
    24   6 C        2.909    -0.052    29.281     8.873
    25   6 C        3.076     0.047    26.865     8.498
    26   6 C        2.920    -0.042    29.055     8.839
    27   6 C        2.925    -0.033    28.818     8.804
    28   6 C        2.920    -0.038    28.954     8.824
    29   6 C        2.921    -0.039    28.958     8.825
    30   6 C        2.973    -0.005    28.132     8.700
    31   6 C        2.975     0.013    27.718     8.636
    32   6 C        2.925    -0.034    28.842     8.807
    33   6 C        2.920    -0.043    29.077     8.843
    34   6 C        2.912     0.064    26.576     8.453
    35   7 N        2.801    -0.045    22.100     6.982
    36   6 C        3.075     0.047    26.868     8.499
    37   6 C        2.910    -0.052    29.290     8.874
    38   6 C        2.924    -0.035    28.875     8.812
    39   6 C        2.919    -0.043    29.063     8.841
    40   6 C        2.912    -0.035    28.869     8.811
    41   6 C        3.067    -0.019    28.402     8.739
    42   6 C        3.067    -0.019    28.403     8.739
    43   6 C        2.912    -0.035    28.870     8.811
    44   6 C        2.919    -0.043    29.063     8.840
    45   6 C        2.924    -0.035    28.870     8.811
    46   6 C        2.910    -0.052    29.284     8.873
    47   6 C        3.075     0.047    26.867     8.498
    48   6 C        2.921    -0.042    29.045     8.838
    49   6 C        2.923    -0.026    28.647     8.777
    50   6 C        2.959     0.076    26.293     8.411
    51   7 N        1.853    -0.253    27.446     7.765
    52   6 C        2.945     0.088    26.050     8.371
    53   6 C        2.982     0.003    27.962     8.674
    54   6 C        2.925    -0.026    28.656     8.779
    55   6 C        2.918    -0.027    28.681     8.782
    56   6 C        2.920    -0.027    28.674     8.781
    57   6 C        2.919    -0.028    28.697     8.785
    58   6 C        2.922    -0.031    28.762     8.795
    59   6 C        2.923    -0.031    28.766     8.795
    60   6 C        2.919    -0.028    28.700     8.785
    61   1 H        0.926     0.041     2.432     2.439
    62   1 H        0.926     0.041     2.431     2.438
    63   1 H        0.926     0.043     2.410     2.428
    64   1 H        0.926     0.041     2.440     2.443
    65   1 H        0.926     0.044     2.395     2.420
    66   1 H        0.926     0.030     2.586     2.515
    67   1 H        0.926     0.030     2.588     2.516
    68   1 H        0.926     0.028     2.621     2.532
    69   1 H        0.926     0.030     2.586     2.515
    70   1 H        0.926     0.030     2.587     2.515
    71   1 H        0.926     0.028     2.618     2.530
    72   1 H        0.926     0.030     2.582     2.513
    73   1 H        0.926     0.031     2.571     2.508
    74   1 H        0.926     0.045     2.382     2.414
    75   1 H        0.926     0.043     2.408     2.427
    76   1 H        0.926     0.048     2.339     2.392
    77   1 H        0.926     0.048     2.343     2.393
    78   1 H        0.926     0.042     2.426     2.436
    79   1 H        0.926     0.044     2.391     2.418
    80   1 H        0.926     0.030     2.582     2.513
    81   1 H        0.926     0.030     2.588     2.516
    82   1 H        0.926     0.028     2.622     2.532
    83   1 H        0.926     0.030     2.587     2.515
    84   1 H        0.926     0.030     2.588     2.515
    85   1 H        0.926     0.028     2.619     2.531
    86   1 H        0.926     0.030     2.585     2.514
    87   1 H        0.926     0.031     2.573     2.508
    88   1 H        0.926     0.044     2.390     2.418
    89   1 H        0.926     0.048     2.347     2.396
    90   1 H        0.926     0.042     2.428     2.437
    91   1 H        0.926     0.041     2.434     2.440
    92   1 H        0.926     0.042     2.427     2.436
    93   1 H        0.926     0.040     2.455     2.450
    94   1 H        0.926     0.028     2.617     2.530
    95   1 H        0.926     0.027     2.628     2.535
    96   1 H        0.926     0.039     2.463     2.454

molecular dipole:
                 x           y           z       tot (Debye)
 q only:       -0.022      -0.422       0.086
   full:       -0.017      -0.414       0.065       1.067

 projected vibrational frequencies (cm⁻¹)
eigval :       -0.00    -0.00    -0.00    -0.00    -0.00     0.00
eigval :        9.72    11.81    13.56    16.51    17.92    21.21
eigval :       34.92    44.55    45.53    46.89    51.12    56.64
eigval :       64.65    68.56    81.38    86.31    89.90    99.87
eigval :      100.65   105.87   111.25   144.42   146.02   150.03
eigval :      158.62   162.14   171.13   188.35   206.99   218.73
eigval :      221.85   228.91   245.48   265.27   270.70   271.99
eigval :      275.69   280.27   295.87   308.42   347.42   363.83
eigval :      369.95   371.95   376.83   381.73   383.44   384.64
eigval :      387.83   394.75   399.64   412.88   421.02   424.31
eigval :      428.04   433.20   436.98   445.39   457.24   468.95
eigval :      494.35   502.82   516.98   518.69   522.02   535.05
eigval :      536.03   541.43   542.42   557.05   561.33   563.39
eigval :      578.93   581.21   585.75   587.55   592.12   595.94
eigval :      601.49   604.86   605.56   618.27   635.36   656.05
eigval :      659.46   669.75   674.42   674.51   677.42   680.33
eigval :      695.16   697.81   707.33   708.19   708.61   716.77
eigval :      737.12   748.52   756.10   757.16   762.01   762.75
eigval :      768.76   768.96   776.07   779.70   780.02   814.02
eigval :      821.31   846.49   865.48   865.77   873.15   873.35
eigval :      874.40   876.60   877.09   877.48   891.60   897.19
eigval :      897.54   901.09   901.81   902.05   902.43   903.16
eigval :      906.23   909.60   914.05   918.05   918.87   919.85
eigval :      920.50   924.63   925.11   928.18   928.74   930.26
eigval :      931.21   932.29   932.69   932.86   956.51   965.18
eigval :      977.17  1010.73  1011.32  1011.53  1024.20  1031.12
eigval :     1068.47  1069.09  1071.79  1072.54  1079.33  1081.97
eigval :     1101.87  1116.22  1116.36  1118.27  1120.60  1134.32
eigval :     1136.65  1142.44  1143.73  1150.17  1150.70  1174.35
eigval :     1174.41  1178.67  1179.17  1179.51  1180.67  1182.49
eigval :     1182.92  1192.98  1196.65  1200.32  1202.79  1235.18
eigval :     1235.34  1236.52  1242.55  1247.78  1255.07  1256.85
eigval :     1266.88  1268.77  1275.30  1278.56  1280.32  1297.76
eigval :     1298.78  1300.39  1301.03  1309.51  1315.55  1316.00
eigval :     1320.13  1324.29  1333.52  1345.55  1355.49  1355.75
eigval :     1360.13  1360.30  1365.96  1367.92  1390.92  1402.25
eigval :     1405.23  1426.07  1426.50  1427.07  1427.64  1428.61
eigval :     1429.19  1443.49  1459.38  1473.83  1473.92  1474.91
eigval :     1476.44  1486.48  1486.64  1492.83  1494.07  1519.06
eigval :     1535.29  1555.15  1558.37  1571.66  1573.04  1574.17
eigval :     1578.87  1579.91  1586.79  1587.04  1591.22  1592.49
eigval :     1593.09  1595.79  1596.75  1596.87  1612.59  1612.69
eigval :     3070.02  3070.26  3070.61  3070.72  3072.61  3073.50
eigval :     3075.75  3076.03  3076.09  3076.10  3076.99  3077.03
eigval :     3077.52  3079.05  3080.67  3082.21  3082.53  3084.45
eigval :     3084.78  3085.71  3086.43  3086.58  3088.18  3089.42
eigval :     3090.09  3091.28  3091.42  3091.74  3092.25  3092.39
eigval :     3093.93  3095.27  3096.22  3099.15  3100.09  3108.30

   temp. (K)  partition function   enthalpy   heat capacity  entropy
                                   cal/mol     cal/K/mol   cal/K/mol   J/K/mol
 298.15  VIB  0.560E+22            27366.735    173.957    170.914
         ROT  0.203E+09              888.752      2.981     40.997
         INT  0.114E+31            28255.487    176.938    211.911
         TR   0.205E+29             1481.254      4.968     45.762
         TOT                       29736.7409   181.9064   257.6724  1078.1014

       T/K    H(0)-H(T)+PV         H(T)/Eh          T*S/Eh         G(T)/Eh
   ------------------------------------------------------------------------
    298.15    0.473885E-01    0.782286E+00    0.122428E+00    0.659857E+00
   ------------------------------------------------------------------------

         :::::::::::::::::::::::::::::::::::::::::::::::::::::
         ::                  THERMODYNAMIC                  ::
         :::::::::::::::::::::::::::::::::::::::::::::::::::::
         :: total free energy        -149.443867057100 Eh   ::
         ::.................................................::
         :: total energy             -150.103724281881 Eh   ::
         :: zero point energy           0.734897194714 Eh   ::
         :: G(RRHO) w/o ZPVE           -0.075039969933 Eh   ::
         :: G(RRHO) contrib.            0.659857224780 Eh   ::
         :::::::::::::::::::::::::::::::::::::::::::::::::::::

           -------------------------------------------------
          | TOTAL ENERGY             -150.103724281881 Eh   |
          | TOTAL ENTHALPY           -149.321438574056 Eh   |
          | TOTAL FREE ENERGY        -149.443867057100 Eh   |
          | GRADIENT NORM               0.000058140353 Eh/α |
          | HOMO-LUMO GAP               1.551752971145 eV   |
           -------------------------------------------------

 * finished run on 2025/07/21 at 05:03:06.488
