   * xtb version 6.7.1 (edcfbbe) compiled by 'albert@albert-system' on 2024-07-22

   ID    Z sym.   atoms
    1    6 C      1-5, 7-12, 14-34, 36-50, 52-60
    2    7 N      6, 13, 35, 51
    3    1 H      61-96

          program call               : xtb data2507/toluene/BDQPCz/BDQPCz_toluene_S0_finalOpt.xtbopt.xyz --gfn 2 --uhf 2 --gbsa toluene --ohess vtight --parallel 40 --molden --ceasefiles --namespace data2507/toluene/BDQPCz/BDQPCz_toluene_T1_preOpt
      * Solvation model:               GBSA
        Solvent                        toluene
        Solvent mass                       9.2140E+01 g/mol
          :  Hamiltonian                  GFN2-xTB          :
 * total energy  :  -150.0408290 Eh     change       -0.7065211E-07 Eh
 * total energy  :  -150.0438767 Eh     change       -0.3047719E-02 Eh
 * total energy  :  -150.0449146 Eh     change       -0.1037898E-02 Eh
 * total energy  :  -150.0451085 Eh     change       -0.1938307E-03 Eh
 * total energy  :  -150.0452427 Eh     change       -0.1342405E-03 Eh
 * total energy  :  -150.0453006 Eh     change       -0.5793399E-04 Eh
 * total energy  :  -150.0453694 Eh     change       -0.6880062E-04 Eh
 * total energy  :  -150.0454187 Eh     change       -0.4920663E-04 Eh
 * total energy  :  -150.0454496 Eh     change       -0.3094827E-04 Eh
 * total energy  :  -150.0454663 Eh     change       -0.1672517E-04 Eh
 * total energy  :  -150.0458865 Eh     change       -0.4918663E-06 Eh
 * total energy  :  -150.0458870 Eh     change       -0.5352731E-06 Eh
 * total energy  :  -150.0458874 Eh     change       -0.3851054E-06 Eh
 * total energy  :  -150.0458876 Eh     change       -0.1998870E-06 Eh
 * total energy  :  -150.0458878 Eh     change       -0.1457546E-06 Eh
 * total energy  :  -150.0458879 Eh     change       -0.1196078E-06 Eh
 * total energy  :  -150.0458880 Eh     change       -0.1284357E-06 Eh
 * total energy  :  -150.0458881 Eh     change       -0.1044630E-06 Eh
 * total energy  :  -150.0458882 Eh     change       -0.5344060E-07 Eh
   *** GEOMETRY OPTIMIZATION CONVERGED AFTER 67 ITERATIONS ***

 final structure:
================
96
 xtb: 6.7.1 (edcfbbe)
C           -3.14649233032099       -5.66554035787684       -0.52748814130280
C           -3.63586143933006       -4.57859577251749        0.17936233253117
C           -2.84260668201930       -3.46565273386728        0.37996894553733
C           -1.53987039070336       -3.42629025732537       -0.11971125322041
C           -0.73574429812462       -2.22066648080053        0.07087585788480
N           -1.36183671811321       -1.05280552349671        0.04494185151820
C           -0.73205164986034        0.11819180803926        0.04054533274216
C           -1.41593447476744        1.34366907170795       -0.04469863680579
C           -2.87446184846951        1.37994260058417       -0.05309209374835
C           -3.61947060161966        0.53877442071087        0.77823825362781
C           -4.99580690833884        0.57819597473259        0.78161056335663
C           -5.67539712077404        1.45615267987198       -0.06220721194015
N           -7.07635114052486        1.47374045489694       -0.07897396323811
C           -7.87718656700710        2.59203674834193        0.03653443660513
C           -7.51962041831180        3.91840778307606        0.23711963140423
C           -8.53386452512300        4.85064847937489        0.34930971068006
C           -9.87482741967441        4.47896889098288        0.27575954634799
C          -10.23740482470479        3.15724004655875        0.10071500776310
C           -9.23622113127445        2.20227226414283       -0.01621119772900
C           -9.24458218997066        0.77410365508939       -0.17940277377657
C          -10.25630033231245       -0.16774918444030       -0.31187430346721
C           -9.90816020184346       -1.49416855961336       -0.48077126938979
C           -8.57116243003034       -1.88333813927865       -0.53420468090541
C           -7.54649225142310       -0.96467007560313       -0.40602428234062
C           -7.89040162689283        0.36622650199432       -0.20976636123655
C           -4.94544974820638        2.30500755006813       -0.89141863155477
C           -3.56692483954055        2.26781451170144       -0.88207835119179
C           -0.66189742977403        2.52183788252108       -0.17974618365288
C            0.70732501775116        2.50170302649840       -0.23884391537058
C            1.43554388877265        1.30236314984767       -0.12975197371232
C            2.89345458900820        1.30925111305435       -0.11343397437242
C            3.60838593286674        2.26886445729010       -0.84264640706199
C            4.98574265258467        2.26983666182856       -0.86311693320007
C            5.70397853529238        1.32244223608010       -0.13458477941920
N            7.10445917806340        1.32336997026610       -0.14862462845597
C            7.91400476124066        2.41817059471910        0.08058884149678
C            7.56656821742416        3.72149759784824        0.40971777862268
C            8.58790057054919        4.63018537587101        0.61381478991630
C            9.92604819999882        4.25702531707547        0.50564448048297
C           10.27860527604537        2.95589444150684        0.20185212007692
C            9.27014129087960        2.02520926605979       -0.00829900971886
C            9.26812342021428        0.61990220719600       -0.31065352169304
C           10.27407120416321       -0.31082471672618       -0.53303280913862
C            9.91794331738365       -1.61220020415121       -0.83115877969137
C            8.57860652111209       -1.98557378101257       -0.92185995749323
C            7.55987069339424       -1.07684270953437       -0.70566461277256
C            7.91108444101323        0.22704138255861       -0.38288634542035
C            5.00645206559640        0.37384157644363        0.61132920021469
C            3.62899262661418        0.37058617168421        0.61738130269980
C            0.71647138475764        0.10288387469914        0.01920894031124
N            1.31458052687360       -1.07375658409097        0.16016713335246
C            0.66567731241565       -2.22747005727913        0.25117284782601
C            1.45142335224502       -3.41533658306831        0.57522703972277
C            2.74895200976101       -3.52656523715091        0.07122638575275
C            3.53200965349603       -4.61810903171219        0.39248702931854
C            3.03828567018636       -5.60904821044903        1.22635320498071
C            1.75827109190823       -5.49520621715548        1.74740643901584
C            0.96927014596067       -4.40630804257593        1.43112629368169
C           -1.06329350579221       -4.51484589154308       -0.85114052337663
C           -1.86156049924779       -5.62515649476711       -1.04702822305703
H           -3.76557286760000       -6.53694743989736       -0.68108119134560
H           -4.64038338327598       -4.59832818356639        0.57672191959334
H           -3.21733575744402       -2.61506481855388        0.92822543339777
H           -3.10188507101780       -0.13120751107417        1.44684681916417
H           -5.55799072300471       -0.05622095898577        1.45098445331449
H           -6.48398003969726        4.21300058662259        0.31386925538170
H           -8.28133590098408        5.88984746958906        0.50216192196307
H          -10.63868552511965        5.23730167652392        0.36624100759307
H          -11.27707089637228        2.86839321121795        0.06077692317792
H          -11.29259688036646        0.13463261946464       -0.28828618579678
H          -10.68052944282167       -2.24232890017960       -0.58314021519234
H           -8.32971281541300       -2.92545892768066       -0.68491170914137
H           -6.51369498125861       -1.27262206338779       -0.46970767153663
H           -5.46668936407035        2.97339052172388       -1.56084907913910
H           -3.01576791355470        2.91204179431834       -1.55085851058469
H           -1.18322794704253        3.46640046099651       -0.21420609454189
H            1.24585435827272        3.43313390702946       -0.31897848038568
H            3.07579719043767        2.99162516459097       -1.44166173559024
H            5.51730575922649        2.98979234314744       -1.46779013027357
H            6.53346497769025        4.01559335023906        0.51563420858568
H            8.34318813167178        5.65120623245520        0.86806703335024
H           10.69576676378924        4.99649272209068        0.67106936477964
H           11.31593127743889        2.66416431472819        0.13368532886460
H           11.31208577812594       -0.01872382751739       -0.47849293143518
H           10.68567193838890       -2.35174535005580       -1.00532797390804
H            8.33100259557288       -3.00707871706849       -1.17133416520455
H            6.52555485229341       -1.37144912716208       -0.79548425776249
H            5.55188862976247       -0.34517288710196        1.20436298974665
H            3.10559195064990       -0.36242762264287        1.21196914231256
H            3.12246085326707       -2.74898213399275       -0.57855191747198
H            4.53224262579468       -4.69618813985204       -0.00839055048494
H            3.65019770871258       -6.46320182783846        1.47551143280058
H            1.37495556074367       -6.25644082816308        2.41109489685223
H           -0.01966831212102       -4.31380338842358        1.85571011515582
H           -0.07076208062167       -4.48287958855054       -1.27593929712123
H           -1.48075814804339       -6.46174359728463       -1.61445182027481

          :  Hamiltonian                  GFN2-xTB          :
         :: gradient norm              0.000026335697 Eh/a0 ::
         :: HOMO-LUMO gap              0.877119802472 eV    ::
         :: SCC energy              -152.878826397668 Eh    ::
         :: -> dispersion             -0.139390106651 Eh    ::
         :: -> Gsolv                  -0.062110686099 Eh    ::
         :: repulsion energy           2.832938227233 Eh    ::

    * Orbital Energies and Occupations

         #    Occupation            Energy/Eh            Energy/eV
      -------------------------------------------------------------
         1        2.0000           -0.6788252             -18.4718
       ...           ...                  ...                  ...
       129        2.0000           -0.4093617             -11.1393
       130        2.0000           -0.4080524             -11.1037
       131        2.0000           -0.4075057             -11.0888
       132        2.0000           -0.4073695             -11.0851
       133        2.0000           -0.4067100             -11.0671
       134        2.0000           -0.3894324             -10.5970
       135        2.0000           -0.3810902             -10.3700
       136        2.0000           -0.3803744             -10.3505
       137        2.0000           -0.3800365             -10.3413
       138        1.9989           -0.3645975              -9.9212
       139        1.9405           -0.3607445              -9.8164
       140        1.0606           -0.3555173              -9.6741
       141        1.0000           -0.2982692              -8.1163 (HOMO)
       142                         -0.2660356              -7.2392 (LUMO)
       143                         -0.2524125              -6.8685
       144                         -0.2475951              -6.7374
       145                         -0.2451598              -6.6711
       146                         -0.2329452              -6.3388
       147                         -0.2304385              -6.2706
       148                         -0.2287809              -6.2254
       149                         -0.2284688              -6.2170
       150                         -0.2245438              -6.1101
       151                         -0.2245193              -6.1095
       152                         -0.2238229              -6.0905
       ...                                ...                  ...
       276                          0.7425922              20.2070
      -------------------------------------------------------------
                  HL-Gap            0.0322336 Eh            0.8771 eV

     #   Z          covCN         q      C6AA      α(0)
     1   6 C        2.919    -0.030    28.752     8.793
     2   6 C        2.918    -0.029    28.716     8.787
     3   6 C        2.925    -0.030    28.745     8.792
     4   6 C        2.978     0.007    27.870     8.660
     5   6 C        2.930     0.075    26.323     8.414
     6   7 N        1.855    -0.230    26.885     7.685
     7   6 C        2.938     0.084    26.126     8.383
     8   6 C        2.973    -0.022    28.559     8.766
     9   6 C        2.975     0.014    27.685     8.631
    10   6 C        2.924    -0.029    28.736     8.791
    11   6 C        2.919    -0.042    29.041     8.837
    12   6 C        2.913     0.060    26.664     8.467
    13   7 N        2.802    -0.037    21.964     6.961
    14   6 C        3.074     0.047    26.865     8.498
    15   6 C        2.909    -0.050    29.239     8.867
    16   6 C        2.923    -0.034    28.854     8.809
    17   6 C        2.920    -0.041    29.015     8.833
    18   6 C        2.912    -0.034    28.841     8.806
    19   6 C        3.067    -0.017    28.368     8.734
    20   6 C        3.066    -0.017    28.368     8.734
    21   6 C        2.912    -0.034    28.842     8.806
    22   6 C        2.920    -0.041    29.012     8.833
    23   6 C        2.923    -0.034    28.850     8.808
    24   6 C        2.909    -0.050    29.229     8.865
    25   6 C        3.075     0.047    26.864     8.498
    26   6 C        2.919    -0.043    29.070     8.842
    27   6 C        2.924    -0.035    28.880     8.813
    28   6 C        2.916    -0.047    29.162     8.855
    29   6 C        2.916    -0.046    29.152     8.854
    30   6 C        2.972    -0.024    28.588     8.770
    31   6 C        2.973     0.015    27.673     8.629
    32   6 C        2.925    -0.036    28.901     8.816
    33   6 C        2.919    -0.043    29.067     8.841
    34   6 C        2.912     0.059    26.686     8.471
    35   7 N        2.801    -0.036    21.931     6.955
    36   6 C        3.074     0.047    26.868     8.499
    37   6 C        2.909    -0.049    29.227     8.865
    38   6 C        2.923    -0.034    28.848     8.808
    39   6 C        2.920    -0.040    29.002     8.831
    40   6 C        2.912    -0.033    28.834     8.805
    41   6 C        3.066    -0.017    28.358     8.732
    42   6 C        3.066    -0.017    28.359     8.732
    43   6 C        2.912    -0.034    28.835     8.805
    44   6 C        2.920    -0.040    29.004     8.832
    45   6 C        2.923    -0.034    28.846     8.808
    46   6 C        2.910    -0.049    29.219     8.864
    47   6 C        3.074     0.047    26.869     8.499
    48   6 C        2.919    -0.042    29.052     8.839
    49   6 C        2.924    -0.033    28.832     8.806
    50   6 C        2.937     0.084    26.137     8.385
    51   7 N        1.857    -0.223    26.713     7.661
    52   6 C        2.929     0.072    26.387     8.424
    53   6 C        2.979     0.006    27.875     8.660
    54   6 C        2.925    -0.030    28.748     8.793
    55   6 C        2.918    -0.028    28.712     8.787
    56   6 C        2.919    -0.030    28.761     8.794
    57   6 C        2.918    -0.028    28.711     8.787
    58   6 C        2.922    -0.033    28.831     8.805
    59   6 C        2.922    -0.033    28.822     8.804
    60   6 C        2.918    -0.028    28.712     8.787
    61   1 H        0.926     0.039     2.466     2.456
    62   1 H        0.926     0.039     2.458     2.452
    63   1 H        0.926     0.040     2.446     2.446
    64   1 H        0.926     0.041     2.438     2.442
    65   1 H        0.926     0.042     2.416     2.431
    66   1 H        0.926     0.032     2.551     2.498
    67   1 H        0.926     0.032     2.556     2.500
    68   1 H        0.926     0.030     2.581     2.512
    69   1 H        0.926     0.033     2.547     2.496
    70   1 H        0.926     0.033     2.547     2.496
    71   1 H        0.926     0.031     2.578     2.511
    72   1 H        0.926     0.032     2.552     2.498
    73   1 H        0.926     0.033     2.545     2.495
    74   1 H        0.926     0.043     2.409     2.427
    75   1 H        0.926     0.041     2.433     2.439
    76   1 H        0.926     0.038     2.477     2.461
    77   1 H        0.926     0.039     2.462     2.454
    78   1 H        0.926     0.042     2.416     2.430
    79   1 H        0.926     0.044     2.394     2.419
    80   1 H        0.926     0.033     2.538     2.491
    81   1 H        0.926     0.033     2.548     2.496
    82   1 H        0.926     0.031     2.572     2.508
    83   1 H        0.926     0.033     2.539     2.492
    84   1 H        0.926     0.033     2.540     2.492
    85   1 H        0.926     0.031     2.572     2.508
    86   1 H        0.926     0.033     2.549     2.497
    87   1 H        0.926     0.033     2.543     2.494
    88   1 H        0.926     0.042     2.419     2.432
    89   1 H        0.926     0.051     2.301     2.372
    90   1 H        0.926     0.038     2.470     2.458
    91   1 H        0.926     0.039     2.465     2.455
    92   1 H        0.926     0.038     2.471     2.458
    93   1 H        0.926     0.037     2.490     2.468
    94   1 H        0.926     0.028     2.612     2.527
    95   1 H        0.926     0.028     2.608     2.525
    96   1 H        0.926     0.037     2.488     2.467

molecular dipole:
                 x           y           z       tot (Debye)
 q only:        0.179      -0.235       0.029
   full:        0.190      -0.227       0.019       0.753

 projected vibrational frequencies (cm⁻¹)
eigval :       -0.00    -0.00     0.00     0.00     0.00     0.00
eigval :        6.91     9.19    11.99    15.19    17.62    18.73
eigval :       35.05    42.06    42.93    46.36    48.98    57.73
eigval :       60.08    71.81    74.81    86.12    92.30    98.85
eigval :      101.25   106.50   111.33   144.80   147.04   149.68
eigval :      156.52   162.38   169.11   193.20   208.05   217.07
eigval :      219.63   223.34   242.43   265.92   268.87   272.39
eigval :      274.02   277.48   297.05   302.82   335.96   347.86
eigval :      369.61   370.64   377.63   379.28   380.29   382.95
eigval :      384.13   392.87   396.64   409.47   414.90   420.12
eigval :      424.01   433.13   436.89   443.47   454.85   466.49
eigval :      487.08   502.34   514.32   517.34   517.93   535.58
eigval :      537.75   539.61   541.84   546.38   551.75   557.96
eigval :      570.01   577.27   583.52   583.80   585.17   590.63
eigval :      594.82   598.22   599.15   614.43   619.41   630.33
eigval :      651.18   663.62   665.13   672.37   673.59   674.22
eigval :      676.31   684.63   689.43   698.31   706.38   710.34
eigval :      715.72   734.91   747.24   755.67   755.90   757.72
eigval :      761.49   768.33   769.68   778.91   779.84   798.09
eigval :      813.37   821.77   854.17   861.80   868.68   870.62
eigval :      871.87   872.88   873.60   875.49   885.26   894.59
eigval :      895.17   896.69   897.46   899.12   901.16   901.72
eigval :      902.61   903.36   904.73   911.98   917.59   918.41
eigval :      919.79   920.23   923.03   925.59   925.81   926.32
eigval :      926.61   928.74   929.55   931.83   949.58   952.29
eigval :      974.28  1004.06  1010.91  1010.95  1016.12  1019.92
eigval :     1068.23  1068.69  1071.69  1072.02  1079.16  1081.06
eigval :     1103.61  1113.20  1115.80  1116.17  1118.00  1120.58
eigval :     1138.11  1140.68  1148.39  1148.80  1154.83  1173.59
eigval :     1173.90  1177.76  1177.86  1178.58  1178.61  1181.14
eigval :     1181.87  1190.76  1191.96  1196.45  1203.69  1210.94
eigval :     1226.93  1233.00  1234.09  1241.38  1242.32  1255.79
eigval :     1263.83  1267.08  1267.88  1276.40  1279.05  1287.81
eigval :     1290.96  1295.52  1296.41  1296.82  1298.49  1308.09
eigval :     1317.47  1318.50  1319.12  1324.70  1352.60  1355.15
eigval :     1355.52  1356.08  1356.09  1361.66  1366.71  1391.46
eigval :     1404.08  1410.37  1416.91  1421.59  1422.67  1422.95
eigval :     1425.60  1426.64  1429.80  1436.70  1467.53  1468.29
eigval :     1468.60  1469.26  1475.82  1479.50  1484.43  1484.59
eigval :     1487.42  1510.11  1537.29  1544.44  1569.33  1570.37
eigval :     1570.39  1570.65  1577.07  1583.53  1584.82  1585.82
eigval :     1586.34  1587.27  1590.70  1591.19  1606.12  1607.69
eigval :     3072.23  3072.57  3072.66  3072.80  3073.08  3073.27
eigval :     3074.12  3075.70  3078.04  3078.76  3078.83  3079.58
eigval :     3079.93  3081.52  3082.35  3083.77  3083.94  3084.21
eigval :     3084.74  3086.30  3087.14  3087.19  3087.39  3088.54
eigval :     3091.63  3091.66  3092.67  3093.43  3093.52  3093.65
eigval :     3094.00  3095.32  3095.66  3098.43  3099.55  3100.59

   temp. (K)  partition function   enthalpy   heat capacity  entropy
                                   cal/mol     cal/K/mol   cal/K/mol   J/K/mol
 298.15  VIB  0.207E+23            27593.271    175.101    172.918
         ROT  0.207E+09              888.752      2.981     41.031
         INT  0.428E+31            28482.024    178.082    213.949
         TR   0.205E+29             1481.254      4.968     45.762
         TOT                       29963.2775   183.0502   259.7110  1086.6309

       T/K    H(0)-H(T)+PV         H(T)/Eh          T*S/Eh         G(T)/Eh
   ------------------------------------------------------------------------
    298.15    0.477495E-01    0.779524E+00    0.123397E+00    0.656127E+00
   ------------------------------------------------------------------------

         :::::::::::::::::::::::::::::::::::::::::::::::::::::
         ::                  THERMODYNAMIC                  ::
         :::::::::::::::::::::::::::::::::::::::::::::::::::::
         :: total free energy        -149.389761309889 Eh   ::
         ::.................................................::
         :: total energy             -150.045888172103 Eh   ::
         :: zero point energy           0.731774421548 Eh   ::
         :: G(RRHO) w/o ZPVE           -0.075647559334 Eh   ::
         :: G(RRHO) contrib.            0.656126862214 Eh   ::
         :::::::::::::::::::::::::::::::::::::::::::::::::::::

           -------------------------------------------------
          | TOTAL ENERGY             -150.045888172103 Eh   |
          | TOTAL ENTHALPY           -149.266364228468 Eh   |
          | TOTAL FREE ENERGY        -149.389761309889 Eh   |
          | GRADIENT NORM               0.000024332416 Eh/α |
          | HOMO-LUMO GAP               0.877120409464 eV   |
           -------------------------------------------------

 * finished run on 2025/07/21 at 05:03:21.111
