   * xtb version 6.7.1 (edcfbbe) compiled by 'albert@albert-system' on 2024-07-22

   ID    Z sym.   atoms
    1    6 C      1-5, 7-12, 14-34, 36-50, 52-60
    2    7 N      6, 13, 35, 51
    3    1 H      61-96

          program call               : xtb data2507/toluene/BDQPCz/BDQPCz_toluene_T1_crest.xyz --gfn 2 --uhf 2 --gbsa toluene --ohess vtight --parallel 40 --molden --ceasefiles --namespace data2507/toluene/BDQPCz/BDQPCz_toluene_T1_finalOpt
      * Solvation model:               GBSA
        Solvent                        toluene
        Solvent mass                       9.2140E+01 g/mol
          :  Hamiltonian                  GFN2-xTB          :
 * total energy  :  -150.0465890 Eh     change       -0.1083629E-07 Eh
 * total energy  :  -150.0466405 Eh     change       -0.5148764E-04 Eh
 * total energy  :  -150.0466733 Eh     change       -0.3283210E-04 Eh
 * total energy  :  -150.0466897 Eh     change       -0.1645836E-04 Eh
 * total energy  :  -150.0467060 Eh     change       -0.1628266E-04 Eh
 * total energy  :  -150.0467222 Eh     change       -0.1616967E-04 Eh
 * total energy  :  -150.0467361 Eh     change       -0.1390374E-04 Eh
 * total energy  :  -150.0467474 Eh     change       -0.1127954E-04 Eh
 * total energy  :  -150.0467571 Eh     change       -0.9751219E-05 Eh
 * total energy  :  -150.0467672 Eh     change       -0.1004085E-04 Eh
 * total energy  :  -150.0469118 Eh     change       -0.6643211E-06 Eh
 * total energy  :  -150.0469127 Eh     change       -0.9032553E-06 Eh
 * total energy  :  -150.0469140 Eh     change       -0.1357249E-05 Eh
 * total energy  :  -150.0469157 Eh     change       -0.1608483E-05 Eh
 * total energy  :  -150.0469165 Eh     change       -0.8846146E-06 Eh
 * total energy  :  -150.0469171 Eh     change       -0.5727031E-06 Eh
 * total energy  :  -150.0469176 Eh     change       -0.5134875E-06 Eh
 * total energy  :  -150.0469179 Eh     change       -0.2990652E-06 Eh
 * total energy  :  -150.0469180 Eh     change       -0.3637982E-07 Eh
   *** GEOMETRY OPTIMIZATION CONVERGED AFTER 44 ITERATIONS ***

 final structure:
================
96
 xtb: 6.7.1 (edcfbbe)
C           -3.12711112666865       -5.64256183163706        0.72533895111894
C           -1.85492335867882       -5.57712731152736        1.27287660461704
C           -1.04954821976828       -4.47904732351448        1.03980752297242
C           -1.50746030583598       -3.42992570524941        0.24252433032020
C           -0.70307968829862       -2.23201627489692        0.00863067268326
N           -1.33996259132500       -1.06836529901984       -0.01616089777867
C           -0.72058963181398        0.10625541222988       -0.06977386467712
C           -1.42485582345398        1.32332130822018       -0.10005478525498
C           -2.88143581549906        1.34912705299770       -0.04939709135298
C           -3.61400854915779        0.37039643213105        0.63000397954838
C           -4.99104759247917        0.39276752211776        0.65643464759524
C           -5.69119618516869        1.40012268766967       -0.00544484600297
N           -7.09142397181561        1.41764238727640        0.00964279673468
C           -7.88451861515376        2.50498888198889        0.31953592142060
C           -7.51769484378651        3.78258239572780        0.72060288269168
C           -8.52530941062129        4.68753160036075        0.99679997791126
C           -9.86922103588324        4.33522996168072        0.89022749849162
C          -10.24094950114396        3.05826798970339        0.51589924267228
C           -9.24634941858018        2.13218846465358        0.23153385615619
C           -9.26598064289076        0.74829878490145       -0.15594394601759
C          -10.28702444601919       -0.15611591254080       -0.41577228095075
C           -9.95216563048270       -1.44109475276527       -0.79707996347257
C           -8.61914102432287       -1.82263203008846       -0.93482530648753
C           -7.58590767580882       -0.93968938043514       -0.68356712652175
C           -7.91518223499437        0.34608976866705       -0.27622786610769
C           -4.97512318112479        2.38772236208541       -0.68102111968673
C           -3.59775934802144        2.36815345218393       -0.69107863403896
C           -0.67964346518485        2.51725291719689       -0.11775268097275
C            0.68881304366234        2.51591232104373       -0.05618288230172
C            1.43368885846382        1.32095320212985       -0.04331030502213
C            2.89079940232177        1.34671882643299       -0.04936104460176
C            3.58324993408579        2.39181906888164        0.57819982967215
C            4.95942621185921        2.40952727484151        0.62661385589757
C            5.70082326289259        1.39033428322362        0.03008887273544
N            7.10029335806719        1.40341394955984        0.08302209624266
C            7.90286431903732        0.35392827068074        0.48528571733227
C            7.54579024849703       -0.90406976089693        0.95135221056882
C            8.55975192971668       -1.76792295218872        1.32010210638772
C            9.89950358996299       -1.39364695639014        1.23946302154161
C           10.26028282361646       -0.13482031933615        0.79885922520573
C            9.25926144003251        0.75023182031562        0.42120514169627
C            9.26556290090290        2.10728012742772       -0.05258198397661
C           10.27585346056935        3.01763866248704       -0.33238874104581
C            9.92793863959029        4.26748671958428       -0.80777552085596
C            8.59343422519213        4.60771845690568       -1.01979485997735
C            7.57037340350856        3.71882707829464       -0.74844976764904
C            7.91209080703133        2.47032417852436       -0.24653958596280
C            5.02731066819796        0.35681802275093       -0.61845656959537
C            3.65028438581097        0.34049825835039       -0.65586889457184
C            0.72698364537685        0.10405114930330       -0.07410385497472
N            1.34013024688766       -1.07345826246688       -0.12663456722959
C            0.69805285489719       -2.23471225933212       -0.15808810214432
C            1.49587560592564       -3.43501551353768       -0.40133424520161
C            1.03180036229258       -4.47353034078312       -1.20910390213193
C            1.83035631981123       -5.57421231439409       -1.45274370434802
C            3.10186426936894       -5.65302352223542       -0.90533558017291
C            3.57762007274665       -4.61569793605132       -0.11892684064544
C            2.78480436553291       -3.51196775002334        0.12918905171413
C           -2.79720867710500       -3.49329807168111       -0.28783209563800
C           -3.59686879511621       -4.59435472621106       -0.05018078445706
H           -3.75179143085616       -6.50405121790105        0.90914895717845
H           -1.49028369865037       -6.38390524460618        1.89175345660229
H           -0.06704200864254       -4.42522472842473        1.48542777786034
H           -3.08840219896016       -0.40933222113451        1.15938950986371
H           -5.53337113476458       -0.35861236848501        1.21085200295159
H           -6.47998684806904        4.05996010729482        0.82650610054887
H           -8.26487070961782        5.68904074240158        1.30699992709059
H          -10.62777843850839        5.07121238589730        1.11293786489043
H          -11.28236111413858        2.78108205748001        0.44891369067694
H          -11.32024119317821        0.14383404503016       -0.32467015100651
H          -10.73171840970466       -2.16048214508653       -1.00073038462578
H           -8.38813180361171       -2.83015495075101       -1.24882751369350
H           -6.55722006155067       -1.24005698904882       -0.81049229979817
H           -5.50867715007893        3.15539846533107       -1.22169817535773
H           -3.06743062002503        3.12482758776240       -1.24893838073953
H           -1.20538094235198        3.45936309161101       -0.13238532388361
H            1.21516896974906        3.45765943408286       -0.06033301490818
H            3.03350976037048        3.17230794896661        1.08145646343712
H            5.47228414996386        3.20040186066166        1.15397675888464
H            6.51021601933328       -1.19636549338928        1.03394431119527
H            8.30790242528017       -2.75374410834622        1.68313914751807
H           10.66356082990836       -2.09751757358777        1.53527613256296
H           11.29799285203748        0.15979448443502        0.75221589009567
H           11.31121125327286        2.74964676322775       -0.18391386061308
H           10.69902551558346        4.99075377608091       -1.02912640386918
H            8.35336753693821        5.58666335464030       -1.40843962476840
H            6.54059472158986        3.98460491932241       -0.93302534705688
H            5.59161370343826       -0.42072355956655       -1.11176765915146
H            3.14559364574304       -0.45952368999267       -1.17541552477684
H            0.05001928945729       -4.40887417667648       -1.65491151470306
H            1.46106241943158       -6.37240329849696       -2.07994954365251
H            3.72122978472234       -6.51653434927169       -1.09741999555697
H            4.57144077040186       -4.66667866539112        0.30174734363547
H            3.14484705101887       -2.69810540163623        0.74088971707704
H           -3.15227983599089       -2.67076935257637       -0.89083890530532
H           -4.59120169800126       -4.63488343963091       -0.47078176880163

          :  Hamiltonian                  GFN2-xTB          :
         :: gradient norm              0.000079982813 Eh/a0 ::
         :: HOMO-LUMO gap              0.897491901738 eV    ::
         :: SCC energy              -152.878912518254 Eh    ::
         :: -> dispersion             -0.139491455115 Eh    ::
         :: -> Gsolv                  -0.061961960101 Eh    ::
         :: repulsion energy           2.831994557063 Eh    ::

    * Orbital Energies and Occupations

         #    Occupation            Energy/Eh            Energy/eV
      -------------------------------------------------------------
         1        2.0000           -0.6782588             -18.4564
       ...           ...                  ...                  ...
       129        2.0000           -0.4094545             -11.1418
       130        2.0000           -0.4082325             -11.1086
       131        2.0000           -0.4070663             -11.0768
       132        2.0000           -0.4069189             -11.0728
       133        2.0000           -0.4064978             -11.0614
       134        2.0000           -0.3897350             -10.6052
       135        2.0000           -0.3805856             -10.3563
       136        2.0000           -0.3805313             -10.3548
       137        2.0000           -0.3799464             -10.3389
       138        1.9995           -0.3644708              -9.9178
       139        1.9768           -0.3607871              -9.8175
       140        1.0237           -0.3537033              -9.6248
       141        1.0000           -0.2988825              -8.1330 (HOMO)
       142                         -0.2659003              -7.2355 (LUMO)
       143                         -0.2532459              -6.8912
       144                         -0.2474307              -6.7329
       145                         -0.2452524              -6.6737
       146                         -0.2326217              -6.3300
       147                         -0.2305278              -6.2730
       148                         -0.2282265              -6.2104
       149                         -0.2281253              -6.2076
       150                         -0.2246930              -6.1142
       151                         -0.2240056              -6.0955
       152                         -0.2239742              -6.0946
       ...                                ...                  ...
       276                          0.7425357              20.2054
      -------------------------------------------------------------
                  HL-Gap            0.0329822 Eh            0.8975 eV

     #   Z          covCN         q      C6AA      α(0)
     1   6 C        2.919    -0.030    28.753     8.793
     2   6 C        2.919    -0.028    28.711     8.787
     3   6 C        2.922    -0.033    28.826     8.804
     4   6 C        2.979     0.006    27.878     8.661
     5   6 C        2.930     0.074    26.353     8.419
     6   7 N        1.856    -0.228    26.828     7.677
     7   6 C        2.938     0.083    26.144     8.386
     8   6 C        2.972    -0.023    28.565     8.767
     9   6 C        2.973     0.015    27.670     8.628
    10   6 C        2.924    -0.033    28.814     8.803
    11   6 C        2.919    -0.043    29.057     8.840
    12   6 C        2.912     0.059    26.675     8.469
    13   7 N        2.801    -0.037    21.952     6.959
    14   6 C        3.074     0.047    26.869     8.499
    15   6 C        2.910    -0.050    29.237     8.866
    16   6 C        2.923    -0.034    28.853     8.809
    17   6 C        2.920    -0.041    29.011     8.833
    18   6 C        2.912    -0.034    28.840     8.806
    19   6 C        3.066    -0.017    28.364     8.733
    20   6 C        3.066    -0.017    28.365     8.733
    21   6 C        2.912    -0.034    28.842     8.806
    22   6 C        2.920    -0.041    29.013     8.833
    23   6 C        2.923    -0.034    28.850     8.808
    24   6 C        2.910    -0.050    29.229     8.865
    25   6 C        3.074     0.047    26.870     8.499
    26   6 C        2.919    -0.043    29.073     8.842
    27   6 C        2.924    -0.036    28.898     8.816
    28   6 C        2.916    -0.047    29.155     8.854
    29   6 C        2.916    -0.047    29.160     8.855
    30   6 C        2.972    -0.023    28.568     8.767
    31   6 C        2.972     0.015    27.675     8.629
    32   6 C        2.925    -0.036    28.901     8.816
    33   6 C        2.919    -0.043    29.069     8.841
    34   6 C        2.912     0.059    26.680     8.470
    35   7 N        2.801    -0.037    21.953     6.959
    36   6 C        3.075     0.047    26.867     8.498
    37   6 C        2.910    -0.049    29.228     8.865
    38   6 C        2.923    -0.034    28.850     8.808
    39   6 C        2.920    -0.041    29.014     8.833
    40   6 C        2.912    -0.034    28.841     8.806
    41   6 C        3.067    -0.017    28.365     8.733
    42   6 C        3.066    -0.017    28.365     8.733
    43   6 C        2.912    -0.034    28.840     8.806
    44   6 C        2.920    -0.041    29.011     8.833
    45   6 C        2.923    -0.034    28.852     8.809
    46   6 C        2.909    -0.050    29.234     8.866
    47   6 C        3.075     0.047    26.867     8.498
    48   6 C        2.919    -0.042    29.050     8.839
    49   6 C        2.924    -0.034    28.838     8.807
    50   6 C        2.937     0.083    26.144     8.386
    51   7 N        1.856    -0.227    26.811     7.674
    52   6 C        2.929     0.073    26.363     8.420
    53   6 C        2.979     0.006    27.880     8.661
    54   6 C        2.922    -0.033    28.826     8.805
    55   6 C        2.918    -0.028    28.711     8.787
    56   6 C        2.919    -0.030    28.755     8.794
    57   6 C        2.918    -0.028    28.712     8.787
    58   6 C        2.925    -0.030    28.743     8.792
    59   6 C        2.925    -0.030    28.738     8.791
    60   6 C        2.918    -0.028    28.711     8.787
    61   1 H        0.926     0.039     2.469     2.457
    62   1 H        0.926     0.037     2.490     2.467
    63   1 H        0.926     0.028     2.610     2.526
    64   1 H        0.926     0.051     2.312     2.378
    65   1 H        0.926     0.042     2.420     2.433
    66   1 H        0.926     0.033     2.543     2.494
    67   1 H        0.926     0.032     2.554     2.499
    68   1 H        0.926     0.030     2.580     2.512
    69   1 H        0.926     0.033     2.546     2.495
    70   1 H        0.926     0.033     2.547     2.496
    71   1 H        0.926     0.031     2.579     2.511
    72   1 H        0.926     0.032     2.554     2.499
    73   1 H        0.926     0.033     2.545     2.495
    74   1 H        0.926     0.044     2.395     2.420
    75   1 H        0.926     0.042     2.417     2.431
    76   1 H        0.926     0.039     2.459     2.452
    77   1 H        0.926     0.039     2.457     2.451
    78   1 H        0.926     0.043     2.414     2.430
    79   1 H        0.926     0.044     2.399     2.422
    80   1 H        0.926     0.033     2.550     2.497
    81   1 H        0.926     0.032     2.554     2.499
    82   1 H        0.926     0.031     2.579     2.511
    83   1 H        0.926     0.033     2.547     2.496
    84   1 H        0.926     0.033     2.546     2.495
    85   1 H        0.926     0.030     2.579     2.511
    86   1 H        0.926     0.032     2.553     2.499
    87   1 H        0.926     0.033     2.547     2.496
    88   1 H        0.926     0.042     2.420     2.433
    89   1 H        0.926     0.053     2.283     2.363
    90   1 H        0.926     0.028     2.612     2.527
    91   1 H        0.926     0.037     2.491     2.468
    92   1 H        0.926     0.038     2.470     2.458
    93   1 H        0.926     0.039     2.463     2.454
    94   1 H        0.926     0.039     2.462     2.454
    95   1 H        0.926     0.039     2.463     2.454
    96   1 H        0.926     0.039     2.464     2.455

molecular dipole:
                 x           y           z       tot (Debye)
 q only:        0.001      -0.227      -0.005
   full:        0.003      -0.224      -0.005       0.569

 projected vibrational frequencies (cm⁻¹)
eigval :       -0.00    -0.00    -0.00     0.00     0.00     0.00
eigval :        6.85    10.86    11.83    16.24    17.26    23.12
eigval :       32.52    42.47    43.43    46.49    50.47    59.77
eigval :       62.03    74.96    78.32    89.58    95.74    98.74
eigval :      101.87   107.84   109.01   140.99   143.90   146.39
eigval :      154.95   164.21   178.64   199.18   201.88   216.42
eigval :      219.20   220.70   243.33   267.17   270.32   271.42
eigval :      271.97   279.78   300.74   304.35   334.75   347.16
eigval :      370.25   372.28   378.37   379.34   380.97   383.16
eigval :      386.47   390.74   394.88   407.91   417.03   419.70
eigval :      423.29   433.17   436.64   448.12   458.44   467.91
eigval :      493.23   498.32   514.49   517.42   518.15   535.67
eigval :      536.37   539.75   539.81   550.10   552.28   559.13
eigval :      568.22   581.79   581.93   584.76   585.69   591.72
eigval :      594.37   598.09   598.86   616.08   618.85   632.43
eigval :      652.58   664.15   666.42   673.44   673.74   674.55
eigval :      676.95   681.93   691.22   699.18   708.00   708.81
eigval :      715.32   734.57   747.58   756.36   756.56   759.44
eigval :      762.78   767.88   771.51   778.32   782.22   799.24
eigval :      811.21   820.85   856.22   856.96   869.80   870.80
eigval :      870.83   872.49   873.31   875.06   885.35   895.49
eigval :      896.51   897.22   897.80   900.11   901.28   901.74
eigval :      902.18   903.55   904.96   913.36   913.86   918.42
eigval :      920.32   921.26   922.39   926.95   927.47   928.12
eigval :      928.43   929.30   930.11   930.81   950.49   951.76
eigval :      974.82  1005.02  1010.80  1011.08  1016.54  1016.95
eigval :     1068.17  1068.41  1071.11  1071.67  1079.35  1081.56
eigval :     1106.47  1112.80  1115.96  1116.41  1118.50  1120.39
eigval :     1138.81  1142.10  1148.40  1149.01  1158.98  1173.22
eigval :     1173.65  1178.17  1178.21  1178.94  1179.27  1180.80
eigval :     1181.74  1191.92  1193.90  1196.39  1206.52  1215.08
eigval :     1229.43  1232.96  1233.15  1241.85  1242.50  1259.09
eigval :     1263.93  1266.81  1268.20  1277.88  1279.67  1285.75
eigval :     1291.45  1295.47  1295.82  1296.48  1297.66  1310.86
eigval :     1316.27  1318.22  1319.80  1327.05  1353.13  1355.61
eigval :     1355.67  1356.02  1356.53  1361.53  1367.12  1388.14
eigval :     1402.64  1409.52  1416.74  1421.35  1422.67  1423.02
eigval :     1426.45  1427.61  1431.52  1439.95  1468.14  1468.76
eigval :     1468.99  1469.36  1473.28  1478.21  1484.41  1484.50
eigval :     1484.58  1511.12  1536.62  1537.87  1570.54  1570.71
eigval :     1570.76  1570.80  1576.02  1582.85  1585.00  1585.67
eigval :     1586.94  1588.10  1591.46  1591.55  1607.12  1607.94
eigval :     3072.68  3072.94  3072.96  3073.13  3073.26  3073.42
eigval :     3074.58  3075.24  3078.65  3078.92  3079.51  3079.79
eigval :     3080.96  3081.76  3082.42  3083.06  3083.58  3084.49
eigval :     3086.68  3087.00  3087.30  3088.24  3088.53  3088.76
eigval :     3090.03  3093.17  3093.48  3093.90  3094.21  3094.32
eigval :     3094.62  3095.60  3096.03  3096.27  3098.18  3100.47

   temp. (K)  partition function   enthalpy   heat capacity  entropy
                                   cal/mol     cal/K/mol   cal/K/mol   J/K/mol
 298.15  VIB  0.118E+23            27547.470    175.155    172.238
         ROT  0.207E+09              888.752      2.981     41.038
         INT  0.246E+31            28436.222    178.136    213.276
         TR   0.205E+29             1481.254      4.968     45.762
         TOT                       29917.4763   183.1038   259.0377  1083.8137

       T/K    H(0)-H(T)+PV         H(T)/Eh          T*S/Eh         G(T)/Eh
   ------------------------------------------------------------------------
    298.15    0.476765E-01    0.779671E+00    0.123077E+00    0.656594E+00
   ------------------------------------------------------------------------

         :::::::::::::::::::::::::::::::::::::::::::::::::::::
         ::                  THERMODYNAMIC                  ::
         :::::::::::::::::::::::::::::::::::::::::::::::::::::
         :: total free energy        -149.390323637272 Eh   ::
         ::.................................................::
         :: total energy             -150.046917962427 Eh   ::
         :: zero point energy           0.731994963366 Eh   ::
         :: G(RRHO) w/o ZPVE           -0.075400638210 Eh   ::
         :: G(RRHO) contrib.            0.656594325155 Eh   ::
         :::::::::::::::::::::::::::::::::::::::::::::::::::::

           -------------------------------------------------
          | TOTAL ENERGY             -150.046917962427 Eh   |
          | TOTAL ENTHALPY           -149.267246465777 Eh   |
          | TOTAL FREE ENERGY        -149.390323637272 Eh   |
          | GRADIENT NORM               0.000080758448 Eh/α |
          | HOMO-LUMO GAP               0.897491550324 eV   |
           -------------------------------------------------

 * finished run on 2025/07/21 at 05:11:18.157
