   * xtb version 6.7.1 (edcfbbe) compiled by 'albert@albert-system' on 2024-07-22

   ID    Z sym.   atoms
    1    6 C      1-5, 7-12, 14-34, 36-50, 52-60
    2    7 N      6, 13, 35, 51
    3    1 H      61-96

          program call               : xtb data2507/toluene/BDQPCz/BDQPCz.xyz --gfn 2 --gbsa toluene --ohess vtight --parallel 40 --molden --ceasefiles --namespace data2507/toluene/BDQPCz/BDQPCz_toluene_S0_preOpt
      * Solvation model:               GBSA
        Solvent                        toluene
        Solvent mass                       9.2140E+01 g/mol
          :  Hamiltonian                  GFN2-xTB          :
 * total energy  :  -150.0733839 Eh     change       -0.1627257E-08 Eh
 * total energy  :  -150.0923555 Eh     change       -0.1897163E-01 Eh
 * total energy  :  -150.0971576 Eh     change       -0.4802012E-02 Eh
 * total energy  :  -150.0981792 Eh     change       -0.1021637E-02 Eh
 * total energy  :  -150.0991911 Eh     change       -0.1011862E-02 Eh
 * total energy  :  -150.0997712 Eh     change       -0.5801169E-03 Eh
 * total energy  :  -150.1002652 Eh     change       -0.4940194E-03 Eh
 * total energy  :  -150.1006467 Eh     change       -0.3815306E-03 Eh
 * total energy  :  -150.1008593 Eh     change       -0.2125892E-03 Eh
 * total energy  :  -150.1009778 Eh     change       -0.1184716E-03 Eh
 * total energy  :  -150.1031537 Eh     change       -0.1132633E-06 Eh
 * total energy  :  -150.1031538 Eh     change       -0.1034127E-06 Eh
 * total energy  :  -150.1031539 Eh     change       -0.1101024E-06 Eh
 * total energy  :  -150.1031540 Eh     change       -0.1489877E-06 Eh
 * total energy  :  -150.1031543 Eh     change       -0.2311942E-06 Eh
 * total energy  :  -150.1031546 Eh     change       -0.2868578E-06 Eh
 * total energy  :  -150.1031548 Eh     change       -0.2626585E-06 Eh
 * total energy  :  -150.1031550 Eh     change       -0.2188815E-06 Eh
 * total energy  :  -150.1031551 Eh     change       -0.4718885E-08 Eh
   *** GEOMETRY OPTIMIZATION CONVERGED AFTER 94 ITERATIONS ***

 final structure:
================
96
 xtb: 6.7.1 (edcfbbe)
C           -2.85967950507143       -5.59564780722377        1.16342047004654
C           -1.57127696201246       -5.43508322355431        1.64844334850573
C           -0.84368651556052       -4.30309479542798        1.33235073850426
C           -1.40299432476057       -3.31625724038345        0.52245251811927
C           -0.66285791546687       -2.09226011064164        0.19717963624000
N           -1.35063784670772       -0.97621975041570        0.18254493600110
C           -0.71594360403929        0.20198276752498        0.04675902026726
C           -1.45387380758535        1.41221364622511       -0.03227356072621
C           -2.92199030666611        1.41018046305309       -0.04426570580314
C           -3.65557727164648        0.60214112723823        0.82258846162494
C           -5.03585693212120        0.61383444880673        0.80046395744350
C           -5.71681665318451        1.44274585630162       -0.08690393636016
N           -7.11972721060098        1.45896501701390       -0.10938963310471
C           -7.94376740506057        1.64254139489500        0.98311106052307
C           -7.61281376430581        1.88411502651508        2.30934220519091
C           -8.64530054766086        2.06307254904037        3.21016352078708
C           -9.97887224781491        2.01321363032962        2.80814291289012
C          -10.31409808904234        1.79431166913823        1.48667155216730
C           -9.29369427715075        1.61116787868057        0.56186124718665
C           -9.27296009798098        1.38878839564996       -0.85710154556437
C          -10.26606329945148        1.24488462359448       -1.81790529730476
C           -9.89260798955052        1.01292027380415       -3.12687274768601
C           -8.54844137659975        0.91149767056015       -3.48123303877651
C           -7.54265017288191        1.05025610845497       -2.54386425202697
C           -7.91112072220722        1.30580278972299       -1.23015736303652
C           -4.99228194845313        2.25734740948128       -0.95295165701535
C           -3.61230853076284        2.23728461284146       -0.93014105167279
C           -0.74358085998768        2.59268645186786       -0.09909711737877
C            0.65267671093180        2.62081518344948       -0.06795578311180
C            1.40201132252559        1.46579188393115       -0.00190446560218
C            2.86681244754286        1.49164704698120        0.02746610345188
C            3.57970055463171        2.35984252005695       -0.79857760811766
C            4.95990512895097        2.36675551599126       -0.79536813934433
C            5.66108718071791        1.50900103286070        0.04816446863222
N            7.06313857877539        1.50063544318804        0.04804408504816
C            7.88243124534413        2.60316760349809        0.18565075636448
C            7.54612659153309        3.93393207345270        0.39165086968383
C            8.57505883574249        4.84668920949922        0.52554264522541
C            9.91029611622110        4.45162988156306        0.46724915638432
C           10.25114283825822        3.12595616848570        0.28489350852934
C            9.23449547580167        2.18940995657501        0.14640411555136
C            9.21972503686155        0.76400276823102       -0.03268069109311
C           10.21658991039345       -0.19480201757579       -0.16394827159424
C            9.84765605034465       -1.51193505589099       -0.35307814558588
C            8.50445630757342       -1.87661801953737       -0.42661197026615
C            7.49482104885409       -0.94166023519558       -0.29967692182920
C            7.85956870150354        0.38029148943434       -0.08470214834370
C            4.95691756066494        0.65341406972390        0.89157792111225
C            3.57758110826094        0.64429024725421        0.87584951902387
C            0.70686440574325        0.22760718686958        0.01360288645446
N            1.38788710857781       -0.92676555362684       -0.09757264240053
C            0.74548012227547       -2.06940785780237       -0.06660007346375
C            1.52954563573768       -3.27465011053803       -0.35885742070868
C            2.83709255562892       -3.37298828405720        0.11240800913753
C            3.59745440037849       -4.49321665487985       -0.16486193126500
C            3.06660028113977       -5.52100557962907       -0.92779460937135
C            1.77512481423804       -5.41901325982624       -1.42040047538189
C            1.00759650927636       -4.30409681826990       -1.13993718979867
C           -2.70773982681477       -3.47257937430384        0.05839733369738
C           -3.42764326280597       -4.61002030894139        0.37187019902323
H           -3.42182689489962       -6.48493125779487        1.40742972915450
H           -1.13093569606023       -6.19425656901222        2.27808704229467
H            0.15446333661574       -4.17465383777703        1.72563990869098
H           -3.13696079681134       -0.04158467604314        1.51464751939939
H           -5.59444422457695       -0.02890252237679        1.46458692532383
H           -6.58268775746552        1.94054366483596        2.62749862295832
H           -8.41352366659730        2.24984195973079        4.24881182278426
H          -10.75774963607778        2.15626890256702        3.54291872728209
H          -11.34729437435464        1.77046994676156        1.17333589573804
H          -11.30807932858746        1.30851905209220       -1.54156459410082
H          -10.64954507873952        0.90020859701801       -3.88932815042956
H           -8.28724410709860        0.71534091645242       -4.51115963333915
H           -6.50471199415105        0.95309219380742       -2.82494795557245
H           -5.51670429703509        2.91079321388586       -1.63444070924107
H           -3.06033251804611        2.86100119579764       -1.61797482247058
H           -1.28151357867884        3.52860199810901       -0.13851038459780
H            1.15527731264179        3.57686791689872       -0.07676834944033
H            3.04571298339318        3.01086020264384       -1.47493628489386
H            5.50340713213343        3.02094068278845       -1.46090684173026
H            6.51483194525707        4.24682391453471        0.45540149168346
H            8.33929432459078        5.88925233569859        0.68314383238082
H           10.68624083231755        5.19552102450688        0.57465364319086
H           11.28600328945262        2.81868507163848        0.25489905033235
H           11.25771796739525        0.08925211546122       -0.12413546768035
H           10.60779746408378       -2.27270180355618       -0.45539075989750
H            8.24695612654103       -2.91270155987424       -0.59247861759913
H            6.45744262257312       -1.22987341295984       -0.37869774182643
H            5.49965254630802        0.00752261414219        1.56591064887923
H            3.03817011128327       -0.01090465485927        1.54213901261980
H            3.23862196623359       -2.56315061495530        0.70195791260431
H            4.60670638212727       -4.56502732959469        0.21353460787948
H            3.65967698722484       -6.39723992712103       -1.14421718470027
H            1.36321781961558       -6.21135813376685       -2.02804735300097
H            0.00707867377123       -4.22175444095092       -1.53962637402159
H           -3.13865045889848       -2.69386967114635       -0.55313829903537
H           -4.43504472595404       -4.72700914168905        0.00008736130875

          :  Hamiltonian                  GFN2-xTB          :
         :: gradient norm              0.000043297478 Eh/a0 ::
         :: HOMO-LUMO gap              1.554147601471 eV    ::
         :: SCC energy              -152.938027637539 Eh    ::
         :: -> dispersion             -0.138553656760 Eh    ::
         :: -> Gsolv                  -0.062959588924 Eh    ::
         :: repulsion energy           2.834872583964 Eh    ::

    * Orbital Energies and Occupations

         #    Occupation            Energy/Eh            Energy/eV
      -------------------------------------------------------------
         1        2.0000           -0.6806331             -18.5210
       ...           ...                  ...                  ...
       128        2.0000           -0.4120034             -11.2112
       129        2.0000           -0.4110134             -11.1842
       130        2.0000           -0.4100296             -11.1575
       131        2.0000           -0.4087122             -11.1216
       132        2.0000           -0.4044623             -11.0060
       133        2.0000           -0.4043824             -11.0038
       134        2.0000           -0.3928390             -10.6897
       135        2.0000           -0.3864712             -10.5164
       136        2.0000           -0.3779469             -10.2845
       137        2.0000           -0.3778143             -10.2809
       138        2.0000           -0.3621685              -9.8551
       139        2.0000           -0.3600763              -9.7982
       140        2.0000           -0.3558419              -9.6830 (HOMO)
       141                         -0.2987280              -8.1288 (LUMO)
       142                         -0.2680316              -7.2935
       143                         -0.2530443              -6.8857
       144                         -0.2453659              -6.6767
       145                         -0.2433007              -6.6205
       146                         -0.2343530              -6.3771
       147                         -0.2327312              -6.3329
       148                         -0.2311639              -6.2903
       149                         -0.2303624              -6.2685
       150                         -0.2272419              -6.1836
       151                         -0.2215566              -6.0289
       ...                                ...                  ...
       276                          0.7451650              20.2770
      -------------------------------------------------------------
                  HL-Gap            0.0571139 Eh            1.5541 eV

     #   Z          covCN         q      C6AA      α(0)
     1   6 C        2.920    -0.027    28.671     8.781
     2   6 C        2.919    -0.028    28.699     8.785
     3   6 C        2.923    -0.031    28.766     8.795
     4   6 C        2.982     0.002    27.965     8.674
     5   6 C        2.944     0.088    26.051     8.371
     6   7 N        1.853    -0.253    27.432     7.763
     7   6 C        2.959     0.076    26.298     8.411
     8   6 C        2.972    -0.005    28.134     8.700
     9   6 C        2.975     0.013    27.715     8.635
    10   6 C        2.923    -0.027    28.664     8.780
    11   6 C        2.920    -0.042    29.040     8.837
    12   6 C        2.912     0.064    26.577     8.454
    13   7 N        2.802    -0.045    22.108     6.983
    14   6 C        3.075     0.047    26.863     8.498
    15   6 C        2.909    -0.052    29.288     8.874
    16   6 C        2.924    -0.035    28.872     8.812
    17   6 C        2.919    -0.043    29.063     8.841
    18   6 C        2.912    -0.035    28.870     8.811
    19   6 C        3.067    -0.019    28.404     8.739
    20   6 C        3.067    -0.019    28.404     8.739
    21   6 C        2.912    -0.035    28.869     8.811
    22   6 C        2.919    -0.043    29.065     8.841
    23   6 C        2.924    -0.035    28.876     8.812
    24   6 C        2.909    -0.052    29.287     8.874
    25   6 C        3.076     0.047    26.862     8.498
    26   6 C        2.920    -0.043    29.070     8.842
    27   6 C        2.925    -0.034    28.845     8.808
    28   6 C        2.921    -0.039    28.958     8.825
    29   6 C        2.920    -0.038    28.956     8.824
    30   6 C        2.974    -0.004    28.129     8.700
    31   6 C        2.976     0.014    27.692     8.632
    32   6 C        2.924    -0.033    28.817     8.803
    33   6 C        2.920    -0.042    29.055     8.839
    34   6 C        2.913     0.064    26.565     8.452
    35   7 N        2.802    -0.044    22.098     6.982
    36   6 C        3.075     0.047    26.868     8.499
    37   6 C        2.909    -0.052    29.291     8.875
    38   6 C        2.924    -0.035    28.873     8.812
    39   6 C        2.919    -0.043    29.062     8.840
    40   6 C        2.912    -0.035    28.868     8.810
    41   6 C        3.067    -0.019    28.401     8.739
    42   6 C        3.067    -0.019    28.402     8.739
    43   6 C        2.912    -0.035    28.870     8.811
    44   6 C        2.919    -0.043    29.061     8.840
    45   6 C        2.924    -0.035    28.869     8.811
    46   6 C        2.909    -0.052    29.281     8.873
    47   6 C        3.076     0.047    26.866     8.498
    48   6 C        2.920    -0.042    29.038     8.837
    49   6 C        2.924    -0.024    28.598     8.770
    50   6 C        2.961     0.076    26.290     8.410
    51   7 N        1.853    -0.253    27.431     7.763
    52   6 C        2.945     0.087    26.067     8.374
    53   6 C        2.981     0.002    27.964     8.674
    54   6 C        2.925    -0.027    28.677     8.782
    55   6 C        2.918    -0.028    28.691     8.784
    56   6 C        2.920    -0.027    28.680     8.782
    57   6 C        2.919    -0.028    28.699     8.785
    58   6 C        2.923    -0.031    28.766     8.795
    59   6 C        2.925    -0.026    28.663     8.780
    60   6 C        2.918    -0.027    28.686     8.783
    61   1 H        0.926     0.042     2.428     2.437
    62   1 H        0.926     0.039     2.456     2.451
    63   1 H        0.926     0.028     2.614     2.529
    64   1 H        0.926     0.049     2.332     2.388
    65   1 H        0.926     0.044     2.391     2.418
    66   1 H        0.926     0.030     2.588     2.516
    67   1 H        0.926     0.030     2.590     2.517
    68   1 H        0.926     0.028     2.621     2.532
    69   1 H        0.926     0.030     2.586     2.515
    70   1 H        0.926     0.030     2.586     2.515
    71   1 H        0.926     0.028     2.622     2.532
    72   1 H        0.926     0.030     2.593     2.518
    73   1 H        0.926     0.029     2.596     2.520
    74   1 H        0.926     0.044     2.393     2.419
    75   1 H        0.926     0.042     2.424     2.435
    76   1 H        0.926     0.048     2.340     2.392
    77   1 H        0.926     0.048     2.339     2.392
    78   1 H        0.926     0.043     2.407     2.426
    79   1 H        0.926     0.045     2.380     2.412
    80   1 H        0.926     0.030     2.584     2.514
    81   1 H        0.926     0.030     2.587     2.515
    82   1 H        0.926     0.028     2.620     2.531
    83   1 H        0.926     0.030     2.585     2.514
    84   1 H        0.926     0.030     2.586     2.515
    85   1 H        0.926     0.028     2.618     2.530
    86   1 H        0.926     0.030     2.582     2.513
    87   1 H        0.926     0.031     2.570     2.507
    88   1 H        0.926     0.044     2.395     2.420
    89   1 H        0.926     0.040     2.447     2.446
    90   1 H        0.926     0.043     2.408     2.427
    91   1 H        0.926     0.041     2.432     2.439
    92   1 H        0.926     0.041     2.432     2.439
    93   1 H        0.926     0.039     2.464     2.454
    94   1 H        0.926     0.027     2.628     2.535
    95   1 H        0.926     0.043     2.408     2.426
    96   1 H        0.926     0.041     2.434     2.440

molecular dipole:
                 x           y           z       tot (Debye)
 q only:        0.068      -0.449       0.063
   full:        0.060      -0.447       0.039       1.152

 projected vibrational frequencies (cm⁻¹)
eigval :       -0.00    -0.00    -0.00     0.00     0.00     0.00
eigval :        8.81    11.73    12.66    15.63    16.04    20.95
eigval :       31.79    42.89    44.87    48.48    53.31    55.92
eigval :       63.94    70.48    84.48    90.75    92.00    96.79
eigval :       99.10   103.73   111.00   143.43   144.79   151.54
eigval :      153.15   162.46   171.98   185.34   205.01   219.36
eigval :      223.28   231.38   248.17   259.59   269.83   270.37
eigval :      275.91   283.37   293.48   308.91   347.93   364.75
eigval :      370.75   371.40   375.35   376.43   380.61   385.39
eigval :      391.55   393.98   406.02   408.93   420.15   421.85
eigval :      423.26   432.45   436.83   447.70   456.94   469.62
eigval :      494.00   502.27   517.10   518.69   522.62   533.56
eigval :      533.99   540.81   541.49   557.80   561.73   562.28
eigval :      579.19   580.96   586.05   587.26   592.93   593.11
eigval :      601.25   604.56   610.58   619.24   633.12   656.10
eigval :      659.50   669.87   673.17   673.54   677.19   680.87
eigval :      695.20   697.31   706.05   708.10   708.54   716.69
eigval :      737.22   748.65   755.83   757.12   762.28   762.46
eigval :      768.05   769.03   775.93   779.13   779.73   814.61
eigval :      822.19   848.37   865.79   866.27   872.26   873.25
eigval :      875.60   876.25   877.47   878.09   891.47   897.20
eigval :      897.60   900.84   901.48   901.57   902.26   903.46
eigval :      907.03   909.88   915.33   918.35   919.24   920.13
eigval :      920.61   924.83   925.69   928.44   928.97   930.20
eigval :      931.23   932.55   933.03   933.99   956.75   965.27
eigval :      977.04  1010.75  1011.11  1011.48  1024.47  1031.00
eigval :     1068.26  1068.77  1071.71  1071.98  1079.11  1081.61
eigval :     1101.53  1116.04  1116.30  1118.17  1120.90  1134.62
eigval :     1137.26  1142.80  1144.38  1150.01  1150.33  1174.03
eigval :     1174.31  1178.85  1179.10  1179.47  1179.57  1181.99
eigval :     1183.22  1192.93  1196.48  1200.13  1202.92  1234.91
eigval :     1235.45  1236.47  1242.47  1247.92  1255.88  1256.75
eigval :     1267.43  1269.37  1275.14  1278.54  1279.90  1297.73
eigval :     1298.75  1300.79  1301.10  1309.20  1315.55  1316.07
eigval :     1320.18  1324.32  1333.71  1344.98  1355.43  1355.54
eigval :     1360.05  1360.21  1366.12  1367.81  1390.27  1401.92
eigval :     1405.03  1426.14  1426.52  1426.97  1427.44  1428.72
eigval :     1429.36  1444.17  1458.73  1473.84  1473.91  1474.66
eigval :     1476.23  1486.37  1486.63  1492.79  1494.34  1519.24
eigval :     1535.00  1555.27  1558.60  1571.38  1572.84  1573.85
eigval :     1578.63  1579.77  1586.87  1587.02  1591.91  1592.78
eigval :     1592.88  1595.64  1596.79  1596.80  1612.41  1612.81
eigval :     3069.87  3070.18  3070.21  3070.50  3072.37  3073.84
eigval :     3075.49  3075.71  3075.94  3076.16  3076.24  3076.92
eigval :     3077.90  3079.39  3080.80  3082.18  3082.64  3083.57
eigval :     3084.23  3084.41  3084.76  3086.19  3088.24  3089.72
eigval :     3089.94  3090.21  3091.16  3091.22  3091.77  3092.35
eigval :     3092.76  3094.01  3095.56  3098.14  3099.65  3113.48

   temp. (K)  partition function   enthalpy   heat capacity  entropy
                                   cal/mol     cal/K/mol   cal/K/mol   J/K/mol
 298.15  VIB  0.845E+22            27388.187    173.975    171.316
         ROT  0.207E+09              888.752      2.981     41.029
         INT  0.175E+31            28276.940    176.955    212.345
         TR   0.205E+29             1481.254      4.968     45.762
         TOT                       29758.1936   181.9236   258.1073  1079.9211

       T/K    H(0)-H(T)+PV         H(T)/Eh          T*S/Eh         G(T)/Eh
   ------------------------------------------------------------------------
    298.15    0.474227E-01    0.782248E+00    0.122635E+00    0.659613E+00
   ------------------------------------------------------------------------

         :::::::::::::::::::::::::::::::::::::::::::::::::::::
         ::                  THERMODYNAMIC                  ::
         :::::::::::::::::::::::::::::::::::::::::::::::::::::
         :: total free energy        -149.443542282823 Eh   ::
         ::.................................................::
         :: total energy             -150.103155050620 Eh   ::
         :: zero point energy           0.734825193832 Eh   ::
         :: G(RRHO) w/o ZPVE           -0.075212426035 Eh   ::
         :: G(RRHO) contrib.            0.659612767796 Eh   ::
         :::::::::::::::::::::::::::::::::::::::::::::::::::::

           -------------------------------------------------
          | TOTAL ENERGY             -150.103155050620 Eh   |
          | TOTAL ENTHALPY           -149.320907156673 Eh   |
          | TOTAL FREE ENERGY        -149.443542282823 Eh   |
          | GRADIENT NORM               0.000043261969 Eh/α |
          | HOMO-LUMO GAP               1.554147363455 eV   |
           -------------------------------------------------

 * finished run on 2025/07/21 at 04:57:09.622
