   * xtb version 6.7.1 (edcfbbe) compiled by 'albert@albert-system' on 2024-07-22

   ID    Z sym.   atoms
    1    6 C      1-8, 10-19, 21-30, 32-49
    2    7 N      9, 31
    3    5 B      20
    4    1 H      50-102

          program call               : xtb data2507/toluene/t-DABNA/t-DABNA_toluene_S0_crest.xyz --gfn 2 --gbsa toluene --ohess vtight --parallel 40 --molden --ceasefiles --namespace data2507/toluene/t-DABNA/t-DABNA_toluene_S0_finalOpt
      * Solvation model:               GBSA
        Solvent                        toluene
        Solvent mass                       9.2140E+01 g/mol
          :  Hamiltonian                  GFN2-xTB          :
 * total energy  :  -132.7785745 Eh     change       -0.1959222E-08 Eh
 * total energy  :  -132.7786161 Eh     change       -0.4156459E-04 Eh
 * total energy  :  -132.7786360 Eh     change       -0.1987363E-04 Eh
 * total energy  :  -132.7786437 Eh     change       -0.7718937E-05 Eh
 * total energy  :  -132.7786504 Eh     change       -0.6651163E-05 Eh
 * total energy  :  -132.7786540 Eh     change       -0.3675523E-05 Eh
 * total energy  :  -132.7786585 Eh     change       -0.4494492E-05 Eh
 * total energy  :  -132.7786627 Eh     change       -0.4223301E-05 Eh
 * total energy  :  -132.7786644 Eh     change       -0.1676011E-05 Eh
 * total energy  :  -132.7786659 Eh     change       -0.1457357E-05 Eh
 * total energy  :  -132.7787202 Eh     change       -0.1113159E-05 Eh
 * total energy  :  -132.7787210 Eh     change       -0.7608417E-06 Eh
 * total energy  :  -132.7787215 Eh     change       -0.5450042E-06 Eh
 * total energy  :  -132.7787221 Eh     change       -0.5941253E-06 Eh
 * total energy  :  -132.7787227 Eh     change       -0.5391078E-06 Eh
 * total energy  :  -132.7787230 Eh     change       -0.3501394E-06 Eh
 * total energy  :  -132.7787232 Eh     change       -0.2126382E-06 Eh
 * total energy  :  -132.7787234 Eh     change       -0.1521853E-06 Eh
 * total energy  :  -132.7787234 Eh     change       -0.1501149E-08 Eh
   *** GEOMETRY OPTIMIZATION CONVERGED AFTER 44 ITERATIONS ***

 final structure:
================
102
 xtb: 6.7.1 (edcfbbe)
C            7.63149964453049        3.99654946593391       -1.97774516042628
C            7.23081242251922        3.70991520567635       -0.52738213827994
C            7.02509943693822        5.05441152105962        0.18637294843694
C            8.37514374213493        2.93468099222811        0.14292976059683
C            5.95359901043808        2.89003461292850       -0.42255074518289
C            5.44789979123713        2.56702434316843        0.83594164893010
C            4.29303456537337        1.82450846014137        0.98340355691456
C            3.60734350011232        1.37610140021597       -0.13843049631500
N            2.40900373056232        0.61218289842908       -0.00414815984703
C            2.51883170118864       -0.75352368395510        0.18394013905216
C            3.79232802815699       -1.32561958244249        0.30615989705077
C            3.94289696661468       -2.66286502856169        0.58091728965338
C            2.83780841917071       -3.49814536232691        0.76704149320645
C            3.05770386067537       -4.95717409903516        1.13975255307807
C            3.85654062909791       -5.64733107292784        0.02392497459184
C            1.74487500994720       -5.72284667439936        1.32790554363183
C            3.84327717358060       -5.02485976399072        2.45816699769870
C            1.58976406819246       -2.93255638708485        0.59227009357871
C            1.38179535838291       -1.58563292281941        0.26357077493210
B            0.00127793420438       -0.94239222399292        0.00845822429809
C           -1.37731357747520       -1.58875476579484       -0.24911650619023
C           -1.58121514427613       -2.93542639042760       -0.58135699248964
C           -2.82735625042836       -3.50315777232707       -0.76246429383256
C           -3.04271893588744       -4.96067157332978       -1.14346076427965
C           -3.80868621221437       -5.02081232057587       -2.47373563915825
C           -3.85811277921217       -5.65556246624951       -0.04266947551335
C           -1.72792845776487       -5.72671428732840       -1.31564410927799
C           -3.93500264367275       -2.67072980211817       -0.57875798491975
C           -3.78828617026461       -1.33384555293817       -0.30010650699508
C           -2.51647463375949       -0.75940860091393       -0.17143088722389
N           -2.41048744203614        0.60612741899415        0.02005421779107
C           -3.61139903503767        1.36748372139477        0.14612716838139
C           -4.11656482073811        1.66639822447055        1.40138682150456
C           -5.27636623720351        2.41261999798835        1.52803994397511
C           -5.96227153035194        2.87747239598251        0.41191482646661
C           -7.24091465171759        3.69636263967210        0.50654180917302
C           -7.66469122983951        3.96522196523822        1.95375281376311
C           -7.02308676289730        5.04930031773214       -0.18742618634402
C           -8.37487730098343        2.93029785244007       -0.19137991490985
C           -5.43990259491349        2.56522016854136       -0.84247528045607
C           -4.28287628927949        1.82438480829279       -0.98087361618609
C           -1.21530504898473        1.29446377048550        0.01806274772917
C           -1.20823566749324        2.69088569046853        0.03172659637147
C           -0.00414515770530        3.36718106573717        0.01552136981307
C            1.20160224825047        2.69395732787302       -0.00446724044254
C            1.21209011105068        1.29752530797045        0.00259514819538
C           -0.00069763709095        0.57608033358830        0.00957454056567
C            4.09620157851944        1.68535633829595       -1.39766994056089
C            5.25355718239762        2.43367898110897       -1.53339313828641
H            6.85750558649611        4.56043801778711       -2.49353784216613
H            7.82482905255511        3.07445806655228       -2.52118273061354
H            8.54368899818201        4.58978833584864       -1.98997551573142
H            6.19673945698571        5.59759998474726       -0.26456444387774
H            6.80760936406828        4.91612019166066        1.24175453291142
H            7.92314649307172        5.66265835727073        0.10169117464218
H            8.17026668607034        2.75586782215220        1.19494183522628
H            9.30270482696849        3.49815886298571        0.06713998646554
H            8.51494834678229        1.97224276737813       -0.34574379807362
H            5.95944659285328        2.89881814134836        1.72651768476612
H            3.91501962818940        1.58609518272836        1.96731213341779
H            4.67389583436413       -0.71072842928981        0.19935616493714
H            4.94531779219197       -3.05540396765112        0.67146544963182
H            4.82912935377757       -5.18189008574948       -0.11272232336446
H            4.01231641134388       -6.69679685356672        0.26684445006963
H            3.31478485959860       -5.58717707254066       -0.91831874940998
H            1.14098218931008       -5.27802531507965        2.11590578812647
H            1.96104625924667       -6.75224106194432        1.60863862829556
H            1.17136646563517       -5.74070572730467        0.40429436654676
H            3.98704630087384       -6.06131492655436        2.75793098130593
H            3.29820626381514       -4.50929278034575        3.24689627164026
H            4.82120854640745       -4.56081484431988        2.36107758031967
H            0.70998250569769       -3.53534895724489        0.73563177769418
H           -0.69964637644137       -3.53601953512837       -0.72289817963603
H           -3.95724410304815       -6.05571801930376       -2.77646376090490
H           -3.24687129688176       -4.50960172386431       -3.25351272009574
H           -4.78340869335358       -4.54724226171877       -2.39118463821287
H           -4.83437337689336       -5.19374336167181        0.07892291749488
H           -3.33220005105205       -5.59592587399905        0.90855136231831
H           -4.00663561682571       -6.70494281091870       -0.29045567825471
H           -1.11343350336621       -5.28111313590215       -2.09493541436405
H           -1.94095579863859       -6.75547632213105       -1.60105258174932
H           -1.16671728367107       -5.74628586995950       -0.38450035847528
H           -4.93622007163125       -3.06499012248764       -0.67491991187997
H           -4.67145884538917       -0.72078674068398       -0.19587483715877
H           -3.59606023981747        1.31325960116269        2.28000726297464
H           -5.63549941182918        2.62437912316674        2.52155680523284
H           -7.86421992343132        3.03635011000061        2.48323600967408
H           -6.90022600869321        4.52474512110953        2.48815633736975
H           -8.57832370481627        4.55633766712809        1.95865360324338
H           -7.92310359517724        5.65592788135345       -0.11258602003976
H           -6.20377728362723        5.58773696443562        0.28525811985511
H           -6.78554131538710        4.92333177715302       -1.24003801001775
H           -8.52255833567394        1.96176097794348        0.28270558971043
H           -8.15394126564804        2.76491483612897       -1.24231820265402
H           -9.30332360613493        3.49324569591316       -0.12276561427474
H           -5.93974094684914        2.90437093660392       -1.73691744154634
H           -3.89176643142269        1.59426144250753       -1.96163302155747
H           -2.13219370653138        3.24783662711581        0.04324036694456
H           -0.00549596132589        4.44845293264307        0.01838750085299
H            2.12427566899922        3.25311832933971       -0.01340857515668
H            3.56467267882607        1.33870467902785       -2.27227248247691
H            5.59958994129097        2.65364806443723       -2.52976411767172

          :  Hamiltonian                  GFN2-xTB          :
         :: gradient norm              0.000034089834 Eh/a0 ::
         :: HOMO-LUMO gap              2.350539852296 eV    ::
         :: SCC energy              -135.070158252833 Eh    ::
         :: -> dispersion             -0.129526846638 Eh    ::
         :: -> Gsolv                  -0.049620219253 Eh    ::
         :: repulsion energy           2.291434874430 Eh    ::

    * Orbital Energies and Occupations

         #    Occupation            Energy/Eh            Energy/eV
      -------------------------------------------------------------
         1        2.0000           -0.6593920             -17.9430
       ...           ...                  ...                  ...
       113        2.0000           -0.4076929             -11.0939
       114        2.0000           -0.4047382             -11.0135
       115        2.0000           -0.4046851             -11.0120
       116        2.0000           -0.3959164             -10.7734
       117        2.0000           -0.3957498             -10.7689
       118        2.0000           -0.3938920             -10.7183
       119        2.0000           -0.3878755             -10.5546
       120        2.0000           -0.3846577             -10.4671
       121        2.0000           -0.3830103             -10.4222
       122        2.0000           -0.3716412             -10.1129
       123        2.0000           -0.3696223             -10.0579
       124        2.0000           -0.3545847              -9.6487
       125        2.0000           -0.3347289              -9.1084 (HOMO)
       126                         -0.2483482              -6.7579 (LUMO)
       127                         -0.2271327              -6.1806
       128                         -0.2261857              -6.1548
       129                         -0.2255124              -6.1365
       130                         -0.2253884              -6.1331
       131                         -0.2135447              -5.8108
       132                         -0.2090070              -5.6874
       133                         -0.2039146              -5.5488
       134                         -0.1904832              -5.1833
       135                         -0.1722349              -4.6868
       136                         -0.1329831              -3.6187
       ...                                ...                  ...
       249                          0.7218039              19.6413
      -------------------------------------------------------------
                  HL-Gap            0.0863807 Eh            2.3505 eV

     #   Z          covCN         q      C6AA      α(0)
     1   6 C        3.761    -0.109    22.629     6.781
     2   6 C        3.902     0.026    20.082     6.370
     3   6 C        3.761    -0.106    22.575     6.773
     4   6 C        3.761    -0.106    22.572     6.773
     5   6 C        2.972     0.010    27.796     8.648
     6   6 C        2.927    -0.035    28.877     8.813
     7   6 C        2.919    -0.041    29.012     8.833
     8   6 C        2.932     0.065    26.539     8.449
     9   7 N        2.754    -0.062    22.435     7.035
    10   6 C        2.927     0.057    26.715     8.476
    11   6 C        2.917    -0.061    29.508     8.908
    12   6 C        2.927    -0.037    28.914     8.818
    13   6 C        2.968    -0.008    28.221     8.714
    14   6 C        3.902     0.024    20.121     6.376
    15   6 C        3.761    -0.103    22.512     6.764
    16   6 C        3.761    -0.105    22.543     6.768
    17   6 C        3.761    -0.103    22.513     6.764
    18   6 C        2.930    -0.047    29.162     8.856
    19   6 C        2.886    -0.088    30.214     9.012
    20   5 B        2.725     0.187    18.564     7.219
    21   6 C        2.886    -0.088    30.214     9.012
    22   6 C        2.930    -0.047    29.162     8.856
    23   6 C        2.968    -0.008    28.221     8.714
    24   6 C        3.902     0.024    20.121     6.376
    25   6 C        3.761    -0.103    22.513     6.764
    26   6 C        3.761    -0.103    22.513     6.764
    27   6 C        3.761    -0.104    22.542     6.768
    28   6 C        2.927    -0.037    28.914     8.818
    29   6 C        2.917    -0.061    29.507     8.908
    30   6 C        2.927     0.057    26.715     8.476
    31   7 N        2.754    -0.062    22.434     7.035
    32   6 C        2.932     0.065    26.538     8.449
    33   6 C        2.921    -0.042    29.031     8.836
    34   6 C        2.925    -0.039    28.974     8.827
    35   6 C        2.972     0.010    27.796     8.648
    36   6 C        3.902     0.026    20.082     6.370
    37   6 C        3.761    -0.109    22.629     6.781
    38   6 C        3.761    -0.106    22.574     6.773
    39   6 C        3.761    -0.106    22.573     6.773
    40   6 C        2.927    -0.035    28.877     8.813
    41   6 C        2.920    -0.041    29.012     8.833
    42   6 C        2.927     0.061    26.623     8.462
    43   6 C        2.917    -0.075    29.861     8.961
    44   6 C        2.919    -0.033    28.817     8.803
    45   6 C        2.917    -0.075    29.860     8.961
    46   6 C        2.927     0.061    26.623     8.462
    47   6 C        2.897    -0.107    30.690     9.083
    48   6 C        2.921    -0.042    29.031     8.836
    49   6 C        2.925    -0.039    28.974     8.827
    50   1 H        0.925     0.037     2.486     2.466
    51   1 H        0.925     0.037     2.483     2.464
    52   1 H        0.925     0.040     2.451     2.448
    53   1 H        0.925     0.034     2.536     2.490
    54   1 H        0.925     0.038     2.476     2.461
    55   1 H        0.925     0.041     2.434     2.440
    56   1 H        0.925     0.038     2.477     2.461
    57   1 H        0.925     0.041     2.432     2.439
    58   1 H        0.925     0.034     2.533     2.489
    59   1 H        0.926     0.040     2.454     2.450
    60   1 H        0.926     0.036     2.505     2.475
    61   1 H        0.926     0.016     2.791     2.613
    62   1 H        0.926     0.020     2.732     2.585
    63   1 H        0.925     0.033     2.543     2.494
    64   1 H        0.925     0.035     2.513     2.479
    65   1 H        0.925     0.031     2.568     2.506
    66   1 H        0.925     0.034     2.534     2.489
    67   1 H        0.925     0.034     2.531     2.488
    68   1 H        0.925     0.036     2.509     2.477
    69   1 H        0.925     0.035     2.518     2.482
    70   1 H        0.925     0.030     2.584     2.514
    71   1 H        0.925     0.033     2.540     2.492
    72   1 H        0.926     0.039     2.463     2.454
    73   1 H        0.926     0.039     2.464     2.454
    74   1 H        0.925     0.035     2.518     2.481
    75   1 H        0.925     0.030     2.583     2.514
    76   1 H        0.925     0.033     2.540     2.492
    77   1 H        0.925     0.033     2.542     2.493
    78   1 H        0.925     0.031     2.568     2.506
    79   1 H        0.925     0.035     2.514     2.479
    80   1 H        0.925     0.034     2.534     2.490
    81   1 H        0.925     0.034     2.530     2.488
    82   1 H        0.925     0.035     2.510     2.478
    83   1 H        0.926     0.020     2.732     2.585
    84   1 H        0.926     0.016     2.792     2.613
    85   1 H        0.926     0.036     2.504     2.475
    86   1 H        0.926     0.047     2.359     2.402
    87   1 H        0.925     0.037     2.483     2.464
    88   1 H        0.925     0.037     2.486     2.466
    89   1 H        0.925     0.040     2.450     2.448
    90   1 H        0.925     0.041     2.434     2.440
    91   1 H        0.925     0.034     2.536     2.490
    92   1 H        0.925     0.038     2.476     2.461
    93   1 H        0.925     0.034     2.533     2.489
    94   1 H        0.925     0.038     2.476     2.461
    95   1 H        0.925     0.041     2.432     2.439
    96   1 H        0.926     0.040     2.454     2.450
    97   1 H        0.926     0.036     2.506     2.475
    98   1 H        0.926     0.014     2.823     2.628
    99   1 H        0.925     0.018     2.766     2.601
   100   1 H        0.926     0.014     2.824     2.628
   101   1 H        0.926     0.036     2.505     2.475
   102   1 H        0.926     0.047     2.359     2.402

molecular dipole:
                 x           y           z       tot (Debye)
 q only:       -0.002       0.779      -0.006
   full:       -0.002       0.900      -0.008       2.287

 projected vibrational frequencies (cm⁻¹)
eigval :       -0.00    -0.00     0.00     0.00     0.00     0.00
eigval :      -14.45   -10.47    14.47    16.99    18.14    21.27
eigval :       23.84    27.29    34.19    41.65    55.64    60.27
eigval :       68.32    69.75    82.83    95.08    97.32   104.03
eigval :      121.45   140.55   152.05   163.38   174.67   176.80
eigval :      176.99   180.01   183.42   187.28   198.14   217.10
eigval :      218.17   221.86   225.25   226.34   232.29   236.18
eigval :      246.41   248.61   255.29   265.60   268.12   301.98
eigval :      309.92   310.28   314.79   317.21   317.86   319.78
eigval :      330.94   337.80   355.35   356.80   359.80   362.10
eigval :      362.64   367.25   377.52   377.57   390.58   398.46
eigval :      403.07   407.21   412.38   425.96   428.19   429.48
eigval :      438.92   448.53   452.64   453.33   459.16   469.13
eigval :      473.71   479.96   488.88   517.56   525.93   527.64
eigval :      552.80   555.11   566.49   581.26   588.69   595.77
eigval :      610.01   612.68   615.89   617.64   619.75   661.71
eigval :      662.55   685.34   697.67   705.03   707.72   712.73
eigval :      721.45   728.38   772.92   778.28   779.41   813.74
eigval :      818.07   819.73   820.74   846.78   869.36   869.80
eigval :      870.61   871.50   872.35   873.79   880.33   897.74
eigval :      908.91   914.07   915.39   916.93   917.37   919.16
eigval :      927.91   928.58   928.88   935.30   947.46   958.28
eigval :      959.07   959.43   959.81   960.23   960.56   961.44
eigval :      961.68   962.04   962.62   962.83   964.35   969.81
eigval :     1009.25  1015.92  1033.20  1033.77  1034.01  1034.78
eigval :     1034.80  1035.00  1035.04  1036.27  1084.49  1095.73
eigval :     1137.64  1138.56  1142.71  1143.37  1143.82  1143.97
eigval :     1159.00  1168.34  1195.29  1197.52  1198.13  1205.55
eigval :     1221.40  1224.91  1225.40  1225.63  1225.66  1226.65
eigval :     1230.90  1231.42  1231.50  1231.80  1246.87  1255.78
eigval :     1262.05  1273.80  1274.03  1279.51  1279.54  1281.98
eigval :     1293.43  1294.92  1304.38  1308.35  1308.50  1314.34
eigval :     1316.74  1339.00  1345.30  1350.63  1362.15  1395.32
eigval :     1395.53  1399.18  1399.92  1401.98  1402.27  1402.62
eigval :     1402.72  1406.37  1406.67  1410.88  1422.98  1425.70
eigval :     1426.28  1426.42  1426.81  1426.85  1434.15  1459.21
eigval :     1472.90  1485.73  1486.84  1488.09  1488.45  1488.87
eigval :     1489.47  1491.31  1491.38  1491.74  1492.15  1497.52
eigval :     1499.36  1499.54  1499.84  1502.74  1503.15  1503.49
eigval :     1503.88  1508.91  1510.03  1510.89  1511.12  1516.39
eigval :     1516.81  1516.92  1518.64  1537.24  1541.26  1562.32
eigval :     1568.57  1568.65  1571.86  1597.29  1599.42  1601.23
eigval :     1601.48  3015.49  3015.56  3016.15  3016.31  3021.01
eigval :     3021.12  3021.36  3021.45  3021.56  3021.67  3021.87
eigval :     3021.88  3024.49  3024.81  3025.45  3025.57  3025.91
eigval :     3026.09  3029.31  3029.49  3029.56  3030.15  3032.04
eigval :     3032.25  3033.34  3036.86  3037.32  3038.14  3040.36
eigval :     3040.58  3043.54  3043.83  3044.65  3044.68  3048.31
eigval :     3048.67  3062.02  3068.07  3068.11  3076.70  3076.79
eigval :     3079.96  3080.09  3084.16  3084.80  3090.99  3091.24
eigval :     3091.31  3096.64  3116.48  3116.56  3130.00  3135.41

   temp. (K)  partition function   enthalpy   heat capacity  entropy
                                   cal/mol     cal/K/mol   cal/K/mol   J/K/mol
 298.15  VIB  0.401E+23            28783.745    176.204    178.176
         ROT  0.112E+09              888.752      2.981     39.808
         INT  0.448E+31            29672.498    179.185    217.984
         TR   0.158E+29             1481.254      4.968     45.253
         TOT                       31153.7515   184.1534   263.2367  1101.3824

       T/K    H(0)-H(T)+PV         H(T)/Eh          T*S/Eh         G(T)/Eh
   ------------------------------------------------------------------------
    298.15    0.496467E-01    0.909538E+00    0.125072E+00    0.784465E+00
   ------------------------------------------------------------------------

         :::::::::::::::::::::::::::::::::::::::::::::::::::::
         ::                  THERMODYNAMIC                  ::
         :::::::::::::::::::::::::::::::::::::::::::::::::::::
         :: total free energy        -131.994258017128 Eh   ::
         ::.................................................::
         :: total energy             -132.778723384153 Eh   ::
         :: zero point energy           0.859890963423 Eh   ::
         :: G(RRHO) w/o ZPVE           -0.075425596399 Eh   ::
         :: G(RRHO) contrib.            0.784465367024 Eh   ::
         :::::::::::::::::::::::::::::::::::::::::::::::::::::

           -------------------------------------------------
          | TOTAL ENERGY             -132.778723384153 Eh   |
          | TOTAL ENTHALPY           -131.869185757563 Eh   |
          | TOTAL FREE ENERGY        -131.994258017128 Eh   |
          | GRADIENT NORM               0.000034081143 Eh/α |
          | HOMO-LUMO GAP               2.350539685005 eV   |
           -------------------------------------------------

 * finished run on 2025/07/19 at 23:15:08.568
