   * xtb version 6.7.1 (edcfbbe) compiled by 'albert@albert-system' on 2024-07-22

   ID    Z sym.   atoms
    1    6 C      1-8, 10-19, 21-30, 32-49
    2    7 N      9, 31
    3    5 B      20
    4    1 H      50-102

          program call               : xtb data2507/toluene/t-DABNA/t-DABNA.xyz --gfn 2 --gbsa toluene --ohess vtight --parallel 40 --molden --ceasefiles --namespace data2507/toluene/t-DABNA/t-DABNA_toluene_S0_preOpt
      * Solvation model:               GBSA
        Solvent                        toluene
        Solvent mass                       9.2140E+01 g/mol
          :  Hamiltonian                  GFN2-xTB          :
 * total energy  :  -132.6642901 Eh     change       -0.2451173E-08 Eh
 * total energy  :  -132.7225806 Eh     change       -0.5829050E-01 Eh
 * total energy  :  -132.7433817 Eh     change       -0.2080112E-01 Eh
 * total energy  :  -132.7516305 Eh     change       -0.8248797E-02 Eh
 * total energy  :  -132.7564885 Eh     change       -0.4857939E-02 Eh
 * total energy  :  -132.7599342 Eh     change       -0.3445719E-02 Eh
 * total energy  :  -132.7627266 Eh     change       -0.2792385E-02 Eh
 * total energy  :  -132.7651757 Eh     change       -0.2449180E-02 Eh
 * total energy  :  -132.7673885 Eh     change       -0.2212779E-02 Eh
 * total energy  :  -132.7692501 Eh     change       -0.1861617E-02 Eh
 * total energy  :  -132.7784720 Eh     change       -0.1009100E-05 Eh
 * total energy  :  -132.7784732 Eh     change       -0.1199507E-05 Eh
 * total energy  :  -132.7784745 Eh     change       -0.1249681E-05 Eh
 * total energy  :  -132.7784758 Eh     change       -0.1286177E-05 Eh
 * total energy  :  -132.7784770 Eh     change       -0.1262383E-05 Eh
 * total energy  :  -132.7784783 Eh     change       -0.1231824E-05 Eh
 * total energy  :  -132.7784795 Eh     change       -0.1232849E-05 Eh
 * total energy  :  -132.7784808 Eh     change       -0.1270510E-05 Eh
 * total energy  :  -132.7784808 Eh     change       -0.3513520E-08 Eh
   *** GEOMETRY OPTIMIZATION CONVERGED AFTER 152 ITERATIONS ***

 final structure:
================
102
 xtb: 6.7.1 (edcfbbe)
C            6.91884117868972        5.23039198988767        0.62289456165637
C            7.18619431293159        3.90909766990376       -0.11349115933787
C            8.30872294605414        3.13579160816041        0.59481558483959
C            7.65658057409203        4.24046153672644       -1.53299880983840
C            5.91921279022109        3.06716041016981       -0.09666512944284
C            5.36719808373883        2.68397287749323        1.12492030374109
C            4.21798692731811        1.92146293375481        1.19251883518664
C            3.58345807735393        1.51580781131850        0.02526926109803
N            2.38654844310054        0.73938410266559        0.08145119921825
C            2.49968114698279       -0.63266064748308        0.20496581834276
C            3.77664131156370       -1.20090706748724        0.31075240510123
C            3.93678417548372       -2.55058208390177        0.50497837887824
C            2.83641793534774       -3.40371267270778        0.62706056947509
C            3.06581892375568       -4.88515442351938        0.89018763656194
C            3.89232904459637       -5.47642752301521       -0.26212306462138
C            1.75957448373373       -5.67791122082228        0.99153029789869
C            3.82846315289522       -5.05004945572918        2.21314041395927
C            1.58520352665117       -2.83490267298229        0.48979617218903
C            1.36596671982120       -1.47300978091131        0.23646553579954
B           -0.01840129534187       -0.82527710104332        0.00339861777321
C           -1.39857610556504       -1.46762164462513       -0.26873136767346
C           -1.61307789780123       -2.80993180157204       -0.59940814803386
C           -2.86204663240867       -3.37893946574713       -0.78329215993432
C           -2.98178529956903       -4.85391879026340       -1.14073991331389
C           -4.43503369690330       -5.29763614762255       -1.33628248446141
C           -2.37380382995229       -5.69511867345383       -0.00883074519869
C           -2.22294723800500       -5.12010045502329       -2.44945451606248
C           -3.96669554843097       -2.54584807888592       -0.61353824151655
C           -3.80999710196095       -1.20668364716689       -0.33773239954972
C           -2.53933172805422       -0.63672905593565       -0.19674510333060
N           -2.43424861440247        0.72752204297775        0.00282525959714
C           -3.63556590624900        1.49513060440149        0.07966100831291
C           -4.18102455989731        1.81882055687547        1.31173512468099
C           -5.33619732271580        2.57923837249678        1.38588168333022
C           -5.97807052330041        3.03292386145746        0.23932587227900
C           -7.24886803405896        3.86846409971239        0.27639806768056
C           -7.71459679568578        4.17262507248542        1.70353235128941
C           -6.99327331479633        5.20425713921497       -0.43771158319770
C           -8.36930340535842        3.10073134437459       -0.44121889750289
C           -5.41750919750977        2.69271981220633       -0.99102952850989
C           -4.26420764161498        1.93839376242575       -1.07709516813496
C           -1.23846427328699        1.41274326227282        0.04326968745913
C           -1.23386312911584        2.80860651754848        0.08953056196356
C           -0.03179715616597        3.48720302917465        0.12271744027308
C            1.17435070625569        2.81532844423056        0.11644496748788
C            1.18688374883327        1.41909186547527        0.08350622626042
C           -0.02346069762587        0.69377597913277        0.04400006248292
C            4.11886005195398        1.88489792557706       -1.19844710872393
C            5.27101697185561        2.65133756414660       -1.25394068289010
H            6.64340163854354        5.05950152623453        1.65993439885480
H            6.10868524314944        5.77357496421269        0.13989391217816
H            7.81020755396770        5.85392902679710        0.60583378379481
H            8.05810872833109        2.93220788575507        1.63224422315692
H            8.48566035780392        2.18595926226175        0.09369716268112
H            9.23033972456051        3.71351551173775        0.57443860883582
H            7.88547859913876        3.33570170422797       -2.09162468383540
H            8.56264642913007        4.84093992611559       -1.48209603681295
H            6.90490625169948        4.81306907504522       -2.07162903602508
H            5.83678259000532        2.98401598404750        2.04920851590863
H            3.80353218138786        1.63600706477976        2.14881513581870
H            4.65354221920646       -0.57321994908756        0.25050103414477
H            4.94149523160004       -2.94034405698636        0.58034379537112
H            4.86473270558280       -4.99737360264331       -0.33942083050334
H            4.04946930532921       -6.54179007490171       -0.10412801084531
H            3.37022709034480       -5.34039262345167       -1.20765994779724
H            1.13670287038515       -5.30695227354341        1.80253561379005
H            1.98347132866603       -6.72438632048117        1.19094687737311
H            1.20217582408626       -5.62742077204113        0.05899295955448
H            3.99828199205557       -6.10495847728320        2.42052559140990
H            3.25322529168234       -4.62466285999654        3.03355583752062
H            4.79291540252032       -4.55019664842317        2.17893190409594
H            0.71147017421526       -3.45203148920990        0.60275986992978
H           -0.73957892569380       -3.42518036084332       -0.73928604807559
H           -4.45952208506014       -6.35255067224130       -1.60403462298446
H           -4.91136589680434       -4.73586714935501       -2.13704465186435
H           -5.01002556111515       -5.17096148767430       -0.42149419976209
H           -2.90032366584190       -5.50691529664584        0.92515544140626
H           -1.32516613447631       -5.45477702905029        0.13858978124384
H           -2.45210204489750       -6.75537296128864       -0.24200483467611
H           -2.63298935190109       -4.50993336807832       -3.25227152908769
H           -2.31369824673713       -6.16773735899934       -2.73056735662138
H           -1.16683451498494       -4.88449432041473       -2.35060695684916
H           -4.97044891268447       -2.92728663685485       -0.71237689012907
H           -4.69130737266693       -0.58960972479726       -0.24169139166419
H           -3.69461897666530        1.47616011242139        2.21373565639936
H           -5.72669330055296        2.81163413379916        2.36283100203031
H           -7.94405220453092        3.25775642578903        2.24512409217212
H           -6.95977626213508        4.73276427543500        2.25086251705926
H           -8.61956609419681        4.77580418472804        1.66710098054064
H           -7.88700453600235        5.82356054235673       -0.40109948815718
H           -6.18097898019841        5.74184051237365        0.04790877288039
H           -6.72714707467019        5.05433918491797       -1.48031478139612
H           -8.54270569312307        2.14374810306098        0.04738259517590
H           -8.11759618904455        2.91150059619126       -1.48117018412170
H           -9.29289187018643        3.67499418247213       -0.41302674073907
H           -5.88309383650270        3.02116005061096       -1.90764817645734
H           -3.84216764590470        1.68789893293274       -2.03987466667578
H           -2.15855956220896        3.36416069369202        0.08974332501577
H           -0.03519712050930        4.56799136937602        0.15365742824047
H            2.09586299042066        3.37541079447641        0.14573044267923
H            3.62747954147194        1.57220279019790       -2.10857861221634
H            5.65402650654230        2.91884391187916       -2.22482727551461

          :  Hamiltonian                  GFN2-xTB          :
         :: gradient norm              0.000061912711 Eh/a0 ::
         :: HOMO-LUMO gap              2.338344721729 eV    ::
         :: SCC energy              -135.069518249727 Eh    ::
         :: -> dispersion             -0.129779149107 Eh    ::
         :: -> Gsolv                  -0.049526291366 Eh    ::
         :: repulsion energy           2.291037476729 Eh    ::

    * Orbital Energies and Occupations

         #    Occupation            Energy/Eh            Energy/eV
      -------------------------------------------------------------
         1        2.0000           -0.6596331             -17.9495
       ...           ...                  ...                  ...
       113        2.0000           -0.4076472             -11.0926
       114        2.0000           -0.4054911             -11.0340
       115        2.0000           -0.4035792             -10.9819
       116        2.0000           -0.3958978             -10.7729
       117        2.0000           -0.3957802             -10.7697
       118        2.0000           -0.3938234             -10.7165
       119        2.0000           -0.3877839             -10.5521
       120        2.0000           -0.3847622             -10.4699
       121        2.0000           -0.3835413             -10.4367
       122        2.0000           -0.3718913             -10.1197
       123        2.0000           -0.3702313             -10.0745
       124        2.0000           -0.3544161              -9.6442
       125        2.0000           -0.3348372              -9.1114 (HOMO)
       126                         -0.2489046              -6.7730 (LUMO)
       127                         -0.2272146              -6.1828
       128                         -0.2262619              -6.1569
       129                         -0.2256045              -6.1390
       130                         -0.2253646              -6.1325
       131                         -0.2136070              -5.8125
       132                         -0.2090910              -5.6897
       133                         -0.2041627              -5.5556
       134                         -0.1908560              -5.1935
       135                         -0.1720356              -4.6813
       136                         -0.1327363              -3.6119
       ...                                ...                  ...
       249                          0.7217441              19.6397
      -------------------------------------------------------------
                  HL-Gap            0.0859326 Eh            2.3383 eV

     #   Z          covCN         q      C6AA      α(0)
     1   6 C        3.761    -0.106    22.573     6.773
     2   6 C        3.902     0.026    20.081     6.370
     3   6 C        3.761    -0.106    22.574     6.773
     4   6 C        3.761    -0.109    22.629     6.781
     5   6 C        2.972     0.010    27.795     8.648
     6   6 C        2.927    -0.035    28.875     8.812
     7   6 C        2.920    -0.041    29.012     8.833
     8   6 C        2.933     0.065    26.537     8.448
     9   7 N        2.754    -0.061    22.421     7.033
    10   6 C        2.927     0.057    26.712     8.476
    11   6 C        2.918    -0.061    29.508     8.908
    12   6 C        2.927    -0.037    28.912     8.818
    13   6 C        2.968    -0.009    28.229     8.715
    14   6 C        3.902     0.024    20.122     6.376
    15   6 C        3.761    -0.103    22.508     6.763
    16   6 C        3.761    -0.103    22.518     6.765
    17   6 C        3.761    -0.103    22.516     6.764
    18   6 C        2.930    -0.047    29.163     8.856
    19   6 C        2.886    -0.088    30.216     9.012
    20   5 B        2.723     0.187    18.566     7.220
    21   6 C        2.885    -0.088    30.204     9.010
    22   6 C        2.933    -0.043    29.059     8.841
    23   6 C        2.968    -0.008    28.224     8.714
    24   6 C        3.902     0.024    20.122     6.376
    25   6 C        3.761    -0.104    22.541     6.768
    26   6 C        3.761    -0.103    22.520     6.765
    27   6 C        3.761    -0.103    22.517     6.765
    28   6 C        2.925    -0.041    29.021     8.835
    29   6 C        2.918    -0.061    29.528     8.911
    30   6 C        2.927     0.057    26.716     8.477
    31   7 N        2.754    -0.062    22.431     7.034
    32   6 C        2.933     0.065    26.536     8.448
    33   6 C        2.920    -0.042    29.031     8.836
    34   6 C        2.925    -0.039    28.976     8.828
    35   6 C        2.972     0.010    27.796     8.648
    36   6 C        3.902     0.026    20.082     6.370
    37   6 C        3.761    -0.109    22.629     6.781
    38   6 C        3.761    -0.106    22.574     6.773
    39   6 C        3.761    -0.106    22.573     6.773
    40   6 C        2.927    -0.035    28.874     8.812
    41   6 C        2.920    -0.041    29.012     8.833
    42   6 C        2.927     0.062    26.619     8.461
    43   6 C        2.917    -0.075    29.868     8.962
    44   6 C        2.919    -0.033    28.815     8.803
    45   6 C        2.917    -0.075    29.867     8.962
    46   6 C        2.927     0.061    26.624     8.462
    47   6 C        2.896    -0.107    30.693     9.083
    48   6 C        2.921    -0.041    29.030     8.836
    49   6 C        2.925    -0.039    28.975     8.827
    50   1 H        0.925     0.038     2.477     2.461
    51   1 H        0.925     0.034     2.536     2.490
    52   1 H        0.925     0.041     2.432     2.439
    53   1 H        0.925     0.038     2.475     2.460
    54   1 H        0.925     0.034     2.533     2.489
    55   1 H        0.925     0.041     2.432     2.439
    56   1 H        0.925     0.037     2.484     2.464
    57   1 H        0.925     0.040     2.450     2.448
    58   1 H        0.925     0.037     2.485     2.465
    59   1 H        0.926     0.040     2.452     2.449
    60   1 H        0.926     0.036     2.506     2.475
    61   1 H        0.926     0.016     2.787     2.611
    62   1 H        0.926     0.020     2.730     2.584
    63   1 H        0.925     0.033     2.540     2.492
    64   1 H        0.925     0.035     2.512     2.479
    65   1 H        0.925     0.031     2.579     2.511
    66   1 H        0.925     0.035     2.523     2.484
    67   1 H        0.925     0.034     2.524     2.484
    68   1 H        0.925     0.033     2.543     2.494
    69   1 H        0.925     0.035     2.515     2.480
    70   1 H        0.925     0.031     2.577     2.510
    71   1 H        0.925     0.033     2.539     2.492
    72   1 H        0.926     0.038     2.478     2.462
    73   1 H        0.926     0.032     2.555     2.500
    74   1 H        0.925     0.034     2.530     2.487
    75   1 H        0.925     0.033     2.551     2.498
    76   1 H        0.925     0.033     2.546     2.495
    77   1 H        0.925     0.030     2.590     2.517
    78   1 H        0.925     0.037     2.486     2.466
    79   1 H        0.925     0.035     2.518     2.482
    80   1 H        0.925     0.030     2.592     2.518
    81   1 H        0.925     0.035     2.516     2.481
    82   1 H        0.925     0.035     2.513     2.479
    83   1 H        0.926     0.027     2.630     2.536
    84   1 H        0.926     0.016     2.792     2.613
    85   1 H        0.926     0.036     2.503     2.474
    86   1 H        0.926     0.047     2.359     2.402
    87   1 H        0.925     0.037     2.483     2.464
    88   1 H        0.925     0.037     2.486     2.466
    89   1 H        0.925     0.040     2.451     2.448
    90   1 H        0.925     0.041     2.434     2.440
    91   1 H        0.925     0.034     2.537     2.491
    92   1 H        0.925     0.038     2.476     2.461
    93   1 H        0.925     0.034     2.532     2.488
    94   1 H        0.925     0.038     2.476     2.461
    95   1 H        0.925     0.041     2.432     2.439
    96   1 H        0.926     0.040     2.453     2.449
    97   1 H        0.926     0.036     2.509     2.477
    98   1 H        0.926     0.014     2.821     2.626
    99   1 H        0.925     0.018     2.766     2.601
   100   1 H        0.926     0.014     2.821     2.626
   101   1 H        0.926     0.036     2.503     2.474
   102   1 H        0.926     0.047     2.358     2.401

molecular dipole:
                 x           y           z       tot (Debye)
 q only:        0.017       0.815       0.018
   full:        0.034       0.928       0.018       2.361

 projected vibrational frequencies (cm⁻¹)
eigval :       -0.00    -0.00    -0.00     0.00     0.00     0.00
eigval :        6.86    12.51    18.58    22.17    22.98    25.80
eigval :       27.88    36.28    43.33    46.20    55.20    60.11
eigval :       67.02    74.22    87.63    96.35    98.00   101.62
eigval :      118.90   139.42   149.29   169.27   173.90   176.17
eigval :      177.89   179.08   183.40   190.14   206.07   218.07
eigval :      219.95   223.92   226.93   229.60   238.90   241.74
eigval :      247.19   248.40   258.16   266.37   281.10   297.40
eigval :      310.44   311.20   316.67   316.99   319.64   320.48
eigval :      325.29   341.25   353.96   356.67   360.27   362.95
eigval :      364.45   367.46   377.65   380.71   390.46   397.77
eigval :      403.39   409.47   414.47   425.71   428.87   430.33
eigval :      439.81   450.17   453.73   455.13   459.00   468.10
eigval :      472.71   479.47   488.18   516.56   526.25   527.78
eigval :      553.38   555.80   566.97   580.90   588.80   594.96
eigval :      610.37   612.95   615.68   617.67   619.57   661.71
eigval :      662.52   684.86   697.53   705.45   708.31   711.54
eigval :      721.29   728.13   772.72   778.12   779.64   812.75
eigval :      815.48   819.80   820.85   847.51   868.82   869.35
eigval :      870.13   870.63   874.20   876.22   880.81   896.68
eigval :      908.50   913.17   913.80   914.47   915.97   919.38
eigval :      926.72   927.59   928.89   935.35   946.52   958.81
eigval :      959.26   959.68   959.95   960.38   960.51   961.52
eigval :      962.33   962.46   962.76   963.09   963.41   967.90
eigval :     1008.89  1015.65  1033.26  1034.38  1034.62  1035.10
eigval :     1035.19  1035.36  1036.07  1036.38  1084.46  1096.07
eigval :     1138.14  1138.80  1141.87  1142.66  1143.72  1144.98
eigval :     1161.42  1168.98  1194.85  1197.14  1200.30  1205.50
eigval :     1222.60  1225.27  1225.63  1225.77  1225.85  1226.27
eigval :     1231.25  1231.50  1231.56  1232.41  1243.73  1255.19
eigval :     1260.30  1273.06  1273.58  1279.28  1280.31  1281.77
eigval :     1294.42  1296.44  1304.15  1308.16  1309.15  1315.11
eigval :     1316.08  1334.97  1344.99  1348.97  1363.00  1395.59
eigval :     1395.64  1397.79  1401.34  1402.33  1402.63  1402.77
eigval :     1403.14  1406.81  1406.95  1409.81  1423.10  1425.33
eigval :     1426.20  1427.38  1427.61  1427.82  1433.06  1459.08
eigval :     1473.29  1485.45  1486.73  1488.24  1488.48  1489.69
eigval :     1490.20  1491.16  1491.43  1493.22  1494.36  1499.53
eigval :     1499.69  1499.81  1500.69  1502.92  1503.66  1503.80
eigval :     1504.11  1510.88  1511.62  1511.68  1512.06  1516.89
eigval :     1517.08  1518.78  1519.39  1538.71  1543.01  1562.56
eigval :     1568.55  1568.62  1572.07  1594.47  1599.29  1601.01
eigval :     1601.32  3014.32  3015.36  3015.99  3016.22  3020.63
eigval :     3020.94  3021.35  3021.70  3021.81  3022.09  3022.24
eigval :     3022.30  3024.36  3025.45  3026.06  3026.08  3026.37
eigval :     3026.42  3027.79  3029.39  3029.65  3029.73  3032.33
eigval :     3032.47  3032.50  3033.68  3037.29  3037.71  3040.80
eigval :     3044.02  3044.22  3044.31  3044.34  3047.61  3047.72
eigval :     3053.74  3062.53  3068.58  3075.61  3076.02  3078.74
eigval :     3079.81  3080.29  3085.25  3090.78  3090.90  3092.99
eigval :     3098.37  3102.81  3109.84  3116.37  3116.38  3138.85

   temp. (K)  partition function   enthalpy   heat capacity  entropy
                                   cal/mol     cal/K/mol   cal/K/mol   J/K/mol
 298.15  VIB  0.116E+23            28672.888    176.675    177.255
         ROT  0.112E+09              888.752      2.981     39.807
         INT  0.129E+31            29561.640    179.656    217.062
         TR   0.158E+29             1481.254      4.968     45.253
         TOT                       31042.8939   184.6243   262.3143  1097.5232

       T/K    H(0)-H(T)+PV         H(T)/Eh          T*S/Eh         G(T)/Eh
   ------------------------------------------------------------------------
    298.15    0.494700E-01    0.909680E+00    0.124634E+00    0.785046E+00
   ------------------------------------------------------------------------

         :::::::::::::::::::::::::::::::::::::::::::::::::::::
         ::                  THERMODYNAMIC                  ::
         :::::::::::::::::::::::::::::::::::::::::::::::::::::
         :: total free energy        -131.993435063084 Eh   ::
         ::.................................................::
         :: total energy             -132.778480773662 Eh   ::
         :: zero point energy           0.860209714424 Eh   ::
         :: G(RRHO) w/o ZPVE           -0.075164003845 Eh   ::
         :: G(RRHO) contrib.            0.785045710578 Eh   ::
         :::::::::::::::::::::::::::::::::::::::::::::::::::::

           -------------------------------------------------
          | TOTAL ENERGY             -132.778480773662 Eh   |
          | TOTAL ENTHALPY           -131.868801058966 Eh   |
          | TOTAL FREE ENERGY        -131.993435063084 Eh   |
          | GRADIENT NORM               0.000061910270 Eh/α |
          | HOMO-LUMO GAP               2.338345237196 eV   |
           -------------------------------------------------

 * finished run on 2025/07/19 at 23:04:38.901
