   * xtb version 6.7.1 (edcfbbe) compiled by 'albert@albert-system' on 2024-07-22

   ID    Z sym.   atoms
    1    6 C      1-8, 10-19, 21-30, 32-49
    2    7 N      9, 31
    3    5 B      20
    4    1 H      50-102

          program call               : xtb data2507/toluene/t-DABNA/t-DABNA_toluene_S0_finalOpt.xtbopt.xyz --gfn 2 --uhf 2 --gbsa toluene --ohess vtight --parallel 40 --molden --ceasefiles --namespace data2507/toluene/t-DABNA/t-DABNA_toluene_T1_preOpt
      * Solvation model:               GBSA
        Solvent                        toluene
        Solvent mass                       9.2140E+01 g/mol
          :  Hamiltonian                  GFN2-xTB          :
 * total energy  :  -132.6852293 Eh     change       -0.2988571E-08 Eh
 * total energy  :  -132.6862956 Eh     change       -0.1066213E-02 Eh
 * total energy  :  -132.6865140 Eh     change       -0.2184270E-03 Eh
 * total energy  :  -132.6865292 Eh     change       -0.1526893E-04 Eh
 * total energy  :  -132.6865379 Eh     change       -0.8608633E-05 Eh
 * total energy  :  -132.6865438 Eh     change       -0.5906088E-05 Eh
 * total energy  :  -132.6865575 Eh     change       -0.1374168E-04 Eh
 * total energy  :  -132.6865642 Eh     change       -0.6742097E-05 Eh
 * total energy  :  -132.6865731 Eh     change       -0.8833330E-05 Eh
 * total energy  :  -132.6865857 Eh     change       -0.1258166E-04 Eh
 * total energy  :  -132.6867230 Eh     change       -0.3015101E-06 Eh
 * total energy  :  -132.6867234 Eh     change       -0.3462399E-06 Eh
 * total energy  :  -132.6867238 Eh     change       -0.4536076E-06 Eh
 * total energy  :  -132.6867245 Eh     change       -0.6535441E-06 Eh
 * total energy  :  -132.6867253 Eh     change       -0.7576696E-06 Eh
 * total energy  :  -132.6867260 Eh     change       -0.7288832E-06 Eh
 * total energy  :  -132.6867267 Eh     change       -0.6822014E-06 Eh
 * total energy  :  -132.6867273 Eh     change       -0.6750251E-06 Eh
 * total energy  :  -132.6867273 Eh     change       -0.4581779E-08 Eh
   *** GEOMETRY OPTIMIZATION CONVERGED AFTER 68 ITERATIONS ***

 final structure:
================
102
 xtb: 6.7.1 (edcfbbe)
C            7.58166651756997        4.15843792537317       -1.80284308201698
C            7.21317004776984        3.74814889884767       -0.37385216041828
C            7.01395076456984        5.02604448059187        0.45498022845797
C            8.37667577592483        2.92876945912764        0.20457219956069
C            5.94249937880459        2.91445968613587       -0.31231519496146
C            5.47753783573095        2.46193613825414        0.92235341055001
C            4.33070076619582        1.70140821948572        1.03061748408919
C            3.60632649444445        1.36981675310083       -0.10838364760025
N            2.41434134880888        0.59606030913620       -0.01421766392094
C            2.53209598291786       -0.77309557024461        0.13599691299406
C            3.80499748600064       -1.34378722802121        0.19766280499612
C            3.96758590706446       -2.69504458951901        0.45112443882546
C            2.86153305036513       -3.51960628946231        0.68079706248422
C            3.08800326968526       -4.98103721295927        1.03348940252793
C            3.83675805688065       -5.66903471618666       -0.11824445931728
C            1.78326471827615       -5.74529229288611        1.27550158051954
C            3.93051945891001       -5.05714567539912        2.31654432190891
C            1.60256022607577       -2.95246943849056        0.56092968701439
C            1.37772076874467       -1.60456226277070        0.22735667335151
B            0.00128987659890       -0.96617724677056       -0.00261536966264
C           -1.37397907433065       -1.60672011564043       -0.23331685075886
C           -1.59605602183118       -2.95528255767727       -0.56599745999776
C           -2.85385695292916       -3.52463025263927       -0.68751260719221
C           -3.07718158603539       -4.98716801338129       -1.03767270221459
C           -3.91617649413696       -5.06764637604311       -2.32274993878315
C           -3.82791252593884       -5.67365389115277        0.11369147358207
C           -1.77062872179853       -5.75000088975497       -1.27431116067411
C           -3.96164786245296       -2.70138854177185       -0.46155659786926
C           -3.80166325479020       -1.34976747836152       -0.20841243727248
C           -2.52980421907298       -0.77704315485718       -0.14381761955559
N           -2.41443151592783        0.59223479225276        0.00784237055290
C           -3.60773461149366        1.36394316090613        0.10252539856795
C           -4.05474934089444        1.80456484261798        1.33972395734988
C           -5.20893077958944        2.56265178633766        1.43582300299886
C           -5.94746679595958        2.90313127143920        0.30797511877055
C           -7.22042034546893        3.73329178254688        0.37038567381222
C           -7.59112939493100        4.13946990798878        1.79998122933139
C           -7.02395311735279        5.01345987639127       -0.45557533202661
C           -8.38140507008045        2.91211704533907       -0.21059729253963
C           -5.48168387092452        2.45252468087369       -0.92707829518124
C           -4.33310588394512        1.69471189750633       -1.03609396980989
C           -1.20729048204257        1.28047743352473       -0.00021069300569
C           -1.20522391562739        2.67695873348423       -0.00500017093172
C           -0.00217253767794        3.37218121270720       -0.00056226276191
C            1.20196987461823        2.67887432650359        0.00252606317246
C            1.20616185540940        1.28241744524980       -0.00431441777817
C            0.00003306226602        0.55075320957208       -0.00247966193122
C            4.05284017917633        1.81178884530895       -1.34526857717723
C            5.20531155084696        2.57256095696627       -1.44061290508683
H            6.79787002675450        4.76477319433998       -2.25125352916610
H            7.76132223063027        3.28624233795858       -2.42737529382740
H            8.49428335551290        4.75080679109941       -1.78439956005539
H            6.17749468559195        5.60227717417476        0.06399951344076
H            6.81228053032356        4.79662026225337        1.49765272765427
H            7.90883867222465        5.64303447797679        0.40947117905572
H            8.19952992073079        2.66487025420049        1.24355101584675
H            9.29946881328005        3.50259026959168        0.15193690156728
H            8.50886724220166        2.00958662669029       -0.36310455384875
H            6.01589796922634        2.70502900263608        1.82553901041128
H            3.98692641001222        1.35935028803725        1.99619288925290
H            4.68470110662390       -0.73250618636062        0.06139660942779
H            4.97094739194864       -3.09100539598653        0.48944877380570
H            4.80205467133633       -5.20304620131837       -0.29740291464569
H            4.00271739401337       -6.71881209420462        0.11659212112882
H            3.25334000208082       -5.60759541084224       -1.03512558509045
H            1.21563885855425       -5.30370668009760        2.09171234046169
H            2.00932479361220       -6.77696755703532        1.53977325066340
H            1.16878653071487       -5.75556154827590        0.37848713955641
H            4.08530022629179       -6.09582105372614        2.60287261447167
H            3.42032524962259       -4.54577893404400        3.13089769322176
H            4.90352944394946       -4.59301216371131        2.17956866824448
H            0.72870381780561       -3.55503876129872        0.73605385138528
H           -0.72089118747402       -3.55658244015218       -0.73889990117498
H           -4.06885285696677       -6.10726561833741       -2.60679851779836
H           -3.40450248398670       -4.55772057214791       -3.13707550456626
H           -4.89013962779544       -4.60443444281046       -2.18950135591811
H           -4.79437237812029       -5.20871464207202        0.28920179453478
H           -3.24703772957354       -5.60916649118823        1.03197480770617
H           -3.99165930221467       -6.72423981549935       -0.11908745861540
H           -1.20162165768904       -5.30972560655287       -2.09025976929864
H           -1.99438248497974       -6.78274194958175       -1.53637928253621
H           -1.15842234463136       -5.75686244154920       -0.37570199799845
H           -4.96436092705639       -3.09877983862724       -0.50226540452525
H           -4.68264691096826       -0.73980989407129       -0.07452488266543
H           -3.49301234604037        1.54995399153264        2.22688903717474
H           -5.52273550517495        2.88250114624697        2.41560731788236
H           -7.76814661092530        3.26537835359194        2.42261224871390
H           -6.80970181783652        4.74757605776814        2.25011923016859
H           -8.50573662026796        4.72878741984821        1.78219868562309
H           -7.92107154129191        5.62724869775324       -0.41067766608657
H           -6.19029730540154        5.59185690408277       -0.06181745777679
H           -6.81936816433780        4.78667031937374       -1.49825913820421
H           -8.51058032419969        1.99062093903917        0.35402160718100
H           -8.20368525214333        2.65230615369574       -1.25049956466825
H           -9.30601703972346        3.48281315074502       -0.15587424917762
H           -6.02081921452324        2.69492784313079       -1.82999066317700
H           -3.98886520366876        1.35398524147392       -2.00197654278124
H           -2.13232573856089        3.22943640288627       -0.00320659041213
H           -0.00303946664022        4.45095961969290        0.00038137151341
H            2.12821926394515        3.23278875784535        0.00131945065256
H            3.49202011644664        1.55621510223148       -2.23273277801438
H            5.51878053206520        2.89348658692873       -2.42014961907101

          :  Hamiltonian                  GFN2-xTB          :
         :: gradient norm              0.000051481389 Eh/a0 ::
         :: HOMO-LUMO gap              0.379142552543 eV    ::
         :: SCC energy              -134.962448716866 Eh    ::
         :: -> dispersion             -0.129527815923 Eh    ::
         :: -> Gsolv                  -0.049941043842 Eh    ::
         :: repulsion energy           2.275721372751 Eh    ::

    * Orbital Energies and Occupations

         #    Occupation            Energy/Eh            Energy/eV
      -------------------------------------------------------------
         1        2.0000           -0.6629482             -18.0397
       ...           ...                  ...                  ...
       114        2.0000           -0.4019396             -10.9373
       115        2.0000           -0.4015146             -10.9258
       116        2.0000           -0.3969111             -10.8005
       117        2.0000           -0.3952590             -10.7555
       118        2.0000           -0.3899398             -10.6108
       119        2.0000           -0.3891073             -10.5881
       120        2.0000           -0.3798040             -10.3350
       121        2.0000           -0.3779281             -10.2839
       122        2.0000           -0.3664666              -9.9721
       123        2.0000           -0.3633291              -9.8867
       124        1.9986           -0.3520434              -9.5796
       125        1.0014           -0.3395114              -9.2386
       126        0.9992           -0.2431303              -6.6159 (HOMO)
       127        0.0006           -0.2291972              -6.2368 (LUMO)
       128        0.0001           -0.2278033              -6.1988
       129        0.0000           -0.2268620              -6.1732
       130        0.0000           -0.2267506              -6.1702
       131                         -0.2164886              -5.8910
       132                         -0.2093357              -5.6963
       133                         -0.1996804              -5.4336
       134                         -0.1893136              -5.1515
       135                         -0.1751224              -4.7653
       136                         -0.1269760              -3.4552
       137                         -0.1013837              -2.7588
       ...                                ...                  ...
       249                          0.7300928              19.8668
      -------------------------------------------------------------
                  HL-Gap            0.0139331 Eh            0.3791 eV

     #   Z          covCN         q      C6AA      α(0)
     1   6 C        3.761    -0.109    22.633     6.782
     2   6 C        3.902     0.026    20.079     6.369
     3   6 C        3.761    -0.106    22.579     6.774
     4   6 C        3.761    -0.106    22.576     6.773
     5   6 C        2.972     0.010    27.798     8.648
     6   6 C        2.927    -0.035    28.866     8.811
     7   6 C        2.919    -0.040    28.995     8.830
     8   6 C        2.932     0.062    26.605     8.459
     9   7 N        2.754    -0.038    21.984     6.964
    10   6 C        2.924     0.058    26.701     8.474
    11   6 C        2.915    -0.065    29.616     8.924
    12   6 C        2.923    -0.052    29.283     8.874
    13   6 C        2.967     0.003    27.955     8.673
    14   6 C        3.902     0.024    20.120     6.376
    15   6 C        3.761    -0.102    22.492     6.761
    16   6 C        3.761    -0.103    22.523     6.765
    17   6 C        3.761    -0.102    22.492     6.761
    18   6 C        2.925    -0.063    29.566     8.917
    19   6 C        2.883    -0.074    29.841     8.956
    20   5 B        2.724     0.133    19.387     7.378
    21   6 C        2.883    -0.074    29.841     8.956
    22   6 C        2.925    -0.063    29.566     8.917
    23   6 C        2.967     0.003    27.955     8.673
    24   6 C        3.902     0.024    20.120     6.376
    25   6 C        3.761    -0.102    22.492     6.761
    26   6 C        3.761    -0.102    22.493     6.761
    27   6 C        3.761    -0.103    22.522     6.765
    28   6 C        2.923    -0.052    29.283     8.874
    29   6 C        2.915    -0.065    29.615     8.924
    30   6 C        2.923     0.058    26.702     8.474
    31   7 N        2.754    -0.038    21.985     6.964
    32   6 C        2.932     0.062    26.605     8.459
    33   6 C        2.920    -0.041    29.023     8.835
    34   6 C        2.925    -0.039    28.965     8.826
    35   6 C        2.972     0.010    27.798     8.648
    36   6 C        3.902     0.026    20.079     6.369
    37   6 C        3.761    -0.109    22.633     6.782
    38   6 C        3.761    -0.106    22.579     6.774
    39   6 C        3.761    -0.106    22.576     6.773
    40   6 C        2.927    -0.035    28.866     8.811
    41   6 C        2.919    -0.040    28.995     8.830
    42   6 C        2.924     0.052    26.836     8.495
    43   6 C        2.916    -0.048    29.188     8.859
    44   6 C        2.914    -0.054    29.331     8.881
    45   6 C        2.916    -0.048    29.188     8.859
    46   6 C        2.924     0.052    26.836     8.495
    47   6 C        2.895    -0.101    30.551     9.062
    48   6 C        2.920    -0.041    29.024     8.835
    49   6 C        2.925    -0.039    28.965     8.826
    50   1 H        0.925     0.038     2.481     2.463
    51   1 H        0.925     0.037     2.483     2.464
    52   1 H        0.925     0.040     2.449     2.447
    53   1 H        0.925     0.034     2.530     2.487
    54   1 H        0.925     0.038     2.474     2.460
    55   1 H        0.925     0.041     2.431     2.438
    56   1 H        0.925     0.038     2.475     2.460
    57   1 H        0.925     0.041     2.432     2.439
    58   1 H        0.925     0.034     2.534     2.489
    59   1 H        0.926     0.041     2.435     2.440
    60   1 H        0.926     0.037     2.491     2.468
    61   1 H        0.926     0.012     2.859     2.644
    62   1 H        0.926     0.012     2.852     2.641
    63   1 H        0.925     0.034     2.535     2.490
    64   1 H        0.925     0.035     2.510     2.478
    65   1 H        0.925     0.031     2.568     2.506
    66   1 H        0.925     0.034     2.534     2.489
    67   1 H        0.925     0.033     2.539     2.492
    68   1 H        0.925     0.035     2.515     2.480
    69   1 H        0.925     0.035     2.511     2.478
    70   1 H        0.925     0.030     2.580     2.512
    71   1 H        0.925     0.034     2.528     2.487
    72   1 H        0.926     0.031     2.566     2.505
    73   1 H        0.926     0.031     2.566     2.505
    74   1 H        0.925     0.035     2.511     2.478
    75   1 H        0.925     0.030     2.579     2.512
    76   1 H        0.925     0.034     2.528     2.487
    77   1 H        0.925     0.034     2.535     2.490
    78   1 H        0.925     0.031     2.569     2.506
    79   1 H        0.925     0.035     2.511     2.478
    80   1 H        0.925     0.034     2.534     2.489
    81   1 H        0.925     0.033     2.539     2.492
    82   1 H        0.925     0.035     2.515     2.480
    83   1 H        0.926     0.012     2.852     2.641
    84   1 H        0.926     0.012     2.859     2.644
    85   1 H        0.926     0.037     2.487     2.466
    86   1 H        0.926     0.048     2.340     2.392
    87   1 H        0.925     0.037     2.483     2.464
    88   1 H        0.925     0.038     2.481     2.463
    89   1 H        0.925     0.040     2.449     2.447
    90   1 H        0.925     0.041     2.431     2.438
    91   1 H        0.925     0.034     2.530     2.487
    92   1 H        0.925     0.038     2.474     2.460
    93   1 H        0.925     0.034     2.534     2.489
    94   1 H        0.925     0.038     2.475     2.460
    95   1 H        0.925     0.041     2.432     2.439
    96   1 H        0.926     0.041     2.435     2.440
    97   1 H        0.926     0.037     2.491     2.468
    98   1 H        0.926     0.026     2.651     2.546
    99   1 H        0.926     0.022     2.701     2.570
   100   1 H        0.926     0.026     2.651     2.546
   101   1 H        0.926     0.037     2.487     2.466
   102   1 H        0.926     0.048     2.340     2.392

molecular dipole:
                 x           y           z       tot (Debye)
 q only:       -0.001       1.508       0.001
   full:       -0.001       1.603       0.001       4.074

 projected vibrational frequencies (cm⁻¹)
eigval :       -0.00    -0.00    -0.00     0.00     0.00     0.00
eigval :       -7.80     9.04    14.10    14.61    18.49    27.00
eigval :       28.02    33.68    38.46    42.17    50.98    57.59
eigval :       67.81    68.77    87.35    96.55    98.52   103.48
eigval :      119.96   141.47   154.48   168.74   171.96   173.08
eigval :      177.06   179.17   183.22   190.20   205.97   218.85
eigval :      220.43   222.79   224.30   230.73   234.36   234.59
eigval :      246.34   246.69   255.65   266.99   267.70   300.41
eigval :      303.79   309.64   312.50   314.02   318.14   318.54
eigval :      326.71   330.84   346.53   349.56   353.55   358.15
eigval :      361.47   362.48   377.00   377.76   388.80   391.68
eigval :      397.43   405.11   405.92   415.00   420.19   424.57
eigval :      436.79   443.31   451.81   452.95   455.51   465.83
eigval :      472.10   474.54   485.16   506.93   522.56   524.97
eigval :      551.16   551.51   553.49   579.17   589.74   596.29
eigval :      603.42   604.00   607.42   612.95   616.08   653.28
eigval :      657.49   659.66   686.48   695.45   700.85   704.00
eigval :      717.77   723.20   744.86   766.58   775.39   779.38
eigval :      786.93   814.14   820.19   833.73   846.07   859.90
eigval :      865.67   867.08   867.89   869.93   871.03   871.87
eigval :      871.98   872.59   878.21   904.28   914.61   916.40
eigval :      917.84   924.52   929.95   930.06   944.18   956.99
eigval :      958.07   959.91   959.92   959.95   962.16   962.25
eigval :      962.27   962.36   963.35   963.45   964.44   964.95
eigval :     1004.22  1013.48  1031.93  1032.37  1033.69  1035.04
eigval :     1035.07  1035.48  1035.64  1035.95  1069.29  1087.13
eigval :     1119.53  1132.33  1138.83  1139.15  1143.37  1143.40
eigval :     1152.83  1159.94  1178.10  1189.18  1192.46  1199.74
eigval :     1207.82  1217.06  1220.86  1222.59  1224.69  1225.12
eigval :     1225.18  1226.82  1229.39  1231.26  1231.36  1235.54
eigval :     1249.29  1258.86  1264.33  1272.81  1273.02  1277.34
eigval :     1278.02  1286.26  1288.16  1299.98  1303.93  1308.70
eigval :     1311.98  1312.29  1324.09  1340.27  1360.30  1360.39
eigval :     1373.78  1386.71  1395.46  1395.58  1400.06  1401.42
eigval :     1401.57  1402.91  1402.98  1403.32  1406.27  1406.85
eigval :     1406.95  1425.06  1425.90  1427.37  1427.44  1430.41
eigval :     1446.73  1468.25  1468.91  1480.84  1482.02  1487.74
eigval :     1487.82  1489.47  1489.91  1490.24  1490.34  1493.21
eigval :     1493.53  1496.93  1497.14  1498.82  1499.06  1501.37
eigval :     1502.18  1502.49  1502.69  1507.12  1507.29  1509.27
eigval :     1510.73  1511.83  1511.94  1516.14  1516.33  1517.79
eigval :     1519.60  1526.15  1550.42  1550.83  1556.26  1585.09
eigval :     1588.50  3013.84  3013.97  3014.86  3014.96  3019.96
eigval :     3020.38  3021.12  3021.32  3021.85  3021.92  3021.95
eigval :     3021.98  3024.44  3024.70  3025.84  3025.88  3026.16
eigval :     3026.24  3029.76  3029.80  3029.87  3030.57  3032.26
eigval :     3032.31  3033.55  3037.53  3037.61  3038.00  3041.24
eigval :     3041.34  3044.29  3044.40  3045.54  3045.55  3048.81
eigval :     3048.83  3072.85  3072.90  3077.91  3077.99  3080.56
eigval :     3080.63  3082.10  3085.88  3086.56  3090.06  3092.33
eigval :     3092.50  3099.14  3117.10  3117.23  3130.20  3135.71

   temp. (K)  partition function   enthalpy   heat capacity  entropy
                                   cal/mol     cal/K/mol   cal/K/mol   J/K/mol
 298.15  VIB  0.611E+23            28965.090    177.863    179.608
         ROT  0.559E+08              888.752      2.981     38.433
         INT  0.342E+31            29853.843    180.844    218.041
         TR   0.158E+29             1481.254      4.968     45.253
         TOT                       31335.0965   185.8125   263.2938  1101.6213

       T/K    H(0)-H(T)+PV         H(T)/Eh          T*S/Eh         G(T)/Eh
   ------------------------------------------------------------------------
    298.15    0.499357E-01    0.906106E+00    0.125099E+00    0.781006E+00
   ------------------------------------------------------------------------

         :::::::::::::::::::::::::::::::::::::::::::::::::::::
         ::                  THERMODYNAMIC                  ::
         :::::::::::::::::::::::::::::::::::::::::::::::::::::
         :: total free energy        -131.905720859208 Eh   ::
         ::.................................................::
         :: total energy             -132.686727348216 Eh   ::
         :: zero point energy           0.856170217739 Eh   ::
         :: G(RRHO) w/o ZPVE           -0.075163728731 Eh   ::
         :: G(RRHO) contrib.            0.781006489008 Eh   ::
         :::::::::::::::::::::::::::::::::::::::::::::::::::::

           -------------------------------------------------
          | TOTAL ENERGY             -132.686727348216 Eh   |
          | TOTAL ENTHALPY           -131.780621475694 Eh   |
          | TOTAL FREE ENERGY        -131.905720859208 Eh   |
          | GRADIENT NORM               0.000052935519 Eh/α |
          | HOMO-LUMO GAP               0.379139572327 eV   |
           -------------------------------------------------

 * finished run on 2025/07/19 at 23:15:19.973
