   * xtb version 6.7.1 (edcfbbe) compiled by 'albert@albert-system' on 2024-07-22

   ID    Z sym.   atoms
    1    6 C      1-8, 10-19, 21-30, 32-49
    2    7 N      9, 31
    3    5 B      20
    4    1 H      50-102

          program call               : xtb data2507/toluene/t-DABNA/t-DABNA_toluene_T1_crest.xyz --gfn 2 --uhf 2 --gbsa toluene --ohess vtight --parallel 40 --molden --ceasefiles --namespace data2507/toluene/t-DABNA/t-DABNA_toluene_T1_finalOpt
      * Solvation model:               GBSA
        Solvent                        toluene
        Solvent mass                       9.2140E+01 g/mol
          :  Hamiltonian                  GFN2-xTB          :
 * total energy  :  -132.6865256 Eh     change       -0.5679652E-08 Eh
 * total energy  :  -132.6865862 Eh     change       -0.6059490E-04 Eh
 * total energy  :  -132.6866240 Eh     change       -0.3783743E-04 Eh
 * total energy  :  -132.6866460 Eh     change       -0.2200479E-04 Eh
 * total energy  :  -132.6866736 Eh     change       -0.2759929E-04 Eh
 * total energy  :  -132.6866962 Eh     change       -0.2259646E-04 Eh
 * total energy  :  -132.6867093 Eh     change       -0.1304237E-04 Eh
 * total energy  :  -132.6867162 Eh     change       -0.6961680E-05 Eh
 * total energy  :  -132.6867189 Eh     change       -0.2648287E-05 Eh
 * total energy  :  -132.6867206 Eh     change       -0.1666999E-05 Eh
 * total energy  :  -132.6867491 Eh     change       -0.4327614E-06 Eh
 * total energy  :  -132.6867496 Eh     change       -0.4640763E-06 Eh
 * total energy  :  -132.6867499 Eh     change       -0.3320383E-06 Eh
 * total energy  :  -132.6867501 Eh     change       -0.2100735E-06 Eh
 * total energy  :  -132.6867503 Eh     change       -0.2108254E-06 Eh
 * total energy  :  -132.6867506 Eh     change       -0.2455973E-06 Eh
 * total energy  :  -132.6867509 Eh     change       -0.3069739E-06 Eh
 * total energy  :  -132.6867512 Eh     change       -0.2765095E-06 Eh
 * total energy  :  -132.6867512 Eh     change       -0.4447401E-08 Eh
   *** GEOMETRY OPTIMIZATION CONVERGED AFTER 44 ITERATIONS ***

 final structure:
================
102
 xtb: 6.7.1 (edcfbbe)
C            7.58913387793248        4.49458044168484        0.81621458320718
C            7.25036681953750        3.69102207552022       -0.44302037167771
C            8.41088100561861        2.72363409631280       -0.72090532818014
C            7.10120524821441        4.67455534926339       -1.61354241049029
C            5.96447919977925        2.89168580415833       -0.29985781341040
C            5.19168685189077        2.90010808079381        0.85650230006893
C            4.02844276670318        2.15676431423488        0.95154190991910
C            3.60443126777885        1.37829086428306       -0.11721456457116
N            2.40746759427883        0.61334229107066       -0.03462790347452
C            2.52128525964654       -0.74819317075272        0.19013130368553
C            3.78467877675151       -1.28526102787074        0.44529980452610
C            3.94802411115704       -2.63271007149885        0.71197611737916
C            2.84566647902221       -3.49170818590790        0.76367055665926
C            3.06545030582735       -4.96118498432265        1.08677405032785
C            4.01596760852131       -5.57034928109724        0.04447239963948
C            1.76810159629552       -5.77460845004606        1.07554736724470
C            3.69038273786849       -5.07545837760822        2.48576626084232
C            1.59573139857380       -2.94532217067459        0.52266139741326
C            1.37480855052959       -1.59411207328613        0.19952455761679
B           -0.00082351861405       -0.96162071937167       -0.05401371113693
C           -1.37953180911438       -1.60481180901308       -0.26279390904805
C           -1.61083964118231       -2.95357119693614       -0.58830908161638
C           -2.86919837622227       -3.53188411739864       -0.63891117433728
C           -3.10295825798956       -4.99449773769788       -0.98115022858078
C           -4.02870268199775       -5.07578758844898       -2.20513245813527
C           -3.76545162183284       -5.69382310529229        0.21578069903941
C           -1.80970590566790       -5.74405751792458       -1.31357502557156
C           -3.96691428102993       -2.71951737370257       -0.33503937759109
C           -3.80306593878185       -1.36600866878694       -0.09925196584571
C           -2.53555979420073       -0.78002335969032       -0.12949338880664
N           -2.42166610112380        0.59356280082973       -0.02390954210731
C           -3.60399359534973        1.37008401878895        0.11046871093487
C           -3.89930693861119        1.98324781770775        1.32160361583401
C           -5.04083310219067        2.75287098951443        1.45639608222748
C           -5.92000283271060        2.93837149629471        0.39435463782473
C           -7.18292483304309        3.77890224392997        0.49971985327005
C           -7.10790802674330        4.92424087387838       -0.52140738111680
C           -8.40080773565765        2.89219128649952        0.19900499466459
C           -7.36975452165604        4.39155708053926        1.89109041148842
C           -5.60705934130873        2.31649423634523       -0.81524205523571
C           -4.47295096271874        1.54509687067673       -0.96241143431539
C           -1.21551804081531        1.28076388359494       -0.11277806076462
C           -1.21999445003094        2.67040968068825       -0.25297797038927
C           -0.02079309478022        3.36244173190949       -0.35444733445956
C            1.18634700091596        2.67660647072790       -0.28978476422851
C            1.19832973232452        1.29029343442058       -0.12055069455693
C           -0.00600873093853        0.55540680870662       -0.07478260117856
C            4.36451236692878        1.35846660018436       -1.28094378101412
C            5.52219746711277        2.10553624894335       -1.36360702312938
H            7.73182618241394        3.83962489168226        1.67284265291600
H            6.80730466939628        5.21586898073759        1.04315690188198
H            8.51505986711954        5.04334261621651        0.65617391154429
H            8.50685096978490        2.00699440964900        0.09262770688499
H            8.25645862682278        2.17209908740370       -1.64418245393691
H            9.34448478924555        3.27562470671228       -0.80628209464721
H            6.92508190299824        4.15368685935235       -2.55060702259574
H            8.00669637729578        5.26824497038905       -1.71938256252310
H            6.26573094614060        5.34884875885824       -1.43520822280102
H            5.48638629554512        3.48751514432611        1.71028370968149
H            3.44259598733748        2.17453171572223        1.85943350588678
H            4.65651849947990       -0.64810912797030        0.45180280125092
H            4.94548782313251       -2.99986753397358        0.90000575819915
H            4.17427875840229       -6.62674340738262        0.25343833469201
H            3.58999365388522       -5.47496132667196       -0.95266948374024
H            4.98260374002157       -5.07401942477747        0.05043883626936
H            1.06665335170024       -5.40507769027350        1.82038795830752
H            1.98895535435538       -6.81521349043122        1.30732289050035
H            1.29935367701496       -5.74027839609009        0.09486152038746
H            3.84868267544889       -6.12138213742648        2.74213492595969
H            3.02946557295758       -4.63279720608237        3.22884693708651
H            4.64770684221798       -4.56322101132335        2.53388631251615
H            0.72285086987611       -3.56890760368692        0.59691063108228
H           -0.74390954262594       -3.54962922172513       -0.81293428060038
H           -4.19880538181002       -6.11560198564675       -2.47820085344506
H           -3.57509784502478       -4.56509796511702       -3.05270825524361
H           -4.99195123031042       -4.61414517093758       -2.00527966194950
H           -4.72140214389256       -5.23883494745949        0.46110057035050
H           -3.12255083229581       -5.62887461123836        1.09179170267219
H           -3.93570736029077       -6.74464053077513       -0.01108718785700
H           -1.30117602422041       -5.29103188118518       -2.16182547454441
H           -2.04321157470054       -6.77583581139044       -1.57073451386809
H           -1.13763525660786       -5.75556223679489       -0.45919020753544
H           -4.96564949501872       -3.12740144607460       -0.30273964589879
H           -4.67821573888706       -0.76458897285778        0.09609143362838
H           -3.22809478383690        1.85186229614126        2.15809726028777
H           -5.23306972494716        3.20679831727567        2.41447793586503
H           -7.04364053779706        4.54696670093819       -1.53825478715196
H           -7.99452425218619        5.55022883545668       -0.44637365205468
H           -6.23223175600790        5.54174501385101       -0.33035735860839
H           -8.45013587895730        2.06755719283297        0.90765889498531
H           -9.31634280508468        3.47404047060205        0.28259537268054
H           -8.35212526009746        2.47694769820679       -0.80387019738682
H           -6.54159397568567        5.04977308155784        2.14396079406222
H           -7.45770269794821        3.61849723742846        2.65115432488577
H           -8.28385780388226        4.98177599251597        1.90619743740896
H           -6.25716068320486        2.43550778439521       -1.66850972251035
H           -4.24772881427041        1.07484337568877       -1.90887812737715
H           -2.14955649162148        3.21679423258516       -0.29906005436751
H           -0.02522287206803        4.43261742760702       -0.49043849228302
H            2.10816918225390        3.22787398957049       -0.39275063535281
H            4.04005624134396        0.75338443432343       -2.11507101036717
H            6.08766835329507        2.07026219939536       -2.28208671235170

          :  Hamiltonian                  GFN2-xTB          :
         :: gradient norm              0.000048083007 Eh/a0 ::
         :: HOMO-LUMO gap              0.427716592708 eV    ::
         :: SCC energy              -134.961984181262 Eh    ::
         :: -> dispersion             -0.129600431743 Eh    ::
         :: -> Gsolv                  -0.049684834045 Eh    ::
         :: repulsion energy           2.275233022568 Eh    ::

    * Orbital Energies and Occupations

         #    Occupation            Energy/Eh            Energy/eV
      -------------------------------------------------------------
         1        2.0000           -0.6629408             -18.0395
       ...           ...                  ...                  ...
       114        2.0000           -0.4021734             -10.9437
       115        2.0000           -0.4016451             -10.9293
       116        2.0000           -0.3963473             -10.7852
       117        2.0000           -0.3951038             -10.7513
       118        2.0000           -0.3904879             -10.6257
       119        2.0000           -0.3889222             -10.5831
       120        2.0000           -0.3800117             -10.3406
       121        2.0000           -0.3785055             -10.2997
       122        2.0000           -0.3666987              -9.9784
       123        2.0000           -0.3642138              -9.9108
       124        1.9989           -0.3526832              -9.5970
       125        1.0011           -0.3397982              -9.2464
       126        0.9997           -0.2441920              -6.6448 (HOMO)
       127        0.0002           -0.2284737              -6.2171 (LUMO)
       128        0.0001           -0.2272515              -6.1838
       129        0.0000           -0.2265436              -6.1646
       130        0.0000           -0.2252306              -6.1288
       131                         -0.2168478              -5.9007
       132                         -0.2099646              -5.7134
       133                         -0.2001615              -5.4467
       134                         -0.1897721              -5.1640
       135                         -0.1755179              -4.7761
       136                         -0.1276369              -3.4732
       137                         -0.1007471              -2.7415
       ...                                ...                  ...
       249                          0.7287226              19.8296
      -------------------------------------------------------------
                  HL-Gap            0.0157182 Eh            0.4277 eV

     #   Z          covCN         q      C6AA      α(0)
     1   6 C        3.761    -0.109    22.630     6.781
     2   6 C        3.902     0.026    20.079     6.369
     3   6 C        3.761    -0.106    22.575     6.773
     4   6 C        3.761    -0.106    22.579     6.774
     5   6 C        2.972     0.009    27.806     8.650
     6   6 C        2.925    -0.039    28.976     8.828
     7   6 C        2.920    -0.041    29.023     8.834
     8   6 C        2.932     0.062    26.619     8.461
     9   7 N        2.754    -0.037    21.966     6.961
    10   6 C        2.924     0.057    26.727     8.478
    11   6 C        2.915    -0.064    29.582     8.919
    12   6 C        2.923    -0.051    29.268     8.872
    13   6 C        2.967     0.003    27.957     8.673
    14   6 C        3.902     0.024    20.122     6.376
    15   6 C        3.761    -0.102    22.498     6.762
    16   6 C        3.761    -0.103    22.522     6.765
    17   6 C        3.761    -0.102    22.492     6.761
    18   6 C        2.925    -0.062    29.551     8.915
    19   6 C        2.883    -0.075    29.857     8.958
    20   5 B        2.724     0.134    19.373     7.375
    21   6 C        2.883    -0.073    29.829     8.954
    22   6 C        2.925    -0.062    29.546     8.914
    23   6 C        2.967     0.003    27.944     8.671
    24   6 C        3.902     0.024    20.117     6.375
    25   6 C        3.762    -0.102    22.494     6.761
    26   6 C        3.761    -0.102    22.494     6.761
    27   6 C        3.761    -0.104    22.541     6.768
    28   6 C        2.923    -0.051    29.275     8.873
    29   6 C        2.915    -0.064    29.593     8.920
    30   6 C        2.923     0.058    26.705     8.475
    31   7 N        2.753    -0.036    21.933     6.956
    32   6 C        2.931     0.060    26.663     8.468
    33   6 C        2.920    -0.042    29.051     8.839
    34   6 C        2.924    -0.039    28.981     8.828
    35   6 C        2.972     0.007    27.851     8.657
    36   6 C        3.902     0.026    20.081     6.370
    37   6 C        3.761    -0.106    22.573     6.773
    38   6 C        3.761    -0.106    22.570     6.772
    39   6 C        3.761    -0.109    22.626     6.781
    40   6 C        2.927    -0.036    28.886     8.814
    41   6 C        2.919    -0.041    29.014     8.833
    42   6 C        2.925     0.051    26.861     8.499
    43   6 C        2.916    -0.047    29.160     8.855
    44   6 C        2.914    -0.053    29.315     8.878
    45   6 C        2.916    -0.048    29.203     8.862
    46   6 C        2.923     0.053    26.810     8.491
    47   6 C        2.895    -0.101    30.552     9.062
    48   6 C        2.920    -0.040    29.006     8.832
    49   6 C        2.927    -0.035    28.863     8.810
    50   1 H        0.925     0.037     2.485     2.465
    51   1 H        0.925     0.037     2.483     2.464
    52   1 H        0.925     0.040     2.451     2.448
    53   1 H        0.925     0.034     2.535     2.490
    54   1 H        0.925     0.038     2.474     2.460
    55   1 H        0.925     0.041     2.433     2.439
    56   1 H        0.925     0.038     2.473     2.459
    57   1 H        0.925     0.041     2.432     2.439
    58   1 H        0.925     0.034     2.530     2.488
    59   1 H        0.926     0.048     2.348     2.396
    60   1 H        0.926     0.037     2.491     2.468
    61   1 H        0.926     0.012     2.851     2.640
    62   1 H        0.926     0.013     2.842     2.636
    63   1 H        0.925     0.035     2.513     2.479
    64   1 H        0.925     0.031     2.569     2.506
    65   1 H        0.925     0.034     2.531     2.488
    66   1 H        0.925     0.034     2.535     2.490
    67   1 H        0.925     0.034     2.537     2.491
    68   1 H        0.925     0.035     2.510     2.478
    69   1 H        0.925     0.036     2.508     2.476
    70   1 H        0.925     0.031     2.578     2.511
    71   1 H        0.925     0.034     2.532     2.489
    72   1 H        0.926     0.033     2.548     2.496
    73   1 H        0.926     0.032     2.551     2.498
    74   1 H        0.925     0.036     2.509     2.477
    75   1 H        0.925     0.031     2.577     2.511
    76   1 H        0.925     0.034     2.527     2.486
    77   1 H        0.925     0.034     2.535     2.490
    78   1 H        0.925     0.031     2.568     2.506
    79   1 H        0.925     0.036     2.507     2.476
    80   1 H        0.925     0.034     2.532     2.488
    81   1 H        0.925     0.034     2.536     2.490
    82   1 H        0.925     0.036     2.497     2.471
    83   1 H        0.926     0.013     2.838     2.635
    84   1 H        0.926     0.014     2.830     2.631
    85   1 H        0.926     0.035     2.510     2.477
    86   1 H        0.926     0.047     2.362     2.403
    87   1 H        0.925     0.038     2.478     2.462
    88   1 H        0.925     0.041     2.439     2.442
    89   1 H        0.925     0.034     2.535     2.490
    90   1 H        0.925     0.033     2.537     2.491
    91   1 H        0.925     0.041     2.439     2.442
    92   1 H        0.925     0.038     2.481     2.463
    93   1 H        0.925     0.037     2.486     2.466
    94   1 H        0.925     0.037     2.488     2.466
    95   1 H        0.925     0.039     2.456     2.451
    96   1 H        0.926     0.039     2.459     2.452
    97   1 H        0.926     0.036     2.506     2.475
    98   1 H        0.926     0.026     2.640     2.541
    99   1 H        0.926     0.023     2.692     2.566
   100   1 H        0.926     0.027     2.627     2.535
   101   1 H        0.926     0.037     2.486     2.466
   102   1 H        0.926     0.041     2.435     2.440

molecular dipole:
                 x           y           z       tot (Debye)
 q only:        0.132       1.368      -0.030
   full:        0.115       1.469      -0.035       3.747

 projected vibrational frequencies (cm⁻¹)
eigval :       -0.00    -0.00    -0.00    -0.00     0.00     0.00
eigval :      -12.87     9.58    12.71    19.19    26.06    28.40
eigval :       31.90    35.36    38.87    43.88    55.09    63.49
eigval :       70.02    75.46    86.90    96.45    99.84   105.97
eigval :      121.21   141.98   154.01   168.14   172.51   173.38
eigval :      177.99   179.91   185.73   186.62   201.30   216.16
eigval :      220.08   223.67   224.54   230.02   234.06   236.19
eigval :      245.56   247.66   256.32   266.14   267.80   299.98
eigval :      302.51   310.45   311.16   312.96   316.06   317.13
eigval :      328.96   334.47   346.19   351.28   352.44   359.39
eigval :      364.09   364.70   375.23   380.76   385.45   394.08
eigval :      397.81   405.43   408.82   415.28   420.46   426.59
eigval :      437.63   444.74   451.00   452.90   456.05   466.17
eigval :      471.97   475.04   487.68   508.40   523.20   525.10
eigval :      548.13   550.93   556.14   578.10   589.82   596.30
eigval :      603.48   605.02   609.48   612.78   615.60   653.61
eigval :      658.15   661.28   688.43   696.78   699.14   702.91
eigval :      716.70   723.22   745.64   765.94   775.62   784.12
eigval :      791.16   811.68   817.39   837.18   846.14   863.89
eigval :      865.21   866.46   866.82   867.69   869.36   872.02
eigval :      874.44   875.91   877.81   903.62   911.08   914.32
eigval :      916.68   924.35   924.38   927.99   944.35   957.66
eigval :      958.62   959.08   959.74   960.87   961.60   961.76
eigval :      962.01   962.99   963.52   963.79   964.80   965.18
eigval :     1003.06  1012.18  1032.51  1033.34  1033.95  1034.18
eigval :     1034.33  1034.54  1034.62  1036.29  1068.89  1086.74
eigval :     1122.20  1132.05  1136.01  1137.52  1141.27  1142.56
eigval :     1153.45  1160.60  1180.97  1189.79  1190.28  1197.76
eigval :     1208.13  1216.74  1221.29  1223.38  1225.10  1225.17
eigval :     1225.20  1227.64  1229.84  1231.04  1231.50  1236.10
eigval :     1248.53  1259.23  1265.20  1271.08  1272.01  1277.03
eigval :     1278.17  1286.39  1288.17  1300.37  1302.93  1307.10
eigval :     1312.65  1313.20  1325.34  1339.52  1359.43  1361.41
eigval :     1372.77  1386.66  1395.30  1396.06  1400.42  1401.07
eigval :     1401.84  1402.58  1402.75  1403.96  1406.30  1406.57
eigval :     1406.94  1426.02  1426.41  1426.44  1426.65  1431.17
eigval :     1446.74  1468.26  1470.20  1477.74  1480.01  1487.64
eigval :     1488.09  1488.37  1488.96  1490.18  1492.19  1493.44
eigval :     1493.53  1497.24  1497.53  1498.38  1499.10  1500.26
eigval :     1501.61  1501.96  1502.26  1507.14  1507.76  1509.50
eigval :     1510.38  1511.11  1511.32  1515.53  1516.58  1516.88
eigval :     1520.48  1529.32  1534.68  1547.44  1552.95  1579.29
eigval :     1585.91  3014.50  3014.86  3015.73  3015.86  3020.52
eigval :     3021.01  3021.23  3021.41  3021.73  3021.87  3021.89
eigval :     3022.00  3024.72  3025.14  3025.41  3025.67  3026.04
eigval :     3026.12  3029.23  3029.41  3029.62  3030.49  3031.73
eigval :     3031.80  3034.01  3037.25  3037.37  3040.22  3041.18
eigval :     3041.69  3044.61  3044.74  3044.77  3045.52  3048.16
eigval :     3048.86  3072.57  3073.69  3076.52  3077.09  3078.67
eigval :     3078.76  3082.57  3086.10  3087.20  3091.11  3091.28
eigval :     3092.43  3099.83  3115.67  3116.19  3131.57  3142.21

   temp. (K)  partition function   enthalpy   heat capacity  entropy
                                   cal/mol     cal/K/mol   cal/K/mol   J/K/mol
 298.15  VIB  0.126E+23            28894.281    178.275    178.238
         ROT  0.112E+09              888.752      2.981     39.811
         INT  0.141E+31            29783.034    181.255    218.049
         TR   0.158E+29             1481.254      4.968     45.253
         TOT                       31264.2875   186.2236   263.3018  1101.6549

       T/K    H(0)-H(T)+PV         H(T)/Eh          T*S/Eh         G(T)/Eh
   ------------------------------------------------------------------------
    298.15    0.498228E-01    0.906052E+00    0.125103E+00    0.780949E+00
   ------------------------------------------------------------------------

         :::::::::::::::::::::::::::::::::::::::::::::::::::::
         ::                  THERMODYNAMIC                  ::
         :::::::::::::::::::::::::::::::::::::::::::::::::::::
         :: total free energy        -131.905802543358 Eh   ::
         ::.................................................::
         :: total energy             -132.686751158333 Eh   ::
         :: zero point energy           0.856229001293 Eh   ::
         :: G(RRHO) w/o ZPVE           -0.075280386317 Eh   ::
         :: G(RRHO) contrib.            0.780948614976 Eh   ::
         :::::::::::::::::::::::::::::::::::::::::::::::::::::

           -------------------------------------------------
          | TOTAL ENERGY             -132.686751158333 Eh   |
          | TOTAL ENTHALPY           -131.780699343519 Eh   |
          | TOTAL FREE ENERGY        -131.905802543358 Eh   |
          | GRADIENT NORM               0.000047971888 Eh/α |
          | HOMO-LUMO GAP               0.427715273623 eV   |
           -------------------------------------------------

 * finished run on 2025/07/19 at 23:27:21.948
