   * xtb version 6.7.1 (edcfbbe) compiled by 'albert@albert-system' on 2024-07-22

   ID    Z sym.   atoms
    1    6 C      1, 3-5, 8-19, 21-26
    2    8 O      2, 6, 7
    3    7 N      20
    4    1 H      27-41

          program call               : xtb data2507/toluene/4CzMC/4CzMC_toluene_T1_crest.xyz --gfn 2 --uhf 2 --gbsa toluene --ohess vtight --parallel 40 --molden --ceasefiles --namespace data2507/toluene/4CzMC/4CzMC_toluene_T1_finalOpt
      * Solvation model:               GBSA
        Solvent                        toluene
        Solvent mass                       9.2140E+01 g/mol
          :  Hamiltonian                  GFN2-xTB          :
 * total energy  :   -69.8679762 Eh     change       -0.5404360E-08 Eh
 * total energy  :   -69.8681197 Eh     change       -0.1434736E-03 Eh
 * total energy  :   -69.8681607 Eh     change       -0.4095051E-04 Eh
 * total energy  :   -69.8681630 Eh     change       -0.2284981E-05 Eh
 * total energy  :   -69.8681635 Eh     change       -0.5360203E-06 Eh
 * total energy  :   -69.8681634 Eh     change        0.1121334E-06 Eh
 * total energy  :   -69.8681638 Eh     change       -0.4025947E-06 Eh
 * total energy  :   -69.8681640 Eh     change       -0.1900977E-06 Eh
 * total energy  :   -69.8681641 Eh     change       -0.1491137E-06 Eh
 * total energy  :   -69.8681643 Eh     change       -0.1336082E-06 Eh
 * total energy  :   -69.8681644 Eh     change       -0.1140556E-06 Eh
 * total energy  :   -69.8681645 Eh     change       -0.8179219E-07 Eh
   *** GEOMETRY OPTIMIZATION CONVERGED AFTER 12 ITERATIONS ***

 final structure:
================
41
 xtb: 6.7.1 (edcfbbe)
C            5.36936320531577       -2.79113203813606       -0.09908068264108
O            3.98288379442542       -2.53532259185935       -0.08757840041601
C            3.55651918164425       -1.23692542195492       -0.04530855909802
C            4.41728540541116       -0.11911001216644        0.00209123921811
C            3.93001972663431        1.19667774598286        0.03023786840271
O            4.61003506803344        2.22432967718131        0.06113932824588
O            2.54607181928518        1.39001828847608        0.02349174465514
C            1.69928567550738        0.32859447132553       -0.00341187417036
C            2.16821566047840       -1.02345547722362       -0.04883246761146
C            1.21668057105925       -2.08793725259121       -0.11838898592890
C           -0.13723942796577       -1.85221872156146       -0.11188984749689
C           -0.58146489980696       -0.53390832230279       -0.01763013506300
C            0.34510633753682        0.56262250758423        0.00496469344377
C           -0.44957916124734        1.76740554105496        0.02309746073197
C           -0.12790890948646        3.10939466738101        0.06652678179291
C           -1.16998828217904        4.03861259856614        0.11190630006517
C           -2.49319590947025        3.63040180927537        0.13363447779332
C           -2.83564920356970        2.28221849410763        0.09098283768474
C           -1.80445317858691        1.35556338469534        0.00950308244743
N           -1.86451542746331       -0.02617687333592       -0.01522079277017
C           -3.03157401262651       -0.78438412868013       -0.00541446188922
C           -3.15560079921982       -1.87307149698042        0.86426288753668
C           -4.31582046404211       -2.62035926331837        0.87101696822694
C           -5.36116013730643       -2.30296142520403        0.01439294974508
C           -5.23943710253476       -1.22596691269785       -0.85285323252587
C           -4.08677411646176       -0.46686303658648       -0.86729282749963
H            5.85314860624033       -2.41742901814160        0.80837674949077
H            5.85040472065096       -2.34954001847191       -0.97707888615488
H            5.46155408788521       -3.87526406521102       -0.14014997027072
H            5.48839724708898       -0.22178970580982        0.01271580727189
H            1.60452761510421       -3.08948355067481       -0.18761937724625
H           -0.83349129175406       -2.67168416048657       -0.19315682082273
H            0.90423423912348        3.42235576869029        0.07194497858496
H           -0.93502227466182        5.09178161737873        0.14356425156173
H           -3.27806877389580        4.36901260571421        0.19017061430759
H           -3.86857081447239        1.97645600390914        0.13748453868649
H           -2.35470421989811       -2.09377991404907        1.55313239428497
H           -4.41067459918905       -3.45015814715352        1.55500690756479
H           -6.26524347751810       -2.89195624530901        0.02249878802168
H           -6.04511998602375       -0.98404402726019       -1.52952339015407
H           -3.97296012344429        0.34493823324370       -1.56917040500542

          :  Hamiltonian                  GFN2-xTB          :
         :: gradient norm              0.000064649263 Eh/a0 ::
         :: HOMO-LUMO gap              0.604446008205 eV    ::
         :: SCC energy               -70.959279494866 Eh    ::
         :: -> dispersion             -0.051057330987 Eh    ::
         :: -> Gsolv                  -0.041442387435 Eh    ::
         :: repulsion energy           1.091115038449 Eh    ::

    * Orbital Energies and Occupations

         #    Occupation            Energy/Eh            Energy/eV
      -------------------------------------------------------------
         1        2.0000           -0.7375750             -20.0704
       ...           ...                  ...                  ...
        52        2.0000           -0.4462501             -12.1431
        53        2.0000           -0.4413344             -12.0093
        54        2.0000           -0.4377077             -11.9106
        55        2.0000           -0.4359845             -11.8637
        56        2.0000           -0.4326168             -11.7721
        57        2.0000           -0.4243674             -11.5476
        58        2.0000           -0.4232977             -11.5185
        59        2.0000           -0.4191690             -11.4062
        60        2.0000           -0.4068170             -11.0701
        61        2.0000           -0.3989951             -10.8572
        62        1.9976           -0.3902187             -10.6184
        63        1.0024           -0.3787241             -10.3056
        64        1.0000           -0.2784910              -7.5781 (HOMO)
        65        0.0000           -0.2562778              -6.9737 (LUMO)
        66                         -0.2481454              -6.7524
        67                         -0.2416640              -6.5760
        68                         -0.2345190              -6.3816
        69                         -0.2098710              -5.7109
        70                         -0.1957941              -5.3278
        71                         -0.1483915              -4.0379
        72                         -0.1143982              -3.1129
        73                         -0.0990276              -2.6947
        74                         -0.0704379              -1.9167
        75                         -0.0064801              -0.1763
       ...                                ...                  ...
       119                          0.7253759              19.7385
      -------------------------------------------------------------
                  HL-Gap            0.0222132 Eh            0.6045 eV

     #   Z          covCN         q      C6AA      α(0)
     1   6 C        3.642     0.034    20.350     6.486
     2   8 O        1.704    -0.278    18.605     5.824
     3   6 C        2.855     0.118    25.392     8.259
     4   6 C        2.900    -0.119    31.025     9.133
     5   6 C        2.711     0.315    21.643     7.615
     6   8 O        0.857    -0.497    23.713     6.529
     7   8 O        1.707    -0.281    18.664     5.833
     8   6 C        2.860     0.143    24.892     8.178
     9   6 C        2.974    -0.018    28.461     8.751
    10   6 C        2.919    -0.059    29.478     8.903
    11   6 C        2.902    -0.038    28.933     8.820
    12   6 C        3.049     0.023    27.442     8.591
    13   6 C        3.051    -0.033    28.768     8.797
    14   6 C        3.052     0.003    27.911     8.664
    15   6 C        2.911    -0.026    28.655     8.778
    16   6 C        2.919    -0.024    28.600     8.770
    17   6 C        2.920    -0.030    28.752     8.793
    18   6 C        2.909    -0.038    28.945     8.822
    19   6 C        3.059     0.046    26.912     8.507
    20   7 N        2.798     0.024    20.822     6.777
    21   6 C        2.914     0.060    26.660     8.467
    22   6 C        2.920    -0.036    28.895     8.815
    23   6 C        2.918    -0.022    28.563     8.764
    24   6 C        2.918    -0.024    28.611     8.771
    25   6 C        2.918    -0.022    28.566     8.765
    26   6 C        2.920    -0.036    28.906     8.817
    27   1 H        0.924     0.048     2.348     2.396
    28   1 H        0.924     0.048     2.350     2.397
    29   1 H        0.925     0.073     2.056     2.242
    30   1 H        0.926     0.054     2.269     2.356
    31   1 H        0.926     0.057     2.240     2.340
    32   1 H        0.926     0.060     2.197     2.318
    33   1 H        0.926     0.048     2.339     2.391
    34   1 H        0.926     0.049     2.338     2.391
    35   1 H        0.926     0.052     2.290     2.366
    36   1 H        0.926     0.058     2.223     2.331
    37   1 H        0.926     0.055     2.257     2.349
    38   1 H        0.926     0.053     2.279     2.361
    39   1 H        0.926     0.052     2.298     2.371
    40   1 H        0.926     0.054     2.272     2.357
    41   1 H        0.926     0.056     2.247     2.344

molecular dipole:
                 x           y           z       tot (Debye)
 q only:       -4.756      -2.122      -0.047
   full:       -4.429      -2.171      -0.046      12.537

 projected vibrational frequencies (cm⁻¹)
eigval :       -0.00    -0.00    -0.00    -0.00     0.00     0.00
eigval :       31.32    37.34    54.21    71.25    82.15    91.31
eigval :      112.38   124.36   135.75   161.86   188.73   211.16
eigval :      224.63   242.66   246.77   272.76   281.75   289.56
eigval :      370.78   375.73   384.56   390.45   402.69   421.98
eigval :      445.40   462.65   472.32   504.80   522.54   545.25
eigval :      569.95   572.77   577.59   590.99   603.89   605.91
eigval :      639.71   660.63   662.49   685.48   696.00   720.73
eigval :      728.56   754.92   765.63   772.64   809.05   829.61
eigval :      854.28   864.65   876.21   878.29   897.75   906.68
eigval :      913.49   915.50   921.97   930.26   972.99   992.65
eigval :     1039.41  1066.03  1072.55  1078.27  1102.50  1113.83
eigval :     1116.41  1117.85  1141.11  1162.43  1168.96  1171.51
eigval :     1174.62  1183.81  1196.81  1197.81  1226.99  1230.33
eigval :     1260.63  1274.54  1296.97  1316.63  1320.72  1334.85
eigval :     1367.45  1377.69  1394.13  1396.95  1421.91  1430.57
eigval :     1443.39  1446.46  1460.09  1465.74  1476.76  1499.18
eigval :     1538.52  1542.85  1544.84  1562.64  1565.55  1594.63
eigval :     2935.88  2949.07  3024.64  3084.61  3085.95  3086.44
eigval :     3094.97  3095.87  3098.76  3100.69  3103.94  3105.84
eigval :     3109.54  3130.79  3134.59

   temp. (K)  partition function   enthalpy   heat capacity  entropy
                                   cal/mol     cal/K/mol   cal/K/mol   J/K/mol
 298.15  VIB  0.300E+08            11467.481     76.179     69.115
         ROT  0.124E+08              888.752      2.981     35.446
         INT  0.373E+15            12356.234     79.159    104.561
         TR   0.610E+28             1481.254      4.968     43.358
         TOT                       13837.4875    84.1276   147.9190   618.8932

       T/K    H(0)-H(T)+PV         H(T)/Eh          T*S/Eh         G(T)/Eh
   ------------------------------------------------------------------------
    298.15    0.220514E-01    0.323605E+00    0.702811E-01    0.253324E+00
   ------------------------------------------------------------------------

         :::::::::::::::::::::::::::::::::::::::::::::::::::::
         ::                  THERMODYNAMIC                  ::
         :::::::::::::::::::::::::::::::::::::::::::::::::::::
         :: total free energy         -69.614840121393 Eh   ::
         ::.................................................::
         :: total energy              -69.868164455807 Eh   ::
         :: zero point energy           0.301553991570 Eh   ::
         :: G(RRHO) w/o ZPVE           -0.048229657157 Eh   ::
         :: G(RRHO) contrib.            0.253324334414 Eh   ::
         :::::::::::::::::::::::::::::::::::::::::::::::::::::

           -------------------------------------------------
          | TOTAL ENERGY              -69.868164455807 Eh   |
          | TOTAL ENTHALPY            -69.544559024231 Eh   |
          | TOTAL FREE ENERGY         -69.614840121393 Eh   |
          | GRADIENT NORM               0.000065332758 Eh/α |
          | HOMO-LUMO GAP               0.604451327092 eV   |
           -------------------------------------------------

 * finished run on 2025/08/26 at 03:16:09.668
