   * xtb version 6.7.1 (edcfbbe) compiled by 'albert@albert-system' on 2024-07-22

   ID    Z sym.   atoms
    1    6 C      1, 3-5, 8-19, 21-26
    2    8 O      2, 6, 7
    3    7 N      20
    4    1 H      27-41

          program call               : xtb data2507/toluene/4CzMC/4CzMC.xyz --gfn 2 --gbsa toluene --ohess vtight --parallel 40 --molden --ceasefiles --namespace data2507/toluene/4CzMC/4CzMC_toluene_S0_preOpt
      * Solvation model:               GBSA
        Solvent                        toluene
        Solvent mass                       9.2140E+01 g/mol
          :  Hamiltonian                  GFN2-xTB          :
 * total energy  :   -69.9531576 Eh     change       -0.8240733E-09 Eh
 * total energy  :   -69.9639950 Eh     change       -0.1083744E-01 Eh
 * total energy  :   -69.9672539 Eh     change       -0.3258881E-02 Eh
 * total energy  :   -69.9676593 Eh     change       -0.4053948E-03 Eh
 * total energy  :   -69.9678504 Eh     change       -0.1911305E-03 Eh
 * total energy  :   -69.9679238 Eh     change       -0.7340122E-04 Eh
 * total energy  :   -69.9679854 Eh     change       -0.6159320E-04 Eh
 * total energy  :   -69.9680348 Eh     change       -0.4944106E-04 Eh
 * total energy  :   -69.9680715 Eh     change       -0.3667112E-04 Eh
 * total energy  :   -69.9680999 Eh     change       -0.2842680E-04 Eh
 * total energy  :   -69.9681706 Eh     change       -0.1882641E-05 Eh
 * total energy  :   -69.9681704 Eh     change        0.1339706E-06 Eh
 * total energy  :   -69.9681714 Eh     change       -0.9909963E-06 Eh
 * total energy  :   -69.9681718 Eh     change       -0.3406230E-06 Eh
 * total energy  :   -69.9681722 Eh     change       -0.4163570E-06 Eh
 * total energy  :   -69.9681721 Eh     change        0.1213798E-06 Eh
 * total energy  :   -69.9681724 Eh     change       -0.3283903E-06 Eh
 * total energy  :   -69.9681726 Eh     change       -0.1651179E-06 Eh
 * total energy  :   -69.9681726 Eh     change       -0.8563758E-07 Eh
   *** GEOMETRY OPTIMIZATION CONVERGED AFTER 24 ITERATIONS ***

 final structure:
================
41
 xtb: 6.7.1 (edcfbbe)
C            5.83832528951582       -1.95536139385703        0.17956298375332
O            4.42996596358497       -1.80917472180814        0.15932918348437
C            3.90369589582987       -0.57979024798158        0.09576626006750
C            4.61282969168689        0.58513017765671        0.04809387285068
C            3.96995267601475        1.86215200056493       -0.02006106427699
O            4.54552100854022        2.93639827884752       -0.06227940645688
O            2.60185684653581        1.88688369382193       -0.04142067749912
C            1.87206918962118        0.74692915555911        0.00195885675844
C            2.46191921633974       -0.52236460827947        0.07646308199648
C            1.65511644678132       -1.67602238032312        0.13900463925382
C            0.28671108665293       -1.60043553425497        0.11118693066910
C           -0.30217702602247       -0.33731505598947        0.01123789615764
C            0.47976443098996        0.84134601386465       -0.02799647656151
C           -0.43580134515452        1.94315718623823       -0.09040595291681
C           -0.27268119765798        3.32203268994559       -0.16115833307381
C           -1.40244069842133        4.11178939463635       -0.23059729239931
C           -2.67731872418036        3.54597221115854       -0.24328224940548
C           -2.86249757047866        2.17870183259091       -0.17375001345823
C           -1.73194335934760        1.37830976977361       -0.08269186552416
N           -1.62845701546365        0.00129543418168       -0.02096593646211
C           -2.71101923548111       -0.90071677699641        0.00159761919904
C           -3.72465309483551       -0.74495153251610        0.94128127202626
C           -4.79125544754980       -1.62600028192030        0.95524846536518
C           -4.84799992853239       -2.66806403412574        0.04408985987250
C           -3.83522771598261       -2.82601088682657       -0.88786135647211
C           -2.76954963874964       -1.94416307629109       -0.91633502097878
H            6.27186015325397       -1.46815910050511        1.05640053630860
H            6.28941680551524       -1.54583389732213       -0.72760386833635
H            6.01703562653563       -3.02771963444064        0.22791095049758
H            5.68890828685355        0.61856189353644        0.05910146712358
H            2.15064863538543       -2.63038249679573        0.21196159458054
H           -0.31905744982850       -2.49010955500291        0.17383025040002
H            0.71750180198042        3.75141554067400       -0.16409252318291
H           -1.30096300526877        5.18559646664314       -0.28370768391247
H           -3.53945928887947        4.19280478431341       -0.31174312768281
H           -3.85219692152843        1.74952614228536       -0.19849021100909
H           -3.66554041800247        0.05802847507430        1.66069986026263
H           -5.57695080848390       -1.50148338013946        1.68543643114475
H           -5.68010926278213       -3.35569256874693        0.05997358329084
H           -3.87762817735206       -3.63485657411459       -1.60198478665297
H           -1.98817272163396       -2.05142740312945       -1.65370774880129

          :  Hamiltonian                  GFN2-xTB          :
         :: gradient norm              0.000120018782 Eh/a0 ::
         :: HOMO-LUMO gap              2.627896229222 eV    ::
         :: SCC energy               -71.080070190630 Eh    ::
         :: -> dispersion             -0.051174701057 Eh    ::
         :: -> Gsolv                  -0.036415498582 Eh    ::
         :: repulsion energy           1.111897553033 Eh    ::

    * Orbital Energies and Occupations

         #    Occupation            Energy/Eh            Energy/eV
      -------------------------------------------------------------
         1        2.0000           -0.7526445             -20.4805
       ...           ...                  ...                  ...
        51        2.0000           -0.4509156             -12.2700
        52        2.0000           -0.4420794             -12.0296
        53        2.0000           -0.4374973             -11.9049
        54        2.0000           -0.4357467             -11.8573
        55        2.0000           -0.4316598             -11.7461
        56        2.0000           -0.4258312             -11.5875
        57        2.0000           -0.4223480             -11.4927
        58        2.0000           -0.4162596             -11.3270
        59        2.0000           -0.4153265             -11.3016
        60        2.0000           -0.4127018             -11.2302
        61        2.0000           -0.4043811             -11.0038
        62        2.0000           -0.3887048             -10.5772
        63        2.0000           -0.3746072             -10.1936 (HOMO)
        64                         -0.2780337              -7.5657 (LUMO)
        65                         -0.2553926              -6.9496
        66                         -0.2391758              -6.5083
        67                         -0.2347930              -6.3890
        68                         -0.2320560              -6.3146
        69                         -0.2051818              -5.5833
        70                         -0.1951833              -5.3112
        71                         -0.1505439              -4.0965
        72                         -0.1066735              -2.9027
        73                         -0.0921657              -2.5080
        74                         -0.0673073              -1.8315
       ...                                ...                  ...
       119                          0.7252304              19.7345
      -------------------------------------------------------------
                  HL-Gap            0.0965735 Eh            2.6279 eV

     #   Z          covCN         q      C6AA      α(0)
     1   6 C        3.645     0.021    20.548     6.515
     2   8 O        1.705    -0.239    17.966     5.723
     3   6 C        2.861     0.164    24.452     8.105
     4   6 C        2.901    -0.136    31.489     9.201
     5   6 C        2.719     0.338    21.262     7.548
     6   8 O        0.857    -0.484    23.436     6.491
     7   8 O        1.709    -0.247    18.096     5.744
     8   6 C        2.870     0.141    24.932     8.185
     9   6 C        2.980    -0.038    28.944     8.825
    10   6 C        2.923    -0.032    28.798     8.800
    11   6 C        2.907    -0.052    29.282     8.873
    12   6 C        3.077     0.051    26.766     8.482
    13   6 C        3.070    -0.034    28.776     8.796
    14   6 C        3.067    -0.009    28.178     8.704
    15   6 C        2.911    -0.030    28.758     8.794
    16   6 C        2.920    -0.037    28.933     8.821
    17   6 C        2.924    -0.031    28.779     8.797
    18   6 C        2.909    -0.048    29.181     8.858
    19   6 C        3.084     0.046    26.880     8.499
    20   7 N        2.806    -0.023    21.689     6.917
    21   6 C        2.914     0.061    26.638     8.463
    22   6 C        2.922    -0.039    28.981     8.828
    23   6 C        2.920    -0.026    28.648     8.777
    24   6 C        2.919    -0.030    28.744     8.792
    25   6 C        2.920    -0.026    28.649     8.777
    26   6 C        2.921    -0.041    29.010     8.833
    27   1 H        0.924     0.061     2.189     2.314
    28   1 H        0.924     0.061     2.189     2.314
    29   1 H        0.925     0.085     1.933     2.174
    30   1 H        0.926     0.063     2.169     2.303
    31   1 H        0.926     0.069     2.098     2.265
    32   1 H        0.926     0.060     2.198     2.319
    33   1 H        0.926     0.038     2.475     2.460
    34   1 H        0.926     0.035     2.514     2.480
    35   1 H        0.926     0.040     2.445     2.445
    36   1 H        0.926     0.042     2.417     2.431
    37   1 H        0.926     0.047     2.363     2.404
    38   1 H        0.926     0.045     2.381     2.413
    39   1 H        0.926     0.044     2.395     2.420
    40   1 H        0.926     0.046     2.376     2.411
    41   1 H        0.926     0.046     2.366     2.405

molecular dipole:
                 x           y           z       tot (Debye)
 q only:       -2.191      -3.100       0.111
   full:       -1.936      -3.111       0.113       9.318

 projected vibrational frequencies (cm⁻¹)
eigval :       -0.00    -0.00    -0.00    -0.00     0.00     0.00
eigval :       29.07    38.16    54.22    60.18    83.82   110.05
eigval :      112.77   139.17   160.78   176.10   189.26   219.59
eigval :      225.10   239.02   242.24   281.28   293.80   308.50
eigval :      374.38   377.63   392.26   411.56   415.45   431.11
eigval :      472.16   477.05   512.82   539.08   540.70   576.86
eigval :      580.41   583.00   594.40   618.27   640.90   648.51
eigval :      669.62   673.35   694.45   698.55   711.53   747.96
eigval :      764.49   779.71   804.88   830.68   835.49   845.38
eigval :      873.57   882.13   900.19   907.91   911.34   916.23
eigval :      926.69   932.55   934.00   937.04   984.90  1002.43
eigval :     1059.38  1071.02  1076.62  1088.84  1112.21  1112.75
eigval :     1133.51  1140.46  1149.31  1164.81  1175.27  1177.26
eigval :     1182.17  1199.41  1210.48  1240.32  1251.06  1270.31
eigval :     1278.74  1312.04  1314.51  1330.18  1355.20  1375.79
eigval :     1379.40  1393.04  1418.51  1431.36  1433.93  1452.96
eigval :     1462.10  1466.91  1476.70  1484.98  1542.21  1562.19
eigval :     1580.79  1582.73  1588.44  1591.67  1607.64  1674.89
eigval :     2960.19  2969.04  3034.20  3078.78  3079.97  3082.32
eigval :     3085.92  3089.69  3093.78  3094.87  3099.51  3099.97
eigval :     3104.42  3119.19  3131.65

   temp. (K)  partition function   enthalpy   heat capacity  entropy
                                   cal/mol     cal/K/mol   cal/K/mol   J/K/mol
 298.15  VIB  0.179E+08            11089.352     73.933     66.622
         ROT  0.124E+08              888.752      2.981     35.441
         INT  0.222E+15            11978.104     76.914    102.062
         TR   0.610E+28             1481.254      4.968     43.358
         TOT                       13459.3579    81.8822   145.4204   608.4389

       T/K    H(0)-H(T)+PV         H(T)/Eh          T*S/Eh         G(T)/Eh
   ------------------------------------------------------------------------
    298.15    0.214489E-01    0.327521E+00    0.690939E-01    0.258427E+00
   ------------------------------------------------------------------------

         :::::::::::::::::::::::::::::::::::::::::::::::::::::
         ::                  THERMODYNAMIC                  ::
         :::::::::::::::::::::::::::::::::::::::::::::::::::::
         :: total free energy         -69.709745166489 Eh   ::
         ::.................................................::
         :: total energy              -69.968172637450 Eh   ::
         :: zero point energy           0.306072533682 Eh   ::
         :: G(RRHO) w/o ZPVE           -0.047645062721 Eh   ::
         :: G(RRHO) contrib.            0.258427470960 Eh   ::
         :::::::::::::::::::::::::::::::::::::::::::::::::::::

           -------------------------------------------------
          | TOTAL ENERGY              -69.968172637450 Eh   |
          | TOTAL ENTHALPY            -69.640651251746 Eh   |
          | TOTAL FREE ENERGY         -69.709745166489 Eh   |
          | GRADIENT NORM               0.000119958429 Eh/α |
          | HOMO-LUMO GAP               2.627897355501 eV   |
           -------------------------------------------------

 * finished run on 2025/08/26 at 03:13:48.663
