   * xtb version 6.7.1 (edcfbbe) compiled by 'albert@albert-system' on 2024-07-22

   ID    Z sym.   atoms
    1    6 C      1, 3-5, 8-19, 21-26
    2    8 O      2, 6, 7
    3    7 N      20
    4    1 H      27-41

          program call               : xtb data2507/toluene/4CzMC/4CzMC_toluene_S0_finalOpt.xtbopt.xyz --gfn 2 --uhf 2 --gbsa toluene --ohess vtight --parallel 40 --molden --ceasefiles --namespace data2507/toluene/4CzMC/4CzMC_toluene_T1_preOpt
      * Solvation model:               GBSA
        Solvent                        toluene
        Solvent mass                       9.2140E+01 g/mol
          :  Hamiltonian                  GFN2-xTB          :
 * total energy  :   -69.8620621 Eh     change       -0.8648016E-09 Eh
 * total energy  :   -69.8663491 Eh     change       -0.4286973E-02 Eh
 * total energy  :   -69.8677397 Eh     change       -0.1390576E-02 Eh
 * total energy  :   -69.8678726 Eh     change       -0.1329630E-03 Eh
 * total energy  :   -69.8679763 Eh     change       -0.1036141E-03 Eh
 * total energy  :   -69.8680080 Eh     change       -0.3172466E-04 Eh
 * total energy  :   -69.8680433 Eh     change       -0.3529249E-04 Eh
 * total energy  :   -69.8680795 Eh     change       -0.3625278E-04 Eh
 * total energy  :   -69.8681075 Eh     change       -0.2799526E-04 Eh
 * total energy  :   -69.8681247 Eh     change       -0.1717075E-04 Eh
 * total energy  :   -69.8681548 Eh     change       -0.7068078E-05 Eh
 * total energy  :   -69.8681575 Eh     change       -0.2719907E-05 Eh
 * total energy  :   -69.8681589 Eh     change       -0.1392962E-05 Eh
 * total energy  :   -69.8681600 Eh     change       -0.1141332E-05 Eh
 * total energy  :   -69.8681606 Eh     change       -0.5581375E-06 Eh
 * total energy  :   -69.8681608 Eh     change       -0.2685650E-06 Eh
 * total energy  :   -69.8681610 Eh     change       -0.1869699E-06 Eh
 * total energy  :   -69.8681612 Eh     change       -0.1177635E-06 Eh
 * total energy  :   -69.8681612 Eh     change       -0.2866557E-07 Eh
   *** GEOMETRY OPTIMIZATION CONVERGED AFTER 21 ITERATIONS ***

 final structure:
================
41
 xtb: 6.7.1 (edcfbbe)
C            5.36066641670245       -2.80685382870904       -0.08023452934419
O            3.97482549053265       -2.54782958837009       -0.06516087099601
C            3.55159294676570       -1.24827712092868       -0.02722899577919
C            4.41503927331152       -0.13245467770074        0.01793751745675
C            3.93089805032384        1.18461920055072        0.04008101790634
O            4.61354179082006        2.21059937613127        0.06986636718581
O            2.54763717582220        1.38147232160977        0.02738336429333
C            1.69819039182547        0.32201643510559        0.00390511830297
C            2.16385457407415       -1.03139744979307       -0.03310030383350
C            1.20970065155465       -2.09381229387094       -0.09829938625008
C           -0.14362954357864       -1.85463717700165       -0.09694952861345
C           -0.58482752219314       -0.53468287605647       -0.01234833290201
C            0.34461934666414        0.55951285585552        0.00635090069626
C           -0.44684568616527        1.76653070464608        0.01220198714384
C           -0.12142001841147        3.10785143032806        0.04641616938589
C           -1.16101092477610        4.04042691906250        0.07912017836358
C           -2.48540591282110        3.63610524195339        0.09794620801797
C           -2.83160595727809        2.28854476245835        0.06471522670126
C           -1.80280557797607        1.35831227583710       -0.00458145441623
N           -1.86649242933483       -0.02345259622189       -0.01913875888498
C           -3.03528088128458       -0.77898506414700       -0.00983077323823
C           -3.16536429308752       -1.86224668457068        0.86574872926436
C           -4.32664711587560       -2.60787649911150        0.87112306951957
C           -5.36719870498620       -2.29421508073928        0.00732446045744
C           -5.23972850228309       -1.22229497044453       -0.86540167384063
C           -4.08593408182489       -0.46489835818535       -0.87854284295193
H            5.45024038724502       -3.89114539378129       -0.12289199155034
H            5.84744974549006       -2.43543842366657        0.82656837795187
H            5.84068234182061       -2.36525932339408       -0.95877993958318
H            5.48585636912539       -0.23766273971497        0.03238024453186
H            1.59508760028014       -3.09678480101676       -0.16035753361091
H           -0.84147723849967       -2.67306197980049       -0.17501309755977
H            0.91160572422628        3.41784200071885        0.05428863977640
H           -0.92304768820415        5.09311904285563        0.10337350474883
H           -3.26850360603958        4.37728711157784        0.14461522047951
H           -3.86569929429290        1.98641982996685        0.10866621270834
H           -2.36808471002111       -2.08035798086791        1.55970841265794
H           -4.42602183102119       -3.43360570630938        1.55943031926967
H           -6.27202382749098       -2.88207903882737        0.01419371344758
H           -6.04159898622413       -0.98336506396359       -1.54758130608389
H           -3.96762883647380        0.34262108510387       -1.58455158030312

          :  Hamiltonian                  GFN2-xTB          :
         :: gradient norm              0.000181845550 Eh/a0 ::
         :: HOMO-LUMO gap              0.604440130051 eV    ::
         :: SCC energy               -70.959271785515 Eh    ::
         :: -> dispersion             -0.051057273468 Eh    ::
         :: -> Gsolv                  -0.041441535189 Eh    ::
         :: repulsion energy           1.091110602575 Eh    ::

    * Orbital Energies and Occupations

         #    Occupation            Energy/Eh            Energy/eV
      -------------------------------------------------------------
         1        2.0000           -0.7375893             -20.0708
       ...           ...                  ...                  ...
        52        2.0000           -0.4462467             -12.1430
        53        2.0000           -0.4413471             -12.0097
        54        2.0000           -0.4377077             -11.9106
        55        2.0000           -0.4359650             -11.8632
        56        2.0000           -0.4326111             -11.7719
        57        2.0000           -0.4243685             -11.5477
        58        2.0000           -0.4232976             -11.5185
        59        2.0000           -0.4191743             -11.4063
        60        2.0000           -0.4068041             -11.0697
        61        2.0000           -0.3989917             -10.8571
        62        1.9976           -0.3902165             -10.6183
        63        1.0024           -0.3787215             -10.3055
        64        1.0000           -0.2784959              -7.5783 (HOMO)
        65        0.0000           -0.2562832              -6.9738 (LUMO)
        66                         -0.2481498              -6.7525
        67                         -0.2416582              -6.5759
        68                         -0.2345114              -6.3814
        69                         -0.2098604              -5.7106
        70                         -0.1957917              -5.3278
        71                         -0.1483946              -4.0380
        72                         -0.1143988              -3.1129
        73                         -0.0990132              -2.6943
        74                         -0.0704377              -1.9167
        75                         -0.0065058              -0.1770
       ...                                ...                  ...
       119                          0.7254013              19.7392
      -------------------------------------------------------------
                  HL-Gap            0.0222127 Eh            0.6044 eV

     #   Z          covCN         q      C6AA      α(0)
     1   6 C        3.642     0.034    20.350     6.486
     2   8 O        1.704    -0.278    18.605     5.824
     3   6 C        2.855     0.118    25.392     8.259
     4   6 C        2.900    -0.119    31.025     9.133
     5   6 C        2.711     0.315    21.643     7.615
     6   8 O        0.857    -0.497    23.714     6.529
     7   8 O        1.707    -0.281    18.664     5.833
     8   6 C        2.860     0.143    24.893     8.178
     9   6 C        2.974    -0.018    28.461     8.751
    10   6 C        2.919    -0.059    29.478     8.903
    11   6 C        2.902    -0.038    28.933     8.820
    12   6 C        3.049     0.023    27.442     8.591
    13   6 C        3.051    -0.033    28.768     8.797
    14   6 C        3.052     0.003    27.911     8.664
    15   6 C        2.911    -0.026    28.655     8.778
    16   6 C        2.919    -0.024    28.600     8.770
    17   6 C        2.920    -0.030    28.752     8.793
    18   6 C        2.909    -0.038    28.945     8.822
    19   6 C        3.059     0.046    26.912     8.507
    20   7 N        2.798     0.024    20.822     6.777
    21   6 C        2.914     0.060    26.660     8.467
    22   6 C        2.920    -0.036    28.895     8.815
    23   6 C        2.918    -0.022    28.563     8.764
    24   6 C        2.918    -0.024    28.611     8.771
    25   6 C        2.918    -0.022    28.566     8.765
    26   6 C        2.920    -0.036    28.906     8.817
    27   1 H        0.925     0.073     2.056     2.242
    28   1 H        0.924     0.048     2.348     2.396
    29   1 H        0.924     0.048     2.350     2.397
    30   1 H        0.926     0.054     2.269     2.356
    31   1 H        0.926     0.057     2.240     2.340
    32   1 H        0.926     0.060     2.197     2.318
    33   1 H        0.926     0.049     2.338     2.391
    34   1 H        0.926     0.049     2.338     2.391
    35   1 H        0.926     0.052     2.290     2.366
    36   1 H        0.926     0.058     2.222     2.331
    37   1 H        0.926     0.055     2.257     2.349
    38   1 H        0.926     0.053     2.279     2.361
    39   1 H        0.926     0.052     2.298     2.371
    40   1 H        0.926     0.054     2.272     2.357
    41   1 H        0.926     0.056     2.247     2.344

molecular dipole:
                 x           y           z       tot (Debye)
 q only:       -4.761      -2.110      -0.061
   full:       -4.434      -2.160      -0.059      12.538

 projected vibrational frequencies (cm⁻¹)
eigval :       -0.00    -0.00    -0.00     0.00     0.00     0.00
eigval :       31.41    36.49    54.28    72.92    82.33    90.79
eigval :      112.49   123.86   135.44   161.98   188.79   211.17
eigval :      224.65   242.32   246.65   272.70   281.25   289.60
eigval :      370.75   376.65   384.51   390.07   402.65   421.90
eigval :      445.89   462.77   472.77   504.83   522.68   545.07
eigval :      570.00   572.92   577.73   591.08   604.26   605.97
eigval :      639.72   660.93   662.66   685.55   696.02   721.04
eigval :      728.62   758.23   765.44   772.55   809.13   829.65
eigval :      855.26   864.71   876.72   881.05   897.20   906.40
eigval :      913.47   914.92   928.68   932.71   973.01   992.71
eigval :     1039.36  1065.96  1072.63  1078.30  1102.58  1113.65
eigval :     1116.19  1118.09  1141.18  1162.42  1168.97  1171.64
eigval :     1174.93  1183.85  1197.02  1197.92  1226.87  1230.22
eigval :     1260.59  1274.67  1296.97  1316.57  1320.62  1334.83
eigval :     1367.38  1377.74  1394.10  1397.02  1421.96  1430.55
eigval :     1443.45  1446.29  1459.99  1465.69  1476.66  1499.04
eigval :     1538.55  1542.76  1544.89  1562.71  1565.61  1594.48
eigval :     2935.89  2949.06  3024.47  3085.04  3086.36  3086.51
eigval :     3094.98  3095.70  3098.93  3100.53  3104.17  3105.96
eigval :     3109.55  3130.79  3134.60

   temp. (K)  partition function   enthalpy   heat capacity  entropy
                                   cal/mol     cal/K/mol   cal/K/mol   J/K/mol
 298.15  VIB  0.301E+08            11464.588     76.151     69.091
         ROT  0.124E+08              888.752      2.981     35.446
         INT  0.374E+15            12353.341     79.132    104.537
         TR   0.610E+28             1481.254      4.968     43.358
         TOT                       13834.5947    84.0998   147.8951   618.7933

       T/K    H(0)-H(T)+PV         H(T)/Eh          T*S/Eh         G(T)/Eh
   ------------------------------------------------------------------------
    298.15    0.220468E-01    0.323643E+00    0.702698E-01    0.253373E+00
   ------------------------------------------------------------------------

         :::::::::::::::::::::::::::::::::::::::::::::::::::::
         ::                  THERMODYNAMIC                  ::
         :::::::::::::::::::::::::::::::::::::::::::::::::::::
         :: total free energy         -69.614787871932 Eh   ::
         ::.................................................::
         :: total energy              -69.868161182427 Eh   ::
         :: zero point energy           0.301596233613 Eh   ::
         :: G(RRHO) w/o ZPVE           -0.048222923118 Eh   ::
         :: G(RRHO) contrib.            0.253373310495 Eh   ::
         :::::::::::::::::::::::::::::::::::::::::::::::::::::

           -------------------------------------------------
          | TOTAL ENERGY              -69.868161182427 Eh   |
          | TOTAL ENTHALPY            -69.544518118874 Eh   |
          | TOTAL FREE ENERGY         -69.614787871932 Eh   |
          | GRADIENT NORM               0.000181636848 Eh/α |
          | HOMO-LUMO GAP               0.604436975783 eV   |
           -------------------------------------------------

 * finished run on 2025/08/26 at 03:14:54.738
