   * xtb version 6.7.1 (edcfbbe) compiled by 'albert@albert-system' on 2024-07-22

   ID    Z sym.   atoms
    1    6 C      1, 3-5, 8-19, 21-26
    2    8 O      2, 6, 7
    3    7 N      20
    4    1 H      27-41

          program call               : xtb data2507/toluene/4CzMC/4CzMC_toluene_S0_crest.xyz --gfn 2 --gbsa toluene --ohess vtight --parallel 40 --molden --ceasefiles --namespace data2507/toluene/4CzMC/4CzMC_toluene_S0_finalOpt
      * Solvation model:               GBSA
        Solvent                        toluene
        Solvent mass                       9.2140E+01 g/mol
          :  Hamiltonian                  GFN2-xTB          :
 * total energy  :   -69.9680295 Eh     change       -0.6604779E-09 Eh
 * total energy  :   -69.9681341 Eh     change       -0.1045809E-03 Eh
 * total energy  :   -69.9681676 Eh     change       -0.3358566E-04 Eh
 * total energy  :   -69.9681704 Eh     change       -0.2770503E-05 Eh
 * total energy  :   -69.9681695 Eh     change        0.8798058E-06 Eh
 * total energy  :   -69.9681719 Eh     change       -0.2351302E-05 Eh
 * total energy  :   -69.9681731 Eh     change       -0.1162770E-05 Eh
 * total energy  :   -69.9681741 Eh     change       -0.1048997E-05 Eh
 * total energy  :   -69.9681750 Eh     change       -0.9422196E-06 Eh
 * total energy  :   -69.9681758 Eh     change       -0.7903889E-06 Eh
 * total energy  :   -69.9681764 Eh     change       -0.6013358E-06 Eh
 * total energy  :   -69.9681769 Eh     change       -0.4639909E-06 Eh
 * total energy  :   -69.9681773 Eh     change       -0.3869450E-06 Eh
 * total energy  :   -69.9681776 Eh     change       -0.2900377E-06 Eh
 * total energy  :   -69.9681778 Eh     change       -0.2098231E-06 Eh
 * total energy  :   -69.9681779 Eh     change       -0.1309766E-06 Eh
 * total energy  :   -69.9681780 Eh     change       -0.7851460E-07 Eh
   *** GEOMETRY OPTIMIZATION CONVERGED AFTER 17 ITERATIONS ***

 final structure:
================
41
 xtb: 6.7.1 (edcfbbe)
C            5.33690117662586       -2.82348742457651       -0.10644535123210
O            3.95474507421064       -2.51583355032290       -0.09256702729364
C            3.57356062816588       -1.23305019452127       -0.05276653011907
C            4.41210984116723       -0.15699278160350       -0.02020789020073
C            3.92058443094052        1.18675896020074        0.01912898564892
O            4.61625003000511        2.18797865785272        0.04634626671143
O            2.56447913215659        1.36956841397836        0.02733618976027
C            1.70818194205266        0.32075189076651       -0.00042631960316
C            2.14798494109653       -1.00940740049228       -0.04445519699343
C            1.21394901816321       -2.06365262917709       -0.08928734492733
C           -0.13668560653817       -1.83033374649179       -0.07430027339757
C           -0.57627586519758       -0.50581596212886       -0.00738314030823
C            0.33588120179448        0.57569512660956        0.01344628682078
C           -0.44740792558406        1.77649624761300        0.04061775301544
C           -0.12756509655065        3.12888593066443        0.08013258461434
C           -1.15963910608713        4.04444064588787        0.11900554228294
C           -2.49117591506074        3.62905635498345        0.13057711611947
C           -2.83176107752783        2.29075551246091        0.09121448910449
C           -1.79985418124280        1.36416418823237        0.03191158448981
N           -1.85482342840969       -0.01657199787650        0.00303768861907
C           -3.03283497041943       -0.79025029775904       -0.00482946480781
C           -3.21707322294940       -1.78814387957521        0.94640287388919
C           -4.37378949589212       -2.54699247148837        0.93161617568212
C           -5.35244519094185       -2.30933645433023       -0.01969290180424
C           -5.17038509310575       -1.31171796924368       -0.96360212137191
C           -4.01286575517416       -0.55384192364402       -0.96290388581996
H            5.39111999493811       -3.90981823484275       -0.14014959252869
H            5.83081901975016       -2.45633838943797        0.79650910149385
H            5.82490286335163       -2.40119492396148       -0.98830671783985
H            5.48488505705840       -0.24810932063045       -0.02402008047061
H            1.59641226518527       -3.07012911900776       -0.13801315118692
H           -0.84107584869856       -2.64520890833802       -0.12177742522126
H            0.90543398466244        3.44159980272011        0.08374167451555
H           -0.93592439156822        5.10056331959975        0.14795239916835
H           -3.27380461010222        4.37201149907679        0.17414209344983
H           -3.86439941965812        1.97830564878776        0.11376500386893
H           -2.45933164175749       -1.95545687767069        1.69720412708110
H           -4.51366297796603       -3.32135845474862        1.67111452684103
H           -6.25564282486182       -2.90069537054618       -0.02555289413497
H           -5.92985190979449       -1.12572364841787       -1.70837092126862
H           -3.85667494243643        0.21298505689871       -1.70684087194679

          :  Hamiltonian                  GFN2-xTB          :
         :: gradient norm              0.000025628064 Eh/a0 ::
         :: HOMO-LUMO gap              2.629937566275 eV    ::
         :: SCC energy               -71.080136271268 Eh    ::
         :: -> dispersion             -0.051170938270 Eh    ::
         :: -> Gsolv                  -0.036430349843 Eh    ::
         :: repulsion energy           1.111958276854 Eh    ::

    * Orbital Energies and Occupations

         #    Occupation            Energy/Eh            Energy/eV
      -------------------------------------------------------------
         1        2.0000           -0.7526464             -20.4806
       ...           ...                  ...                  ...
        51        2.0000           -0.4508994             -12.2696
        52        2.0000           -0.4421380             -12.0312
        53        2.0000           -0.4374710             -11.9042
        54        2.0000           -0.4357602             -11.8576
        55        2.0000           -0.4316741             -11.7465
        56        2.0000           -0.4258376             -11.5876
        57        2.0000           -0.4223463             -11.4926
        58        2.0000           -0.4163544             -11.3296
        59        2.0000           -0.4153372             -11.3019
        60        2.0000           -0.4126849             -11.2297
        61        2.0000           -0.4043821             -11.0038
        62        2.0000           -0.3886885             -10.5768
        63        2.0000           -0.3746411             -10.1945 (HOMO)
        64                         -0.2779927              -7.5646 (LUMO)
        65                         -0.2553836              -6.9493
        66                         -0.2391850              -6.5086
        67                         -0.2348735              -6.3912
        68                         -0.2320482              -6.3144
        69                         -0.2052564              -5.5853
        70                         -0.1951768              -5.3110
        71                         -0.1505236              -4.0960
        72                         -0.1067247              -2.9041
        73                         -0.0922457              -2.5101
        74                         -0.0672857              -1.8309
       ...                                ...                  ...
       119                          0.7252975              19.7364
      -------------------------------------------------------------
                  HL-Gap            0.0966484 Eh            2.6299 eV

     #   Z          covCN         q      C6AA      α(0)
     1   6 C        3.645     0.021    20.548     6.515
     2   8 O        1.705    -0.239    17.966     5.723
     3   6 C        2.861     0.164    24.452     8.105
     4   6 C        2.901    -0.136    31.489     9.201
     5   6 C        2.719     0.338    21.262     7.548
     6   8 O        0.857    -0.484    23.437     6.491
     7   8 O        1.709    -0.247    18.096     5.744
     8   6 C        2.870     0.141    24.932     8.185
     9   6 C        2.980    -0.038    28.944     8.825
    10   6 C        2.923    -0.032    28.798     8.800
    11   6 C        2.907    -0.052    29.281     8.873
    12   6 C        3.077     0.051    26.765     8.482
    13   6 C        3.070    -0.034    28.777     8.796
    14   6 C        3.067    -0.009    28.178     8.704
    15   6 C        2.911    -0.030    28.758     8.793
    16   6 C        2.920    -0.038    28.933     8.821
    17   6 C        2.924    -0.031    28.778     8.797
    18   6 C        2.909    -0.048    29.180     8.858
    19   6 C        3.084     0.046    26.879     8.499
    20   7 N        2.806    -0.023    21.692     6.917
    21   6 C        2.914     0.061    26.638     8.463
    22   6 C        2.922    -0.040    29.006     8.832
    23   6 C        2.920    -0.026    28.648     8.777
    24   6 C        2.919    -0.030    28.742     8.792
    25   6 C        2.920    -0.026    28.647     8.777
    26   6 C        2.922    -0.039    28.979     8.828
    27   1 H        0.925     0.085     1.933     2.174
    28   1 H        0.924     0.061     2.189     2.314
    29   1 H        0.924     0.061     2.190     2.314
    30   1 H        0.926     0.063     2.169     2.303
    31   1 H        0.926     0.069     2.098     2.265
    32   1 H        0.926     0.060     2.200     2.320
    33   1 H        0.926     0.038     2.476     2.461
    34   1 H        0.926     0.035     2.514     2.480
    35   1 H        0.926     0.040     2.445     2.445
    36   1 H        0.926     0.042     2.418     2.432
    37   1 H        0.926     0.046     2.367     2.406
    38   1 H        0.926     0.046     2.375     2.410
    39   1 H        0.926     0.044     2.394     2.420
    40   1 H        0.926     0.045     2.380     2.412
    41   1 H        0.926     0.047     2.363     2.404

molecular dipole:
                 x           y           z       tot (Debye)
 q only:       -2.538      -2.833      -0.075
   full:       -2.286      -2.873      -0.075       9.333

 projected vibrational frequencies (cm⁻¹)
eigval :       -0.00    -0.00    -0.00    -0.00     0.00     0.00
eigval :       28.57    37.64    53.18    57.66    83.04   107.78
eigval :      112.10   136.55   160.23   175.78   189.35   219.44
eigval :      224.53   234.98   242.57   281.28   293.91   306.29
eigval :      374.97   375.44   391.60   410.92   413.08   430.96
eigval :      471.61   476.58   511.50   538.81   539.52   575.80
eigval :      580.22   583.15   594.13   618.44   639.86   648.24
eigval :      668.78   673.11   694.37   696.87   710.10   747.74
eigval :      765.29   779.26   804.30   830.30   835.69   845.65
eigval :      874.30   882.53   900.75   908.03   911.53   916.29
eigval :      926.55   930.04   932.09   937.11   985.01  1002.74
eigval :     1059.97  1071.35  1077.22  1089.70  1111.77  1113.51
eigval :     1134.17  1140.84  1150.31  1166.38  1175.35  1177.25
eigval :     1181.94  1199.09  1210.65  1240.49  1250.91  1271.76
eigval :     1279.34  1312.30  1314.58  1330.73  1355.04  1375.84
eigval :     1379.29  1393.22  1418.84  1431.65  1434.52  1452.01
eigval :     1462.06  1466.92  1477.13  1484.83  1542.32  1562.14
eigval :     1580.90  1582.97  1588.61  1591.62  1607.47  1674.68
eigval :     2961.30  2970.17  3034.06  3077.50  3079.36  3081.51
eigval :     3085.20  3089.25  3093.15  3095.01  3099.20  3099.99
eigval :     3104.77  3119.32  3132.32

   temp. (K)  partition function   enthalpy   heat capacity  entropy
                                   cal/mol     cal/K/mol   cal/K/mol   J/K/mol
 298.15  VIB  0.207E+08            11115.949     73.900     66.855
         ROT  0.124E+08              888.752      2.981     35.441
         INT  0.257E+15            12004.701     76.880    102.296
         TR   0.610E+28             1481.254      4.968     43.358
         TOT                       13485.9550    81.8486   145.6544   609.4179

       T/K    H(0)-H(T)+PV         H(T)/Eh          T*S/Eh         G(T)/Eh
   ------------------------------------------------------------------------
    298.15    0.214912E-01    0.327499E+00    0.692051E-01    0.258294E+00
   ------------------------------------------------------------------------

         :::::::::::::::::::::::::::::::::::::::::::::::::::::
         ::                  THERMODYNAMIC                  ::
         :::::::::::::::::::::::::::::::::::::::::::::::::::::
         :: total free energy         -69.709883894711 Eh   ::
         ::.................................................::
         :: total energy              -69.968177994554 Eh   ::
         :: zero point energy           0.306007952923 Eh   ::
         :: G(RRHO) w/o ZPVE           -0.047713853079 Eh   ::
         :: G(RRHO) contrib.            0.258294099843 Eh   ::
         :::::::::::::::::::::::::::::::::::::::::::::::::::::

           -------------------------------------------------
          | TOTAL ENERGY              -69.968177994554 Eh   |
          | TOTAL ENTHALPY            -69.640678804389 Eh   |
          | TOTAL FREE ENERGY         -69.709883894711 Eh   |
          | GRADIENT NORM               0.000025624393 Eh/α |
          | HOMO-LUMO GAP               2.629937072007 eV   |
           -------------------------------------------------

 * finished run on 2025/08/26 at 03:14:53.189
