   * xtb version 6.7.1 (edcfbbe) compiled by 'albert@albert-system' on 2024-07-22

   ID    Z sym.   atoms
    1    8 O      1, 16, 28
    2    6 C      2-8, 10-15, 17-27, 30-35
    3    7 N      9, 29
    4    1 H      36-53

          program call               : xtb data2507/gas/PXZ-NAI/PXZ-NAI_gas_T1_crest.xyz --gfn 2 --spinpol --tblite --uhf 2 --ohess vtight --parallel 40 --molden --ceasefiles --namespace data2507/gas/PXZ-NAI/PXZ-NAI_gas_T1_finalOpt
 * total energy  :   -91.4700114 Eh     change       -0.6722104E-08 Eh
 * total energy  :   -91.4700222 Eh     change       -0.1080697E-04 Eh
 * total energy  :   -91.4700265 Eh     change       -0.4298387E-05 Eh
 * total energy  :   -91.4700275 Eh     change       -0.1034534E-05 Eh
 * total energy  :   -91.4700287 Eh     change       -0.1108367E-05 Eh
 * total energy  :   -91.4700296 Eh     change       -0.9693685E-06 Eh
 * total energy  :   -91.4700306 Eh     change       -0.9674177E-06 Eh
 * total energy  :   -91.4700313 Eh     change       -0.6956979E-06 Eh
 * total energy  :   -91.4700318 Eh     change       -0.4643495E-06 Eh
 * total energy  :   -91.4700322 Eh     change       -0.4382884E-06 Eh
 * total energy  :   -91.4700327 Eh     change       -0.5318334E-06 Eh
 * total energy  :   -91.4700332 Eh     change       -0.5102412E-06 Eh
 * total energy  :   -91.4700336 Eh     change       -0.3619315E-06 Eh
 * total energy  :   -91.4700338 Eh     change       -0.2264492E-06 Eh
 * total energy  :   -91.4700340 Eh     change       -0.1616005E-06 Eh
 * total energy  :   -91.4700341 Eh     change       -0.1266371E-06 Eh
 * total energy  :   -91.4700342 Eh     change       -0.1356638E-06 Eh
 * total energy  :   -91.4700343 Eh     change       -0.1613846E-07 Eh
   *** GEOMETRY OPTIMIZATION CONVERGED AFTER 18 ITERATIONS ***

 final structure:
================
53
 xtb: 6.7.1 (edcfbbe)
O            4.05024360950532        1.55062840068908        1.59773756674521
C            3.23763465910237        0.89272367406036        0.96128031311357
C            1.79969130958680        1.02982227987851        1.13003583373402
C            1.30185238465373        1.91689198377862        2.10588700682012
C           -0.05094626906553        2.03607685695307        2.29733597131050
C           -0.95113579225650        1.30967447619367        1.51354799407211
C           -0.49375137234663        0.44630548576310        0.51099464419798
C           -1.35363553514271       -0.34086385034324       -0.30435328309327
N           -2.75060838613865       -0.20889209292039       -0.21383091306952
C           -3.38053458080821        0.98111006078539       -0.55122357879419
C           -2.67053613364048        2.09002275253728       -1.01571631439334
C           -3.32901917835610        3.25994058892062       -1.33641878157178
C           -4.70859140347588        3.34904814655832       -1.21644180641459
C           -5.43464168545034        2.24911959986083       -0.79842147705975
C           -4.78200032320401        1.06837931491116       -0.47480566208171
O           -5.55630154076592        0.00759531539645       -0.11128440298136
C           -4.93064888310919       -1.16381769381557        0.19144579701706
C           -5.72999873058499       -2.23709479287828        0.55436099159533
C           -5.15188314365077       -3.44253472969208        0.90911688537270
C           -3.77015061025090       -3.56643358496346        0.92709260125847
C           -2.96555342142833       -2.50398799122807        0.56716238293280
C           -3.52931772398106       -1.29174262029210        0.16298275127155
C           -0.82848381249378       -1.27464283789556       -1.22661651018408
C            0.51753088508659       -1.40798704913554       -1.39221075830182
C            1.41225110367413       -0.62547552244956       -0.61727188024107
C            0.91165241483688        0.28826327581008        0.33095992524964
C            2.83795063612572       -0.80012243523193       -0.80449025822302
O            3.31704738736013       -1.59832866459867       -1.60205651649581
N            3.66030796249290       -0.01816583866091        0.00088178026953
C            5.07112639364895       -0.17428421686394       -0.16884581321906
C            5.84685839322703       -0.61846819496853        0.89081851458792
C            7.21237998766507       -0.76206367565772        0.72382362065601
C            7.79885420848608       -0.47565423080295       -0.49703642583373
C            7.01809841761950       -0.03809899407405       -1.55336093528197
C            5.65347657278069        0.11935474549881       -1.39211446577489
H            2.01404489459646        2.47879273474896        2.68863018881519
H           -0.43682758749879        2.70476950498864        3.05231858635248
H           -2.01093025809500        1.42551978738667        1.68710048224579
H           -1.60074846100436        2.02410002850683       -1.12457760591491
H           -2.76052817015297        4.10660560431730       -1.68704431611586
H           -5.21930166314980        4.26633428059074       -1.46178415021593
H           -6.50939697929666        2.27651049290356       -0.71980909158613
H           -6.79924496852382       -2.10021294742991        0.55656964098532
H           -5.77767975583645       -4.27496563219106        1.18813815334908
H           -3.31416564437331       -4.49500266474895        1.23193147822746
H           -1.89258697658392       -2.59960348112671        0.60463398401388
H           -1.52037988532825       -1.83740068088500       -1.83680052086850
H            0.94082234226208       -2.08788901224311       -2.11367691079387
H            5.38154422070628       -0.84117906629488        1.83885005980752
H            7.81879498138956       -1.10358486269364        1.54975971089542
H            8.86489054782281       -0.59376781949964       -0.62554788943409
H            7.47297673905634        0.18658857124108       -2.50688204133420
H            5.03798527190812        0.46095987400666       -2.21019187381850

 projected vibrational frequencies (cm⁻¹)
eigval :       -0.00    -0.00    -0.00     0.00     0.00     0.00
eigval :       16.90    26.66    28.77    41.23    45.35    56.72
eigval :       69.45    72.88   113.24   128.73   137.43   141.81
eigval :      161.57   180.78   195.80   235.26   240.80   249.14
eigval :      262.89   280.09   296.23   312.50   340.41   374.35
eigval :      379.38   384.78   388.70   398.00   409.73   428.28
eigval :      435.89   447.44   455.82   478.11   489.80   494.70
eigval :      496.67   508.96   517.48   528.74   539.10   567.54
eigval :      587.94   590.45   602.08   610.47   633.89   650.47
eigval :      657.39   664.36   668.19   670.56   675.86   703.37
eigval :      717.93   756.07   760.05   771.19   776.31   779.60
eigval :      799.20   807.14   830.70   845.03   846.34   858.05
eigval :      867.22   868.96   869.18   894.25   897.13   904.31
eigval :      905.21   906.29   911.90   920.10   920.98   923.38
eigval :      928.29   930.61   985.53  1023.47  1079.32  1082.36
eigval :     1083.18  1085.28  1114.97  1116.66  1118.54  1127.62
eigval :     1132.07  1150.89  1169.07  1172.09  1180.60  1183.26
eigval :     1186.88  1190.75  1194.45  1206.67  1212.89  1220.81
eigval :     1237.87  1251.89  1257.72  1279.00  1279.58  1294.10
eigval :     1309.33  1320.98  1322.29  1330.25  1344.58  1365.35
eigval :     1372.16  1387.16  1411.25  1413.51  1431.55  1432.62
eigval :     1438.57  1438.90  1468.49  1470.30  1476.03  1501.40
eigval :     1545.62  1549.98  1559.42  1569.97  1576.11  1581.57
eigval :     1592.39  1593.91  1622.80  3074.44  3074.50  3074.72
eigval :     3080.30  3087.30  3089.17  3098.04  3099.91  3101.14
eigval :     3101.70  3108.64  3109.49  3111.39  3112.60  3116.79
eigval :     3118.44  3119.21  3123.93

   temp. (K)  partition function   enthalpy   heat capacity  entropy
                                   cal/mol     cal/K/mol   cal/K/mol   J/K/mol
 298.15  VIB  0.475E+11            15019.217     98.578     90.872
         ROT  0.282E+08              888.752      2.981     37.070
         INT  0.134E+19            15907.969    101.559    127.942
         TR   0.937E+28             1481.254      4.968     44.211
         TOT                       17389.2234   106.5270   172.1528   720.2874

       T/K    H(0)-H(T)+PV         H(T)/Eh          T*S/Eh         G(T)/Eh
   ------------------------------------------------------------------------
    298.15    0.277115E-01    0.415260E+00    0.817954E-01    0.333465E+00
   ------------------------------------------------------------------------

         :::::::::::::::::::::::::::::::::::::::::::::::::::::
         ::                  THERMODYNAMIC                  ::
         :::::::::::::::::::::::::::::::::::::::::::::::::::::
         :: total free energy         -91.136569326367 Eh   ::
         ::.................................................::
         :: total energy              -91.470034266198 Eh   ::
         :: zero point energy           0.387548804275 Eh   ::
         :: G(RRHO) w/o ZPVE           -0.054083864445 Eh   ::
         :: G(RRHO) contrib.            0.333464939830 Eh   ::
         :::::::::::::::::::::::::::::::::::::::::::::::::::::

           -------------------------------------------------
          | TOTAL ENERGY              -91.470034266198 Eh   |
          | TOTAL ENTHALPY            -91.054773970497 Eh   |
          | TOTAL FREE ENERGY         -91.136569326367 Eh   |
          | GRADIENT NORM               0.000158987372 Eh/α |
           -------------------------------------------------

 * finished run on 2025/07/20 at 09:14:03.796
