   * xtb version 6.7.1 (edcfbbe) compiled by 'albert@albert-system' on 2024-07-22

   ID    Z sym.   atoms
    1    8 O      1, 16, 28
    2    6 C      2-8, 10-15, 17-27, 30-35
    3    7 N      9, 29
    4    1 H      36-53

          program call               : xtb data2507/gas/PXZ-NAI/PXZ-NAI_gas_S0_finalOpt.xtbopt.xyz --gfn 2 --spinpol --tblite --uhf 2 --ohess vtight --parallel 40 --molden --ceasefiles --namespace data2507/gas/PXZ-NAI/PXZ-NAI_gas_T1_preOpt
 * total energy  :   -91.4647431 Eh     change       -0.3168263E-07 Eh
 * total energy  :   -91.4688813 Eh     change       -0.4138198E-02 Eh
 * total energy  :   -91.4698398 Eh     change       -0.9585371E-03 Eh
 * total energy  :   -91.4699129 Eh     change       -0.7306025E-04 Eh
 * total energy  :   -91.4699474 Eh     change       -0.3451543E-04 Eh
 * total energy  :   -91.4699581 Eh     change       -0.1065581E-04 Eh
 * total energy  :   -91.4699677 Eh     change       -0.9661818E-05 Eh
 * total energy  :   -91.4699800 Eh     change       -0.1229771E-04 Eh
 * total energy  :   -91.4699906 Eh     change       -0.1060578E-04 Eh
 * total energy  :   -91.4699976 Eh     change       -0.6984390E-05 Eh
 * total energy  :   -91.4700254 Eh     change       -0.3711875E-05 Eh
 * total energy  :   -91.4700276 Eh     change       -0.2200388E-05 Eh
 * total energy  :   -91.4700293 Eh     change       -0.1693074E-05 Eh
 * total energy  :   -91.4700307 Eh     change       -0.1471716E-05 Eh
 * total energy  :   -91.4700318 Eh     change       -0.1075563E-05 Eh
 * total energy  :   -91.4700323 Eh     change       -0.5241085E-06 Eh
 * total energy  :   -91.4700326 Eh     change       -0.2258473E-06 Eh
 * total energy  :   -91.4700325 Eh     change        0.4864069E-07 Eh
 * total energy  :   -91.4700326 Eh     change       -0.4735357E-07 Eh
   *** GEOMETRY OPTIMIZATION CONVERGED AFTER 23 ITERATIONS ***

 final structure:
================
53
 xtb: 6.7.1 (edcfbbe)
O            4.05084254843358        1.45618407045991        1.67404094166487
C            3.23725579402333        0.82907213676176        1.00851791119644
C            1.79947800837284        0.96438090510261        1.18037709092950
C            1.30291675489215        1.81174712799199        2.19160250666886
C           -0.04990111980595        1.93059278295898        2.38318528546073
C           -0.95126632793252        1.24362650902311        1.56586050333408
C           -0.49480201214183        0.42042991633417        0.52964204258081
C           -1.35609799948408       -0.32622615815357       -0.32127421773804
N           -2.75249956067033       -0.18521413075239       -0.23428517134734
C           -3.36975270711907        1.02198487499211       -0.53206705718849
C           -2.64652529437262        2.14233616212770       -0.94576387848671
C           -3.29296313059797        3.32832794387021       -1.23001381519933
C           -4.67322744661673        3.42294494657196       -1.12343787517622
C           -5.41180257845018        2.31366627513848       -0.75497359778820
C           -4.77131094697986        1.11695213766727       -0.46786094619258
O           -5.55737455146702        0.04935720758554       -0.15230987830035
C           -4.94366806213258       -1.13727327262877        0.11362097200201
C           -5.75445822262459       -2.21700841980789        0.42876203371000
C           -5.18872626227827       -3.43908835874447        0.74452054287738
C           -3.80818780625899       -3.57432968497416        0.77136518477427
C           -2.99224594773943       -2.50561066245526        0.45861284936289
C           -3.54315239918238       -1.27500672245502        0.09430240519962
C           -0.83314116014762       -1.22580753177540       -1.27813436762344
C            0.51271309252103       -1.36018755415230       -1.44432180219303
C            1.40905364042774       -0.61441956091468       -0.63575881232830
C            0.91029812170146        0.26177279940960        0.34817470973191
C            2.83448610753176       -0.78638733704572       -0.82768091437302
O            3.31205459733456       -1.55250523914411       -1.65693303129016
N            3.65831883693754       -0.04070272582699        0.01001810245589
C            5.06886372293444       -0.18922924894760       -0.16871243651964
C            5.84801110213223       -0.67358216081034        0.87063042029795
C            7.21340660197110       -0.80768246942346        0.69475303478296
C            7.79637474571165       -0.47214904629426       -0.51520216933494
C            7.01216546720908        0.00512521649475       -1.55158798917898
C            5.64773753627576        0.15361295297394       -1.38083722793572
H            2.01605313461025        2.34444201470533        2.80006210450513
H           -0.43479404244250        2.56885337878122        3.16455323629575
H           -2.01113909537791        1.35822144117209        1.73990723647257
H           -1.57600149004400        2.07276520803079       -1.04443156361121
H           -2.71438589772664        4.18329259566396       -1.54186392806987
H           -5.17462933831420        4.35231595799010       -1.34092187095477
H           -6.48720237074310        2.34609672708799       -0.68796369986998
H           -6.82266266713655       -2.07224269139062        0.42535947375682
H           -5.82338968190618       -4.27639326982161        0.98644710023777
H           -3.36222357990186       -4.51701111281180        1.04618474910054
H           -1.92038235977869       -2.61052609491275        0.50260872784013
H           -1.52604683359893       -1.75930258861665       -1.91294881575590
H            0.93467653366935       -2.01257537252708       -2.19151931218272
H            5.38560953964739       -0.93451448952289        1.81026778666615
H            7.82255148782629       -1.18018120374881        1.50514233201478
H            8.86235968018260       -0.58266505074801       -0.65073652199572
H            7.46420400611852        0.26833115138729       -2.49657916546451
H            5.02966237562163        0.52626793376423       -2.18327032965251

 projected vibrational frequencies (cm⁻¹)
eigval :       -0.00    -0.00    -0.00     0.00     0.00     0.00
eigval :       17.02    26.43    28.75    41.48    45.45    56.86
eigval :       69.37    72.85   113.12   128.75   137.24   141.93
eigval :      161.55   180.50   195.83   235.31   240.81   248.85
eigval :      262.90   280.36   295.90   312.35   340.27   374.33
eigval :      379.18   384.74   388.56   398.06   409.98   428.31
eigval :      435.63   447.55   455.68   478.11   489.90   494.86
eigval :      496.68   508.94   517.44   528.68   538.99   567.60
eigval :      588.03   590.46   602.11   610.51   633.80   650.47
eigval :      657.30   664.39   668.26   670.57   675.90   703.59
eigval :      717.93   755.92   760.14   771.08   776.29   779.62
eigval :      799.12   807.01   830.69   845.02   846.35   858.02
eigval :      867.13   868.93   869.17   894.09   897.19   904.27
eigval :      905.26   906.22   911.81   920.09   920.90   923.44
eigval :      928.25   930.37   985.54  1023.71  1079.26  1082.38
eigval :     1083.09  1085.19  1114.84  1116.55  1118.37  1127.42
eigval :     1132.00  1150.93  1168.79  1172.14  1180.64  1183.28
eigval :     1186.71  1190.95  1194.49  1206.19  1212.60  1222.06
eigval :     1238.12  1251.72  1257.37  1278.88  1279.73  1294.23
eigval :     1309.43  1320.94  1322.35  1330.32  1344.69  1365.33
eigval :     1372.47  1387.33  1411.64  1413.54  1431.65  1432.72
eigval :     1438.71  1439.09  1468.14  1470.32  1476.13  1501.42
eigval :     1545.58  1550.04  1559.38  1570.05  1576.44  1581.58
eigval :     1592.22  1593.67  1622.73  3074.27  3074.39  3074.85
eigval :     3080.31  3087.29  3089.11  3098.33  3099.98  3101.37
eigval :     3101.85  3108.78  3109.65  3111.67  3112.68  3116.84
eigval :     3118.48  3119.32  3124.42

   temp. (K)  partition function   enthalpy   heat capacity  entropy
                                   cal/mol     cal/K/mol   cal/K/mol   J/K/mol
 298.15  VIB  0.474E+11            15020.026     98.587     90.881
         ROT  0.282E+08              888.752      2.981     37.070
         INT  0.133E+19            15908.779    101.568    127.951
         TR   0.937E+28             1481.254      4.968     44.211
         TOT                       17390.0327   106.5357   172.1619   720.3253

       T/K    H(0)-H(T)+PV         H(T)/Eh          T*S/Eh         G(T)/Eh
   ------------------------------------------------------------------------
    298.15    0.277128E-01    0.415265E+00    0.817997E-01    0.333465E+00
   ------------------------------------------------------------------------

         :::::::::::::::::::::::::::::::::::::::::::::::::::::
         ::                  THERMODYNAMIC                  ::
         :::::::::::::::::::::::::::::::::::::::::::::::::::::
         :: total free energy         -91.136567618290 Eh   ::
         ::.................................................::
         :: total energy              -91.470032508103 Eh   ::
         :: zero point energy           0.387551767335 Eh   ::
         :: G(RRHO) w/o ZPVE           -0.054086877522 Eh   ::
         :: G(RRHO) contrib.            0.333464889813 Eh   ::
         :::::::::::::::::::::::::::::::::::::::::::::::::::::

           -------------------------------------------------
          | TOTAL ENERGY              -91.470032508103 Eh   |
          | TOTAL ENTHALPY            -91.054767959676 Eh   |
          | TOTAL FREE ENERGY         -91.136567618290 Eh   |
          | GRADIENT NORM               0.000166951947 Eh/α |
           -------------------------------------------------

 * finished run on 2025/07/20 at 09:11:22.519
