   * xtb version 6.7.1 (edcfbbe) compiled by 'albert@albert-system' on 2024-07-22

   ID    Z sym.   atoms
    1    8 O      1, 16, 28
    2    6 C      2-8, 10-15, 17-27, 30-35
    3    7 N      9, 29
    4    1 H      36-53

          program call               : xtb data2507/gas/PXZ-NAI/PXZ-NAI_gas_S0_crest.xyz --gfn 2 --ohess vtight --parallel 40 --molden --ceasefiles --namespace data2507/gas/PXZ-NAI/PXZ-NAI_gas_S0_finalOpt
          :  Hamiltonian                  GFN2-xTB          :
 * total energy  :   -91.5327055 Eh     change       -0.1899238E-08 Eh
 * total energy  :   -91.5327065 Eh     change       -0.9729666E-06 Eh
 * total energy  :   -91.5327073 Eh     change       -0.8409476E-06 Eh
 * total energy  :   -91.5327092 Eh     change       -0.1879245E-05 Eh
 * total energy  :   -91.5327097 Eh     change       -0.5149998E-06 Eh
 * total energy  :   -91.5327095 Eh     change        0.1427117E-06 Eh
 * total energy  :   -91.5327099 Eh     change       -0.3970730E-06 Eh
 * total energy  :   -91.5327099 Eh     change        0.5824819E-07 Eh
 * total energy  :   -91.5327102 Eh     change       -0.3159863E-06 Eh
 * total energy  :   -91.5327105 Eh     change       -0.2896708E-06 Eh
 * total energy  :   -91.5327114 Eh     change       -0.5045577E-06 Eh
 * total energy  :   -91.5327119 Eh     change       -0.5176947E-06 Eh
 * total energy  :   -91.5327123 Eh     change       -0.3803149E-06 Eh
 * total energy  :   -91.5327126 Eh     change       -0.3110597E-06 Eh
 * total energy  :   -91.5327129 Eh     change       -0.3046208E-06 Eh
 * total energy  :   -91.5327132 Eh     change       -0.3212506E-06 Eh
 * total energy  :   -91.5327135 Eh     change       -0.2712915E-06 Eh
 * total energy  :   -91.5327137 Eh     change       -0.1660331E-06 Eh
 * total energy  :   -91.5327138 Eh     change       -0.9735054E-07 Eh
   *** GEOMETRY OPTIMIZATION CONVERGED AFTER 20 ITERATIONS ***

 final structure:
================
53
 xtb: 6.7.1 (edcfbbe)
O            4.04703949528374        1.43800845211257        1.68792051855973
C            3.24788624966404        0.82127722192611        1.01594802839824
C            1.78984391373947        0.94151194484312        1.19417347534092
C            1.29465461910794        1.76264540564468        2.18559177058852
C           -0.08311998659139        1.88028908149281        2.37873094661750
C           -0.95995854795475        1.20529269300330        1.56884850264567
C           -0.49199361105509        0.37489665898391        0.53026206984734
C           -1.35963019005596       -0.35168782732222       -0.33344803704834
N           -2.75174903793695       -0.19971961470064       -0.21567916840848
C           -3.35955805699579        1.01891705576133       -0.54214901695194
C           -2.63236002861490        2.10534107354627       -1.01246406666422
C           -3.26278975204070        3.30141061058361       -1.31707777366193
C           -4.63031110080484        3.42605255212591       -1.17301457933484
C           -5.37476049442135        2.33818365056934       -0.74408259131955
C           -4.75056303498777        1.14219548978118       -0.43790669436393
O           -5.55466174659777        0.10136478533465       -0.04991193325080
C           -4.95440462938751       -1.11026042425591        0.18143185219523
C           -5.78410452424784       -2.16520522256988        0.51576674871063
C           -5.24994484418539       -3.41121620817595        0.80528070461367
C           -3.88113779041093       -3.58835688974227        0.77529397761038
C           -3.04529362711171       -2.53575416366950        0.43640829978294
C           -3.56664849270660       -1.28981894561959        0.11138948392481
C           -0.83663881963044       -1.21084503348721       -1.27990167366049
C            0.53887293631039       -1.35622787698159       -1.43061197640283
C            1.41137886823629       -0.64212687861169       -0.63259778346016
C            0.90810653440569        0.22481110045073        0.35881090704545
C            2.86073543320851       -0.80069855556872       -0.82189633714496
O            3.34300980104175       -1.54767084607221       -1.64701103279100
N            3.67088097645341       -0.04234030806235        0.01507361444791
C            5.08773169152166       -0.17177171187952       -0.16999324666989
C            5.86358213734353       -0.72545117579699        0.83548979757626
C            7.22992588622142       -0.84223763342800        0.65335594090923
C            7.81370906915056       -0.41768777853929       -0.52799613037028
C            7.03100645708618        0.12988083186950       -1.53010740354355
C            5.66516406316096        0.25942005404422       -1.35337723295835
H            1.99274777957740        2.30078953134417        2.80881826295013
H           -0.45692495824736        2.50892669494171        3.17240195071433
H           -2.02342056267011        1.30275113464473        1.72683729151843
H           -1.56546929396871        2.01747928494673       -1.14414017235460
H           -2.67272414204433        4.13173979311217       -1.67243163374928
H           -5.12466265161364        4.35615813420375       -1.40395876455823
H           -6.44667926041424        2.39416358595955       -0.64287786294428
H           -6.84676405682786       -1.98640391105932        0.55043097200187
H           -5.90457249591282       -4.22836264426036        1.06325850468562
H           -3.44870792560119       -4.54615205348259        1.01948835877557
H           -1.97690523547918       -2.68413003289034        0.43510335874977
H           -1.50888910165238       -1.76007816677934       -1.92246507992022
H            0.94511973891519       -2.01391966834549       -2.18391336470982
H            5.39940060748560       -1.05463168633284        1.75270009210713
H            7.83851554843361       -1.26965509168738        1.43613244140334
H            8.88017874867019       -0.51365959240380       -0.66793186177914
H            7.48417267061021        0.46144380523444       -2.45234142331202
H            5.04681723234192        0.68599208246382       -2.12853574608667

          :  Hamiltonian                  GFN2-xTB          :
         :: gradient norm              0.000037391995 Eh/a0 ::
         :: HOMO-LUMO gap              1.056965066727 eV    ::
         :: SCC energy               -93.061471172489 Eh    ::
         :: -> dispersion             -0.074845725010 Eh    ::
         :: repulsion energy           1.528757398049 Eh    ::

    * Orbital Energies and Occupations

         #    Occupation            Energy/Eh            Energy/eV
      -------------------------------------------------------------
         1        2.0000           -0.7380329             -20.0829
       ...           ...                  ...                  ...
        71        2.0000           -0.4403142             -11.9816
        72        2.0000           -0.4367511             -11.8846
        73        2.0000           -0.4311300             -11.7316
        74        2.0000           -0.4251626             -11.5693
        75        2.0000           -0.4223506             -11.4927
        76        2.0000           -0.4206340             -11.4460
        77        2.0000           -0.4119307             -11.2092
        78        2.0000           -0.4105673             -11.1721
        79        2.0000           -0.4095883             -11.1455
        80        2.0000           -0.4061586             -11.0521
        81        2.0000           -0.4021260             -10.9424
        82        2.0000           -0.3997555             -10.8779
        83        2.0000           -0.3547935              -9.6544 (HOMO)
        84                         -0.3159507              -8.5975 (LUMO)
        85                         -0.2584639              -7.0332
        86                         -0.2565147              -6.9801
        87                         -0.2479000              -6.7457
        88                         -0.2390987              -6.5062
        89                         -0.2346117              -6.3841
        90                         -0.2263546              -6.1594
        91                         -0.2263037              -6.1580
        92                         -0.2232765              -6.0757
        93                         -0.2059555              -5.6043
        94                         -0.1669542              -4.5431
       ...                                ...                  ...
       158                          0.7258092              19.7503
      -------------------------------------------------------------
                  HL-Gap            0.0388428 Eh            1.0570 eV

     #   Z          covCN         q      C6AA      α(0)
     1   8 O        0.859    -0.403    21.735     6.251
     2   6 C        2.775     0.274    22.374     7.747
     3   6 C        2.977    -0.024    28.594     8.771
     4   6 C        2.922    -0.011    28.301     8.724
     5   6 C        2.914    -0.025    28.634     8.775
     6   6 C        2.917    -0.022    28.546     8.761
     7   6 C        2.984     0.006    27.887     8.662
     8   6 C        2.918     0.068    26.478     8.438
     9   7 N        2.751    -0.066    22.511     7.047
    10   6 C        2.923     0.042    27.065     8.531
    11   6 C        2.923    -0.057    29.426     8.896
    12   6 C        2.919    -0.037    28.930     8.820
    13   6 C        2.919    -0.038    28.944     8.822
    14   6 C        2.920    -0.055    29.368     8.887
    15   6 C        2.884     0.126    25.243     8.237
    16   8 O        1.709    -0.251    18.158     5.753
    17   6 C        2.885     0.126    25.238     8.236
    18   6 C        2.920    -0.055    29.361     8.886
    19   6 C        2.919    -0.038    28.941     8.822
    20   6 C        2.919    -0.037    28.925     8.819
    21   6 C        2.923    -0.058    29.449     8.899
    22   6 C        2.922     0.041    27.079     8.534
    23   6 C        2.917    -0.041    29.018     8.833
    24   6 C        2.921    -0.015    28.379     8.736
    25   6 C        2.976    -0.030    28.745     8.795
    26   6 C        2.994     0.009    27.802     8.649
    27   6 C        2.775     0.274    22.376     7.747
    28   8 O        0.859    -0.404    21.765     6.255
    29   7 N        2.746    -0.103    23.261     7.163
    30   6 C        2.938     0.087    26.071     8.374
    31   6 C        2.921    -0.025    28.639     8.776
    32   6 C        2.922    -0.025    28.616     8.772
    33   6 C        2.920    -0.027    28.688     8.783
    34   6 C        2.922    -0.025    28.617     8.773
    35   6 C        2.921    -0.026    28.644     8.777
    36   1 H        0.926     0.071     2.073     2.252
    37   1 H        0.926     0.049     2.332     2.388
    38   1 H        0.926     0.047     2.356     2.400
    39   1 H        0.926     0.033     2.543     2.494
    40   1 H        0.926     0.040     2.454     2.450
    41   1 H        0.926     0.042     2.419     2.432
    42   1 H        0.926     0.054     2.271     2.356
    43   1 H        0.926     0.054     2.272     2.357
    44   1 H        0.926     0.042     2.420     2.432
    45   1 H        0.926     0.040     2.446     2.446
    46   1 H        0.926     0.036     2.503     2.474
    47   1 H        0.926     0.053     2.289     2.366
    48   1 H        0.926     0.073     2.056     2.242
    49   1 H        0.926     0.045     2.384     2.414
    50   1 H        0.926     0.042     2.423     2.434
    51   1 H        0.926     0.040     2.447     2.446
    52   1 H        0.926     0.042     2.423     2.434
    53   1 H        0.926     0.045     2.390     2.417

molecular dipole:
                 x           y           z       tot (Debye)
 q only:       -1.255       0.111       0.155
   full:       -1.400       0.116       0.164       3.596

 projected vibrational frequencies (cm⁻¹)
eigval :       -0.00    -0.00    -0.00     0.00     0.00     0.00
eigval :       17.64    24.01    25.28    38.63    45.09    48.39
eigval :       64.64    67.03   114.39   127.92   131.04   141.84
eigval :      159.99   182.62   188.86   235.21   237.99   251.39
eigval :      259.87   282.90   303.88   315.26   327.39   374.40
eigval :      383.63   388.76   397.73   413.15   414.46   423.94
eigval :      431.64   440.92   449.78   486.86   493.29   501.16
eigval :      509.05   519.22   529.63   530.35   551.55   581.05
eigval :      589.84   601.78   609.49   627.28   638.66   653.23
eigval :      660.09   662.06   666.49   687.67   706.26   709.20
eigval :      746.16   757.81   773.78   778.65   779.73   801.60
eigval :      805.35   836.38   850.66   855.85   856.22   865.18
eigval :      869.37   871.25   898.49   899.80   900.30   908.82
eigval :      915.72   916.22   916.98   924.83   926.55   929.74
eigval :      930.91   933.83   988.21  1031.48  1080.40  1084.83
eigval :     1090.08  1093.61  1108.95  1117.54  1123.15  1133.48
eigval :     1141.89  1170.24  1175.17  1181.14  1185.54  1186.75
eigval :     1191.23  1198.31  1202.11  1213.04  1232.96  1240.45
eigval :     1243.86  1250.89  1261.82  1279.11  1294.09  1303.59
eigval :     1310.93  1321.73  1324.98  1340.28  1351.35  1363.10
eigval :     1393.34  1411.55  1422.92  1438.34  1441.20  1449.06
eigval :     1469.92  1483.92  1499.62  1505.83  1546.54  1566.36
eigval :     1569.54  1579.56  1590.16  1590.65  1594.44  1596.47
eigval :     1600.74  1690.62  1702.22  3079.77  3084.50  3089.04
eigval :     3089.99  3091.74  3092.70  3093.04  3097.57  3097.86
eigval :     3100.58  3101.25  3101.71  3103.12  3104.28  3107.95
eigval :     3108.93  3115.09  3115.63

   temp. (K)  partition function   enthalpy   heat capacity  entropy
                                   cal/mol     cal/K/mol   cal/K/mol   J/K/mol
 298.15  VIB  0.759E+11            14937.031     97.122     90.704
         ROT  0.282E+08              888.752      2.981     37.074
         INT  0.214E+19            15825.784    100.103    127.778
         TR   0.937E+28             1481.254      4.968     44.211
         TOT                       17307.0376   105.0712   171.9886   719.6004

       T/K    H(0)-H(T)+PV         H(T)/Eh          T*S/Eh         G(T)/Eh
   ------------------------------------------------------------------------
    298.15    0.275805E-01    0.418077E+00    0.817173E-01    0.336360E+00
   ------------------------------------------------------------------------

         :::::::::::::::::::::::::::::::::::::::::::::::::::::
         ::                  THERMODYNAMIC                  ::
         :::::::::::::::::::::::::::::::::::::::::::::::::::::
         :: total free energy         -91.196354232749 Eh   ::
         ::.................................................::
         :: total energy              -91.532713774436 Eh   ::
         :: zero point energy           0.390496360996 Eh   ::
         :: G(RRHO) w/o ZPVE           -0.054136819310 Eh   ::
         :: G(RRHO) contrib.            0.336359541686 Eh   ::
         :::::::::::::::::::::::::::::::::::::::::::::::::::::

           -------------------------------------------------
          | TOTAL ENERGY              -91.532713774436 Eh   |
          | TOTAL ENTHALPY            -91.114636893487 Eh   |
          | TOTAL FREE ENERGY         -91.196354232749 Eh   |
          | GRADIENT NORM               0.000037371604 Eh/α |
          | HOMO-LUMO GAP               1.056966910728 eV   |
           -------------------------------------------------

 * finished run on 2025/07/20 at 09:11:18.998
