   * xtb version 6.7.1 (edcfbbe) compiled by 'albert@albert-system' on 2024-07-22

   ID    Z sym.   atoms
    1    8 O      1, 16, 28
    2    6 C      2-8, 10-15, 17-27, 30-35
    3    7 N      9, 29
    4    1 H      36-53

          program call               : xtb data2507/gas/PXZ-NAI/PXZ-NAI.xyz --gfn 2 --ohess vtight --parallel 40 --molden --ceasefiles --namespace data2507/gas/PXZ-NAI/PXZ-NAI_gas_S0_preOpt
          :  Hamiltonian                  GFN2-xTB          :
 * total energy  :   -91.5098066 Eh     change       -0.2569763E-08 Eh
 * total energy  :   -91.5218171 Eh     change       -0.1201050E-01 Eh
 * total energy  :   -91.5253836 Eh     change       -0.3566529E-02 Eh
 * total energy  :   -91.5268828 Eh     change       -0.1499185E-02 Eh
 * total energy  :   -91.5282868 Eh     change       -0.1404043E-02 Eh
 * total energy  :   -91.5289537 Eh     change       -0.6668483E-03 Eh
 * total energy  :   -91.5293074 Eh     change       -0.3537163E-03 Eh
 * total energy  :   -91.5295963 Eh     change       -0.2888942E-03 Eh
 * total energy  :   -91.5298736 Eh     change       -0.2773632E-03 Eh
 * total energy  :   -91.5301769 Eh     change       -0.3032246E-03 Eh
 * total energy  :   -91.5326943 Eh     change       -0.2669868E-05 Eh
 * total energy  :   -91.5326965 Eh     change       -0.2290480E-05 Eh
 * total energy  :   -91.5326985 Eh     change       -0.1937455E-05 Eh
 * total energy  :   -91.5327000 Eh     change       -0.1500596E-05 Eh
 * total energy  :   -91.5327012 Eh     change       -0.1195218E-05 Eh
 * total energy  :   -91.5327021 Eh     change       -0.8837703E-06 Eh
 * total energy  :   -91.5327028 Eh     change       -0.7492862E-06 Eh
 * total energy  :   -91.5327035 Eh     change       -0.6915236E-06 Eh
 * total energy  :   -91.5327035 Eh     change       -0.6515776E-08 Eh
   *** GEOMETRY OPTIMIZATION CONVERGED AFTER 68 ITERATIONS ***

 final structure:
================
53
 xtb: 6.7.1 (edcfbbe)
O            4.02611205691156        0.49361032237455        2.24037897085645
C            3.24404628928072        0.28237952858053        1.33805516618483
C            1.78267212135923        0.27569691906216        1.52925801755237
C            1.26375737170926        0.48956851918980        2.78916632355403
C           -0.11741213028074        0.47380279697003        2.99347226797476
C           -0.97453400298887        0.27110865254361        1.94249605646746
C           -0.48216171512480        0.06844363776725        0.63722859438891
C           -1.32824948643124       -0.16008062296222       -0.48420994782064
N           -2.72482979300341       -0.12486336222735       -0.32626013716056
C           -3.37471028104669        1.08109947408569       -0.03816510310061
C           -2.68512235190914        2.28050304299167        0.08788890604977
C           -3.35773640762632        3.45680735832241        0.37944672706800
C           -4.72974109057691        3.45630686771217        0.53383923614322
C           -5.43586303679514        2.27401775127562        0.37386170220964
C           -4.76974015167386        1.09691344991218        0.08379858580287
O           -5.53676032565362       -0.02683789722395       -0.08899706827176
C           -4.89266780304752       -1.18516886187585       -0.44334926744738
C           -5.68241960203553       -2.30018056482562       -0.65764833041574
C           -5.10222591578823       -3.51723734235807       -0.98043113842347
C           -3.72804304785566       -3.61372515691697       -1.07062990460492
C           -2.93190564348668       -2.49854153597588       -0.86074612697332
C           -3.49941889805282       -1.26522268104224       -0.56682655631056
C           -0.78166525580676       -0.42933358771424       -1.72334060721750
C            0.59756800421580       -0.44771104026830       -1.90697484458266
C            1.44929742223010       -0.20164450387808       -0.84781988447497
C            0.92177109605356        0.05072461107024        0.43509724422366
C            2.90290112981953       -0.21471879299649       -1.06932439330597
O            3.40618240628694       -0.43922420531667       -2.14985743643255
N            3.69116172985056        0.03891656457256        0.04682897064195
C            5.11166400429120        0.04085489111650       -0.15564393376465
C            5.89144618285485       -0.93445909537478        0.44447073451382
C            7.26097250098767       -0.92476247796786        0.24958311877801
C            7.84413126862232        0.04663661249700       -0.54601176531000
C            7.05755471819000        1.01500968237643       -1.14619308210123
C            5.68824458636112        1.01878687944237       -0.94984658771957
H            1.94624917787206        0.65973066779148        3.60807460454844
H           -0.50934559587672        0.62235469466303        3.98803478162091
H           -2.04084408107474        0.25956479809502        2.11074436797650
H           -1.61484760097603        2.29761254742430       -0.04504408241453
H           -2.79693238000460        4.37304662160103        0.47910639506195
H           -5.25705291065902        4.36822987845184        0.76443334111196
H           -6.50958922292355        2.24269297031766        0.46622900323434
H           -6.75089495974161       -2.19440669344017       -0.55973933058966
H           -5.72597898860295       -4.38099390048611       -1.14681555167567
H           -3.26051302771189       -4.55850587911284       -1.30043898981017
H           -1.85873912390067       -2.59212203501903       -0.91689615864607
H           -1.43854288931470       -0.60967391039754       -2.56147129566460
H            1.02240117944388       -0.63817727282058       -2.88077812687974
H            5.42756427213488       -1.68828410971510        1.06228064605468
H            7.87261781958086       -1.68099298242166        0.71839785479814
H            8.91316511503528        0.04894650309314       -0.69863331384170
H            7.51031397557380        1.77340325688924       -1.76719833891041
H            5.06669529130259        1.77009701215262       -1.41288231294649

          :  Hamiltonian                  GFN2-xTB          :
         :: gradient norm              0.000068776504 Eh/a0 ::
         :: HOMO-LUMO gap              1.041108544371 eV    ::
         :: SCC energy               -93.061591689016 Eh    ::
         :: -> dispersion             -0.074810710008 Eh    ::
         :: repulsion energy           1.528888180457 Eh    ::

    * Orbital Energies and Occupations

         #    Occupation            Energy/Eh            Energy/eV
      -------------------------------------------------------------
         1        2.0000           -0.7377241             -20.0745
       ...           ...                  ...                  ...
        71        2.0000           -0.4404599             -11.9855
        72        2.0000           -0.4366386             -11.8815
        73        2.0000           -0.4313243             -11.7369
        74        2.0000           -0.4249457             -11.5634
        75        2.0000           -0.4221764             -11.4880
        76        2.0000           -0.4207357             -11.4488
        77        2.0000           -0.4121046             -11.2139
        78        2.0000           -0.4107570             -11.1773
        79        2.0000           -0.4098594             -11.1528
        80        2.0000           -0.4064099             -11.0590
        81        2.0000           -0.4024476             -10.9512
        82        2.0000           -0.3995963             -10.8736
        83        2.0000           -0.3544738              -9.6457 (HOMO)
        84                         -0.3162137              -8.6046 (LUMO)
        85                         -0.2587111              -7.0399
        86                         -0.2566524              -6.9839
        87                         -0.2476552              -6.7390
        88                         -0.2388755              -6.5001
        89                         -0.2346855              -6.3861
        90                         -0.2265838              -6.1657
        91                         -0.2265138              -6.1638
        92                         -0.2231889              -6.0733
        93                         -0.2056964              -5.5973
        94                         -0.1672338              -4.5507
       ...                                ...                  ...
       158                          0.7256651              19.7464
      -------------------------------------------------------------
                  HL-Gap            0.0382601 Eh            1.0411 eV

     #   Z          covCN         q      C6AA      α(0)
     1   8 O        0.859    -0.403    21.731     6.250
     2   6 C        2.775     0.274    22.373     7.747
     3   6 C        2.977    -0.024    28.593     8.771
     4   6 C        2.922    -0.011    28.300     8.724
     5   6 C        2.914    -0.025    28.632     8.774
     6   6 C        2.917    -0.022    28.543     8.761
     7   6 C        2.984     0.006    27.883     8.662
     8   6 C        2.918     0.068    26.472     8.437
     9   7 N        2.751    -0.066    22.523     7.049
    10   6 C        2.923     0.042    27.063     8.531
    11   6 C        2.923    -0.058    29.431     8.897
    12   6 C        2.919    -0.037    28.931     8.820
    13   6 C        2.919    -0.038    28.947     8.823
    14   6 C        2.920    -0.055    29.368     8.887
    15   6 C        2.884     0.126    25.245     8.237
    16   8 O        1.709    -0.251    18.161     5.754
    17   6 C        2.884     0.126    25.239     8.236
    18   6 C        2.920    -0.055    29.363     8.886
    19   6 C        2.919    -0.038    28.943     8.822
    20   6 C        2.919    -0.037    28.925     8.820
    21   6 C        2.923    -0.058    29.450     8.899
    22   6 C        2.922     0.041    27.078     8.533
    23   6 C        2.917    -0.041    29.009     8.832
    24   6 C        2.921    -0.015    28.377     8.736
    25   6 C        2.976    -0.030    28.740     8.794
    26   6 C        2.994     0.009    27.802     8.649
    27   6 C        2.775     0.274    22.375     7.747
    28   8 O        0.859    -0.404    21.761     6.254
    29   7 N        2.746    -0.103    23.261     7.163
    30   6 C        2.938     0.087    26.070     8.374
    31   6 C        2.921    -0.025    28.639     8.776
    32   6 C        2.922    -0.024    28.615     8.772
    33   6 C        2.920    -0.027    28.686     8.783
    34   6 C        2.922    -0.025    28.616     8.772
    35   6 C        2.921    -0.026    28.642     8.776
    36   1 H        0.926     0.071     2.073     2.251
    37   1 H        0.926     0.049     2.330     2.387
    38   1 H        0.926     0.047     2.354     2.399
    39   1 H        0.926     0.033     2.546     2.495
    40   1 H        0.926     0.039     2.456     2.451
    41   1 H        0.926     0.042     2.421     2.433
    42   1 H        0.926     0.054     2.272     2.357
    43   1 H        0.926     0.054     2.273     2.358
    44   1 H        0.926     0.042     2.421     2.433
    45   1 H        0.926     0.040     2.448     2.447
    46   1 H        0.926     0.035     2.512     2.478
    47   1 H        0.926     0.053     2.287     2.365
    48   1 H        0.926     0.073     2.054     2.241
    49   1 H        0.926     0.045     2.385     2.415
    50   1 H        0.926     0.042     2.422     2.434
    51   1 H        0.926     0.040     2.446     2.446
    52   1 H        0.926     0.042     2.422     2.434
    53   1 H        0.926     0.045     2.389     2.417

molecular dipole:
                 x           y           z       tot (Debye)
 q only:       -1.229      -0.007       0.177
   full:       -1.374      -0.009       0.185       3.524

 projected vibrational frequencies (cm⁻¹)
eigval :       -0.00    -0.00    -0.00    -0.00     0.00     0.00
eigval :       17.58    23.26    24.87    37.41    45.03    47.56
eigval :       64.24    66.52   113.86   127.45   130.39   141.27
eigval :      159.88   181.50   188.24   235.00   237.95   251.17
eigval :      259.78   282.58   303.66   314.41   327.10   374.34
eigval :      383.85   388.60   397.75   412.97   414.47   423.80
eigval :      430.98   440.11   449.86   486.99   493.20   501.19
eigval :      509.03   519.05   529.50   529.80   551.57   580.99
eigval :      589.84   601.79   609.51   627.42   638.55   653.28
eigval :      659.97   661.83   666.42   687.65   706.29   709.33
eigval :      746.29   757.74   773.81   778.53   779.55   801.53
eigval :      805.41   836.38   850.47   855.78   856.15   864.86
eigval :      868.52   871.23   898.28   899.77   900.01   908.81
eigval :      915.66   916.14   917.07   924.80   925.97   929.61
eigval :      930.92   933.88   988.22  1031.31  1080.34  1084.77
eigval :     1089.92  1093.41  1108.90  1117.43  1123.05  1133.43
eigval :     1141.75  1170.24  1175.23  1181.12  1185.27  1186.60
eigval :     1191.10  1198.18  1201.84  1212.90  1233.12  1240.63
eigval :     1243.76  1250.82  1261.73  1278.98  1294.09  1303.71
eigval :     1310.97  1321.68  1325.58  1340.57  1351.64  1362.96
eigval :     1393.25  1411.55  1423.01  1438.37  1441.30  1449.15
eigval :     1469.95  1484.43  1499.92  1505.78  1546.60  1566.68
eigval :     1569.55  1579.63  1590.21  1590.71  1594.46  1596.49
eigval :     1600.86  1690.93  1702.38  3079.87  3084.52  3089.01
eigval :     3090.05  3091.75  3092.53  3092.81  3097.52  3097.79
eigval :     3100.58  3100.98  3101.38  3103.17  3104.27  3107.64
eigval :     3108.50  3115.04  3115.55

   temp. (K)  partition function   enthalpy   heat capacity  entropy
                                   cal/mol     cal/K/mol   cal/K/mol   J/K/mol
 298.15  VIB  0.865E+11            14950.680     97.079     90.830
         ROT  0.282E+08              888.752      2.981     37.074
         INT  0.244E+19            15839.432    100.060    127.905
         TR   0.937E+28             1481.254      4.968     44.211
         TOT                       17320.6861   105.0278   172.1154   720.1307

       T/K    H(0)-H(T)+PV         H(T)/Eh          T*S/Eh         G(T)/Eh
   ------------------------------------------------------------------------
    298.15    0.276023E-01    0.418060E+00    0.817776E-01    0.336283E+00
   ------------------------------------------------------------------------

         :::::::::::::::::::::::::::::::::::::::::::::::::::::
         ::                  THERMODYNAMIC                  ::
         :::::::::::::::::::::::::::::::::::::::::::::::::::::
         :: total free energy         -91.196420786189 Eh   ::
         ::.................................................::
         :: total energy              -91.532703508557 Eh   ::
         :: zero point energy           0.390458019185 Eh   ::
         :: G(RRHO) w/o ZPVE           -0.054175296816 Eh   ::
         :: G(RRHO) contrib.            0.336282722368 Eh   ::
         :::::::::::::::::::::::::::::::::::::::::::::::::::::

           -------------------------------------------------
          | TOTAL ENERGY              -91.532703508557 Eh   |
          | TOTAL ENTHALPY            -91.114643219037 Eh   |
          | TOTAL FREE ENERGY         -91.196420786189 Eh   |
          | GRADIENT NORM               0.000068774122 Eh/α |
          | HOMO-LUMO GAP               1.041110289862 eV   |
           -------------------------------------------------

 * finished run on 2025/07/20 at 09:09:18.277
