   * xtb version 6.7.1 (edcfbbe) compiled by 'albert@albert-system' on 2024-07-22

   ID    Z sym.   atoms
    1    6 C      1-6, 8-13, 15-42
    2    8 O      7
    3    7 N      14
    4    1 H      43-63

          program call               : xtb data2507/toluene/DBCP/DBCP_toluene_S0_finalOpt.xtbopt.xyz --gfn 2 --uhf 2 --gbsa toluene --ohess vtight --parallel 40 --molden --ceasefiles --namespace data2507/toluene/DBCP/DBCP_toluene_T1_preOpt
      * Solvation model:               GBSA
        Solvent                        toluene
        Solvent mass                       9.2140E+01 g/mol
          :  Hamiltonian                  GFN2-xTB          :
 * total energy  :  -103.3697114 Eh     change       -0.1649795E-08 Eh
 * total energy  :  -103.3740612 Eh     change       -0.4349850E-02 Eh
 * total energy  :  -103.3753442 Eh     change       -0.1282976E-02 Eh
 * total energy  :  -103.3754901 Eh     change       -0.1459067E-03 Eh
 * total energy  :  -103.3756074 Eh     change       -0.1172563E-03 Eh
 * total energy  :  -103.3756509 Eh     change       -0.4350481E-04 Eh
 * total energy  :  -103.3756918 Eh     change       -0.4089487E-04 Eh
 * total energy  :  -103.3757266 Eh     change       -0.3480548E-04 Eh
 * total energy  :  -103.3757576 Eh     change       -0.3103334E-04 Eh
 * total energy  :  -103.3757884 Eh     change       -0.3075776E-04 Eh
 * total energy  :  -103.3765946 Eh     change       -0.3803945E-06 Eh
 * total energy  :  -103.3765949 Eh     change       -0.3149239E-06 Eh
 * total energy  :  -103.3765952 Eh     change       -0.2702786E-06 Eh
 * total energy  :  -103.3765956 Eh     change       -0.4366928E-06 Eh
 * total energy  :  -103.3765961 Eh     change       -0.4786281E-06 Eh
 * total energy  :  -103.3765967 Eh     change       -0.5743856E-06 Eh
 * total energy  :  -103.3765973 Eh     change       -0.6637493E-06 Eh
 * total energy  :  -103.3765980 Eh     change       -0.7170775E-06 Eh
 * total energy  :  -103.3765980 Eh     change       -0.2032266E-08 Eh
   *** GEOMETRY OPTIMIZATION CONVERGED AFTER 68 ITERATIONS ***

 final structure:
================
63
 xtb: 6.7.1 (edcfbbe)
C            3.66316942065241        1.22469665403857       -3.38130509783192
C            2.31638464811945        1.34799835723423       -3.07127024460030
C            1.79066261646376        0.71579892245424       -1.96221592640025
C            2.60795383203844       -0.04652911768954       -1.12649883518398
C            3.96045701384445       -0.20595059405037       -1.47871357117925
C            4.48037995215395        0.43425676227244       -2.59373348670868
O            4.80638591388328       -1.00247591777719       -0.76409205703832
C            4.29803306058294       -1.67433115532258        0.30839687444238
C            5.16092020689792       -2.50566803932206        1.00706526135506
C            4.71392602811492       -3.18394855847334        2.12714216489705
C            3.40796600764142       -3.01183235898444        2.56334029422863
C            2.54166182200999       -2.18492674633287        1.87541528160705
C            2.96075295010441       -1.52245084919671        0.71951158379137
N            2.11950899655597       -0.67924093465794        0.00918169102043
C            0.77712969737702       -0.51736429972805        0.40461226342080
C           -0.04350870090321       -1.69218461162754        0.28363217712841
C           -1.42288004846209       -1.65868036014918        0.43609702943926
C           -2.46918216045635       -2.60479422975830        0.02887050688976
C           -2.15804134313551       -3.94324012122528       -0.19228629120175
C           -3.10889584812098       -4.85735854402211       -0.61147281944537
C           -4.41203964409388       -4.43878592618904       -0.82740331866268
C           -4.75419323648904       -3.11775662112549       -0.61717957948385
C           -3.82167749610614       -2.16889273207202       -0.18624455856114
C           -4.20889275364558       -0.77919165769686        0.00418709122608
C           -5.26615753785491       -0.01865622076840       -0.52445997768610
C           -5.27978675152951        1.37968930968498       -0.51575403644022
C           -4.19240176059041        2.15644834351464       -0.01210763109769
C           -3.79881547528218        3.50840393991480       -0.24621114065842
C           -2.50724884729598        3.95812337616971       -0.00558363260705
C           -1.48599031206998        3.12614951086197        0.51104013057653
C           -0.04270053201078        3.26291509624387        0.53797820072538
C            0.56099004654958        4.52098833203599        0.42024966359064
C            1.92560731013587        4.68807208946193        0.48631000261687
C            2.74501077448788        3.58721754270966        0.69907912579957
C            2.18686987362896        2.32883404957614        0.79337655564592
C            0.81278951876792        2.11412395561493        0.68543721999331
C            0.24930466297406        0.75943531996359        0.72432000273571
C           -1.10327199927419        0.73702606580843        1.00644323161496
C           -1.93266657048106        1.86562093383628        0.90498944825803
C           -3.23767928910568        1.40659785775427        0.65470855864894
C           -3.23234074461081       -0.01078984359667        0.65892306989284
C           -1.92419290898965       -0.42613065579617        0.86083634913516
H            4.07254543411280        1.72616444211673       -4.24358378909891
H            1.66659480376806        1.93792783296547       -3.69827828439078
H            0.73961696438183        0.80245314248567       -1.74010626114455
H            5.52445051787089        0.29403763075077       -2.82356222530161
H            6.17657076002756       -2.59819890314795        0.65725044348674
H            5.38846066092640       -3.82975737474016        2.66622387671019
H            3.06247847896408       -3.51656056111020        3.45181507434814
H            1.53439336683206       -2.03729373101188        2.23028039223930
H            0.45029009243328       -2.57565703063741       -0.09561500291575
H           -1.14471734572854       -4.27667551114561       -0.01995278655409
H           -2.83415751447611       -5.89016163917408       -0.76896366882714
H           -5.16251613193266       -5.14400439751935       -1.15505127144790
H           -5.77596865863599       -2.80263814138102       -0.77239111877223
H           -6.07829274613913       -0.51535786093188       -1.03927970269033
H           -6.10644634653555        1.88426393918730       -0.99823308645450
H           -4.49984523938755        4.18517548701106       -0.71695063304391
H           -2.26749154460088        4.96885130075555       -0.30956346830535
H           -0.07615604865406        5.38540662067891        0.30063546777045
H            2.35571478262751        5.67549919737043        0.39796507703875
H            3.81375647524225        3.71266766792522        0.79382868361937
H            2.83681605488313        1.48991999096292        0.99388380966335

          :  Hamiltonian                  GFN2-xTB          :
         :: gradient norm              0.000043707880 Eh/a0 ::
         :: HOMO-LUMO gap              0.500190059134 eV    ::
         :: SCC energy              -105.287184288968 Eh    ::
         :: -> dispersion             -0.101675362063 Eh    ::
         :: -> Gsolv                  -0.041098131889 Eh    ::
         :: repulsion energy           1.910586246926 Eh    ::

    * Orbital Energies and Occupations

         #    Occupation            Energy/Eh            Energy/eV
      -------------------------------------------------------------
         1        2.0000           -0.7581016             -20.6290
       ...           ...                  ...                  ...
        85        2.0000           -0.4116266             -11.2009
        86        2.0000           -0.4083927             -11.1129
        87        2.0000           -0.4048860             -11.0175
        88        2.0000           -0.4007545             -10.9051
        89        2.0000           -0.3983888             -10.8407
        90        2.0000           -0.3977294             -10.8228
        91        2.0000           -0.3967901             -10.7972
        92        2.0000           -0.3803331             -10.3494
        93        2.0000           -0.3734636             -10.1625
        94        2.0000           -0.3708527             -10.0914
        95        1.9879           -0.3645607              -9.9202
        96        1.0121           -0.3561933              -9.6925
        97        0.9999           -0.2789540              -7.5907 (HOMO)
        98        0.0001           -0.2605730              -7.0906 (LUMO)
        99        0.0000           -0.2587125              -7.0399
       100                         -0.2478283              -6.7438
       101                         -0.2415838              -6.5738
       102                         -0.2350339              -6.3956
       103                         -0.2256069              -6.1391
       104                         -0.2195577              -5.9745
       105                         -0.2148462              -5.8463
       106                         -0.2008117              -5.4644
       107                         -0.1938428              -5.2747
       108                         -0.1844698              -5.0197
       ...                                ...                  ...
       189                          0.7378245              20.0772
      -------------------------------------------------------------
                  HL-Gap            0.0183810 Eh            0.5002 eV

     #   Z          covCN         q      C6AA      α(0)
     1   6 C        2.919    -0.027    28.668     8.780
     2   6 C        2.918    -0.029    28.715     8.787
     3   6 C        2.921    -0.043    29.072     8.842
     4   6 C        2.926     0.048    26.913     8.508
     5   6 C        2.887     0.132    25.108     8.215
     6   6 C        2.917    -0.051    29.271     8.872
     7   8 O        1.710    -0.223    17.701     5.680
     8   6 C        2.886     0.132    25.119     8.217
     9   6 C        2.916    -0.051    29.269     8.872
    10   6 C        2.919    -0.027    28.677     8.782
    11   6 C        2.918    -0.029    28.724     8.789
    12   6 C        2.921    -0.047    29.159     8.855
    13   6 C        2.927     0.046    26.977     8.518
    14   7 N        2.753    -0.007    21.396     6.870
    15   6 C        2.932     0.027    27.389     8.583
    16   6 C        2.930    -0.060    29.488     8.905
    17   6 C        2.965     0.002    27.983     8.677
    18   6 C        2.982     0.002    27.985     8.678
    19   6 C        2.920    -0.036    28.897     8.815
    20   6 C        2.916    -0.037    28.915     8.818
    21   6 C        2.915    -0.033    28.814     8.802
    22   6 C        2.921    -0.037    28.932     8.821
    23   6 C        2.982     0.005    27.904     8.665
    24   6 C        2.966    -0.009    28.235     8.716
    25   6 C        2.922    -0.040    28.994     8.830
    26   6 C        2.922    -0.048    29.198     8.861
    27   6 C        2.966     0.004    27.931     8.669
    28   6 C        2.922    -0.056    29.379     8.889
    29   6 C        2.923    -0.041    29.010     8.833
    30   6 C        2.968    -0.015    28.385     8.739
    31   6 C        2.985     0.004    27.935     8.670
    32   6 C        2.921    -0.039    28.965     8.826
    33   6 C        2.915    -0.034    28.841     8.806
    34   6 C        2.916    -0.041    29.015     8.833
    35   6 C        2.920    -0.038    28.950     8.823
    36   6 C        2.984    -0.001    28.046     8.687
    37   6 C        2.965    -0.009    28.249     8.718
    38   6 C        3.152    -0.013    28.057     8.663
    39   6 C        3.125    -0.028    28.516     8.745
    40   6 C        3.170    -0.008    27.836     8.619
    41   6 C        3.126    -0.021    28.332     8.716
    42   6 C        3.144    -0.017    28.186     8.687
    43   1 H        0.926     0.062     2.180     2.309
    44   1 H        0.926     0.056     2.247     2.344
    45   1 H        0.926     0.053     2.287     2.365
    46   1 H        0.926     0.068     2.108     2.270
    47   1 H        0.926     0.066     2.125     2.280
    48   1 H        0.926     0.061     2.184     2.311
    49   1 H        0.926     0.059     2.209     2.324
    50   1 H        0.926     0.062     2.176     2.307
    51   1 H        0.926     0.029     2.605     2.524
    52   1 H        0.926     0.032     2.562     2.503
    53   1 H        0.926     0.028     2.610     2.527
    54   1 H        0.926     0.028     2.619     2.531
    55   1 H        0.926     0.029     2.607     2.525
    56   1 H        0.925     0.020     2.737     2.587
    57   1 H        0.925     0.018     2.763     2.599
    58   1 H        0.925     0.014     2.827     2.629
    59   1 H        0.925     0.017     2.786     2.610
    60   1 H        0.926     0.027     2.624     2.533
    61   1 H        0.926     0.026     2.648     2.545
    62   1 H        0.926     0.023     2.681     2.560
    63   1 H        0.926     0.016     2.787     2.611

molecular dipole:
                 x           y           z       tot (Debye)
 q only:        3.129      -1.397      -0.395
   full:        3.026      -1.322      -0.606       8.534

 projected vibrational frequencies (cm⁻¹)
eigval :       -0.00    -0.00    -0.00     0.00     0.00     0.00
eigval :       22.48    24.99    29.79    47.86    61.12    78.06
eigval :       97.31   102.30   113.00   121.32   142.56   155.19
eigval :      169.00   176.14   200.98   233.81   240.76   247.93
eigval :      268.06   272.62   288.57   293.38   310.16   319.86
eigval :      324.22   342.03   370.75   389.02   392.74   400.15
eigval :      423.18   430.42   437.48   438.64   455.93   460.83
eigval :      475.49   480.59   491.45   496.48   500.35   534.81
eigval :      537.64   540.54   548.60   551.99   562.02   567.08
eigval :      573.45   579.21   593.77   608.57   613.24   627.48
eigval :      638.89   657.56   662.88   669.59   674.46   675.73
eigval :      685.52   693.88   703.39   723.03   726.14   755.31
eigval :      763.13   768.09   774.35   775.60   778.96   787.33
eigval :      796.04   800.27   809.41   826.89   856.52   866.63
eigval :      868.68   870.50   871.04   873.58   891.25   902.17
eigval :      904.55   906.79   907.21   909.25   911.57   918.14
eigval :      918.20   919.08   919.94   921.66   944.99  1015.50
eigval :     1042.66  1074.45  1082.30  1083.21  1095.68  1095.83
eigval :     1100.63  1112.95  1115.36  1129.41  1145.45  1153.37
eigval :     1160.80  1170.51  1172.68  1177.30  1178.67  1181.60
eigval :     1196.02  1206.94  1209.89  1211.33  1228.26  1236.70
eigval :     1247.66  1250.77  1257.73  1266.53  1272.28  1278.44
eigval :     1280.73  1293.76  1299.84  1301.89  1305.67  1317.79
eigval :     1319.84  1339.60  1348.15  1368.10  1369.82  1381.34
eigval :     1410.88  1412.11  1414.59  1427.14  1428.86  1430.34
eigval :     1431.94  1437.28  1447.30  1466.22  1473.12  1492.90
eigval :     1526.30  1534.42  1535.84  1548.94  1550.75  1559.24
eigval :     1562.48  1568.88  1575.26  1582.46  1587.18  1602.43
eigval :     3045.46  3047.86  3057.91  3061.52  3066.05  3066.59
eigval :     3070.41  3072.50  3072.97  3079.22  3081.15  3086.92
eigval :     3088.81  3098.33  3098.45  3105.33  3105.74  3113.54
eigval :     3114.19  3116.77  3119.00

   temp. (K)  partition function   enthalpy   heat capacity  entropy
                                   cal/mol     cal/K/mol   cal/K/mol   J/K/mol
 298.15  VIB  0.342E+11            16549.224    115.756     97.021
         ROT  0.369E+08              888.752      2.981     37.606
         INT  0.126E+19            17437.976    118.737    134.627
         TR   0.119E+29             1481.254      4.968     44.678
         TOT                       18919.2298   123.7051   179.3047   750.2108

       T/K    H(0)-H(T)+PV         H(T)/Eh          T*S/Eh         G(T)/Eh
   ------------------------------------------------------------------------
    298.15    0.301497E-01    0.496825E+00    0.851934E-01    0.411631E+00
   ------------------------------------------------------------------------

         :::::::::::::::::::::::::::::::::::::::::::::::::::::
         ::                  THERMODYNAMIC                  ::
         :::::::::::::::::::::::::::::::::::::::::::::::::::::
         :: total free energy        -102.964966866118 Eh   ::
         ::.................................................::
         :: total energy             -103.376598033456 Eh   ::
         :: zero point energy           0.466674896927 Eh   ::
         :: G(RRHO) w/o ZPVE           -0.055043729589 Eh   ::
         :: G(RRHO) contrib.            0.411631167337 Eh   ::
         :::::::::::::::::::::::::::::::::::::::::::::::::::::

           -------------------------------------------------
          | TOTAL ENERGY             -103.376598033456 Eh   |
          | TOTAL ENTHALPY           -102.879773424688 Eh   |
          | TOTAL FREE ENERGY        -102.964966866118 Eh   |
          | GRADIENT NORM               0.000043559902 Eh/α |
          | HOMO-LUMO GAP               0.500171572855 eV   |
           -------------------------------------------------

 * finished run on 2025/08/21 at 17:23:50.429
