   * xtb version 6.7.1 (edcfbbe) compiled by 'albert@albert-system' on 2024-07-22

   ID    Z sym.   atoms
    1    6 C      1-6, 8-13, 15-42
    2    8 O      7
    3    7 N      14
    4    1 H      43-63

          program call               : xtb data2507/toluene/DBCP/DBCP.xyz --gfn 2 --gbsa toluene --ohess vtight --parallel 40 --molden --ceasefiles --namespace data2507/toluene/DBCP/DBCP_toluene_S0_preOpt
      * Solvation model:               GBSA
        Solvent                        toluene
        Solvent mass                       9.2140E+01 g/mol
          :  Hamiltonian                  GFN2-xTB          :
 * total energy  :  -103.4094127 Eh     change       -0.2248896E-08 Eh
 * total energy  :  -103.4338128 Eh     change       -0.2440010E-01 Eh
 * total energy  :  -103.4385055 Eh     change       -0.4692702E-02 Eh
 * total energy  :  -103.4392189 Eh     change       -0.7133895E-03 Eh
 * total energy  :  -103.4395777 Eh     change       -0.3587724E-03 Eh
 * total energy  :  -103.4396735 Eh     change       -0.9578550E-04 Eh
 * total energy  :  -103.4397116 Eh     change       -0.3816476E-04 Eh
 * total energy  :  -103.4397262 Eh     change       -0.1456694E-04 Eh
 * total energy  :  -103.4397289 Eh     change       -0.2717729E-05 Eh
 * total energy  :  -103.4397299 Eh     change       -0.1010503E-05 Eh
 * total energy  :  -103.4510257 Eh     change       -0.1197215E-05 Eh
 * total energy  :  -103.4510269 Eh     change       -0.1141736E-05 Eh
 * total energy  :  -103.4510280 Eh     change       -0.1154686E-05 Eh
 * total energy  :  -103.4510293 Eh     change       -0.1278963E-05 Eh
 * total energy  :  -103.4510308 Eh     change       -0.1443750E-05 Eh
 * total energy  :  -103.4510323 Eh     change       -0.1572495E-05 Eh
 * total energy  :  -103.4510340 Eh     change       -0.1641795E-05 Eh
 * total energy  :  -103.4510356 Eh     change       -0.1644555E-05 Eh
 * total energy  :  -103.4510356 Eh     change       -0.7606488E-08 Eh
   *** GEOMETRY OPTIMIZATION CONVERGED AFTER 122 ITERATIONS ***

 final structure:
================
63
 xtb: 6.7.1 (edcfbbe)
C            3.60681351100020       -0.95293994614863       -3.57749542347801
C            2.28333696339694       -0.62097386636030       -3.37140357952957
C            1.77100283745940       -0.54855711141767       -2.08440359361879
C            2.57944568095676       -0.80797339061110       -0.98586139666484
C            3.92355558114251       -1.14020853669605       -1.20395176208918
C            4.42801859694131       -1.21247650821579       -2.48767270108276
O            4.79462987564603       -1.40564879095016       -0.16847947171356
C            4.29405910670193       -1.33266798240169        1.11413306519929
C            5.16796529162512       -1.59330606285292        2.15163403306531
C            4.72879855819380       -1.53250505083599        3.46826121416055
C            3.41433987363963       -1.20852113484443        3.73633253950745
C            2.53208534008424       -0.94617490215214        2.69849948129390
C            2.95675990995691       -1.00619723032365        1.37760744777812
N            2.09687709966971       -0.73599533662710        0.31722211135581
C            0.71863153399432       -0.47527188517679        0.56220377563585
C           -0.12547980837953       -1.57962722057968        0.56316315363529
C           -1.53416292719552       -1.47267404780003        0.67431319474678
C           -2.59520196514952       -2.42127451674588        0.35468394378167
C           -2.32653304708330       -3.79017435299315        0.27441781013576
C           -3.30358156959100       -4.70311880501338       -0.05705308889620
C           -4.59381361116758       -4.26599821871029       -0.33186473669515
C           -4.89079481642124       -2.92221324790847       -0.27095046767382
C           -3.92740920694412       -1.96910470510055        0.07169568886644
C           -4.25994971504337       -0.54904461046003        0.09945071704715
C           -5.32355839072679        0.17553558647960       -0.52082444498196
C           -5.28685870427385        1.54139187796538       -0.70177992391450
C           -4.17275766724773        2.33525731266571       -0.29063718309884
C           -3.71993036014554        3.61849786816925       -0.72464420422566
C           -2.41550218811810        4.03131829676116       -0.56015424685826
C           -1.42175250010624        3.21761500240131        0.06553114763226
C            0.03348801212470        3.30021248309001        0.05099737777598
C            0.66633227674435        4.49834349754162       -0.29098507064226
C            2.03803339770529        4.61772173893517       -0.31183035638491
C            2.82622649686419        3.52402493864159        0.02083882917939
C            2.23552598110647        2.32402886491542        0.35198819292577
C            0.84727763031353        2.15926738589886        0.36804353441187
C            0.23617790646253        0.86638329904078        0.67448139780977
C           -1.11898301617482        0.92792432497758        0.92652197649679
C           -1.91474892475376        2.07219084967036        0.64144220029527
C           -3.24512449779460        1.64392481208385        0.47079332930984
C           -3.29071507100889        0.24976587159387        0.65798035097025
C           -1.96885419283685       -0.19213602948763        0.93514521802834
H            4.01071743935506       -1.01244062234250       -4.57600690160568
H            1.63463000012264       -0.41491358631082       -4.20913169462068
H            0.73550394007300       -0.28702406923945       -1.92820592854702
H            5.46681845437313       -1.47378383781027       -2.61693056179080
H            6.18993243219225       -1.84220901908840        1.91137732883037
H            5.41967061621884       -1.73745741083780        4.27101381631392
H            3.06190094373131       -1.15542278408987        4.75509135736308
H            1.50524750343490       -0.68971862001524        2.90993190387837
H            0.33376391736357       -2.54072580695528        0.37652987535185
H           -1.32808093935559       -4.13675149268357        0.49703762344270
H           -3.06749598603094       -5.75631027142464       -0.10053712404433
H           -5.36341878169652       -4.97887993721891       -0.58936043305490
H           -5.89830464037769       -2.59139267741414       -0.47508861457171
H           -6.15609722057594       -0.36816033158851       -0.94436258160321
H           -6.08922509001727        2.01173760079158       -1.25382407637415
H           -4.39738902389286        4.25277195183078       -1.28010975745171
H           -2.12537881764129        4.97578613924392       -0.99808305270098
H            0.05534442066119        5.35782426171855       -0.52334621369859
H            2.49761304247438        5.55968261422459       -0.57282649225693
H            3.90292363103992        3.61108771013352        0.02692475753350
H            2.86765587698200        1.49767566865954        0.63252069009429

          :  Hamiltonian                  GFN2-xTB          :
         :: gradient norm              0.000070717871 Eh/a0 ::
         :: HOMO-LUMO gap              1.507995360050 eV    ::
         :: SCC energy              -105.377373438693 Eh    ::
         :: -> dispersion             -0.100082951721 Eh    ::
         :: -> Gsolv                  -0.039156780347 Eh    ::
         :: repulsion energy           1.926337812990 Eh    ::

    * Orbital Energies and Occupations

         #    Occupation            Energy/Eh            Energy/eV
      -------------------------------------------------------------
         1        2.0000           -0.7281211             -19.8132
       ...           ...                  ...                  ...
        84        2.0000           -0.4169413             -11.3456
        85        2.0000           -0.4147320             -11.2854
        86        2.0000           -0.4129005             -11.2356
        87        2.0000           -0.4119795             -11.2105
        88        2.0000           -0.4109520             -11.1826
        89        2.0000           -0.4101594             -11.1610
        90        2.0000           -0.4097044             -11.1486
        91        2.0000           -0.3900014             -10.6125
        92        2.0000           -0.3895850             -10.6011
        93        2.0000           -0.3876644             -10.5489
        94        2.0000           -0.3841717             -10.4538
        95        2.0000           -0.3805284             -10.3547
        96        2.0000           -0.3416012              -9.2954 (HOMO)
        97                         -0.2861834              -7.7874 (LUMO)
        98                         -0.2723309              -7.4105
        99                         -0.2538524              -6.9077
       100                         -0.2371945              -6.4544
       101                         -0.2339437              -6.3659
       102                         -0.2289317              -6.2295
       103                         -0.2280172              -6.2047
       104                         -0.2146171              -5.8400
       105                         -0.2131774              -5.8009
       106                         -0.2088803              -5.6839
       107                         -0.1980374              -5.3889
       ...                                ...                  ...
       189                          0.7375490              20.0697
      -------------------------------------------------------------
                  HL-Gap            0.0554178 Eh            1.5080 eV

     #   Z          covCN         q      C6AA      α(0)
     1   6 C        2.919    -0.043    29.072     8.842
     2   6 C        2.919    -0.040    28.985     8.829
     3   6 C        2.923    -0.060    29.495     8.906
     4   6 C        2.923     0.046    26.960     8.515
     5   6 C        2.880     0.120    25.350     8.254
     6   6 C        2.919    -0.059    29.472     8.903
     7   8 O        1.708    -0.278    18.618     5.826
     8   6 C        2.880     0.120    25.362     8.256
     9   6 C        2.919    -0.059    29.472     8.902
    10   6 C        2.919    -0.043    29.070     8.841
    11   6 C        2.919    -0.039    28.980     8.828
    12   6 C        2.923    -0.061    29.514     8.909
    13   6 C        2.924     0.046    26.975     8.517
    14   7 N        2.754    -0.081    22.817     7.094
    15   6 C        2.929     0.057    26.713     8.476
    16   6 C        2.935    -0.045    29.118     8.850
    17   6 C        2.970     0.005    27.915     8.666
    18   6 C        2.984     0.007    27.848     8.656
    19   6 C        2.920    -0.033    28.814     8.803
    20   6 C        2.916    -0.030    28.748     8.792
    21   6 C        2.916    -0.030    28.748     8.792
    22   6 C        2.920    -0.033    28.816     8.803
    23   6 C        2.985     0.008    27.845     8.656
    24   6 C        2.970     0.007    27.861     8.658
    25   6 C        2.924    -0.034    28.855     8.809
    26   6 C        2.922    -0.034    28.839     8.807
    27   6 C        2.970     0.010    27.794     8.648
    28   6 C        2.922    -0.033    28.833     8.806
    29   6 C        2.924    -0.034    28.857     8.809
    30   6 C        2.970     0.007    27.854     8.657
    31   6 C        2.987     0.007    27.853     8.657
    32   6 C        2.921    -0.033    28.818     8.803
    33   6 C        2.916    -0.030    28.742     8.791
    34   6 C        2.916    -0.030    28.758     8.794
    35   6 C        2.920    -0.033    28.818     8.803
    36   6 C        2.983     0.010    27.796     8.648
    37   6 C        2.967    -0.006    28.168     8.705
    38   6 C        3.132    -0.009    28.033     8.668
    39   6 C        3.137    -0.007    27.966     8.655
    40   6 C        3.142    -0.010    28.023     8.662
    41   6 C        3.132    -0.007    27.981     8.659
    42   6 C        3.140    -0.011    28.037     8.665
    43   1 H        0.926     0.040     2.452     2.449
    44   1 H        0.926     0.038     2.482     2.463
    45   1 H        0.926     0.030     2.592     2.518
    46   1 H        0.926     0.046     2.376     2.411
    47   1 H        0.926     0.045     2.387     2.416
    48   1 H        0.926     0.039     2.456     2.451
    49   1 H        0.926     0.039     2.462     2.454
    50   1 H        0.926     0.036     2.507     2.476
    51   1 H        0.925     0.039     2.461     2.453
    52   1 H        0.926     0.037     2.493     2.469
    53   1 H        0.926     0.035     2.511     2.478
    54   1 H        0.926     0.036     2.501     2.473
    55   1 H        0.926     0.040     2.452     2.448
    56   1 H        0.926     0.039     2.462     2.453
    57   1 H        0.925     0.039     2.459     2.452
    58   1 H        0.925     0.039     2.456     2.451
    59   1 H        0.926     0.039     2.461     2.453
    60   1 H        0.926     0.041     2.434     2.440
    61   1 H        0.926     0.036     2.497     2.471
    62   1 H        0.926     0.032     2.554     2.499
    63   1 H        0.926     0.031     2.573     2.508

molecular dipole:
                 x           y           z       tot (Debye)
 q only:       -1.328       0.336      -0.189
   full:       -1.277       0.286      -0.352       3.444

 projected vibrational frequencies (cm⁻¹)
eigval :       -0.00    -0.00     0.00     0.00     0.00     0.00
eigval :       10.45    17.86    22.01    41.33    45.07    75.76
eigval :       94.74   101.21   110.97   111.58   140.16   144.93
eigval :      168.91   173.03   194.40   238.90   240.87   251.53
eigval :      263.51   271.98   288.50   301.92   312.00   324.66
eigval :      332.38   344.91   374.75   392.66   400.55   412.72
eigval :      423.80   425.69   427.04   433.35   452.48   460.14
eigval :      482.33   484.32   493.99   504.97   511.74   521.85
eigval :      541.92   553.05   554.26   564.83   569.57   579.51
eigval :      584.20   591.59   610.27   619.88   628.96   641.39
eigval :      658.08   659.42   659.72   666.12   670.52   678.45
eigval :      695.66   697.98   714.13   743.13   745.88   760.36
eigval :      772.05   774.05   775.25   776.24   785.89   796.88
eigval :      812.71   826.55   828.98   849.75   851.78   854.68
eigval :      858.31   873.29   877.03   889.56   895.50   904.67
eigval :      910.47   912.19   912.74   913.55   914.99   915.44
eigval :      916.08   924.48   926.00   927.36   962.88  1017.10
eigval :     1049.65  1071.25  1086.60  1088.25  1093.87  1097.35
eigval :     1101.97  1103.98  1118.40  1155.91  1160.09  1162.10
eigval :     1172.94  1175.03  1178.40  1178.73  1182.58  1192.29
eigval :     1195.26  1205.33  1220.44  1240.00  1240.74  1250.98
eigval :     1257.55  1258.82  1263.58  1273.83  1278.15  1291.60
eigval :     1299.78  1305.94  1306.48  1306.99  1319.51  1339.14
eigval :     1351.49  1362.04  1365.81  1389.76  1404.49  1411.82
eigval :     1416.83  1422.95  1424.45  1436.99  1439.47  1443.88
eigval :     1448.53  1458.43  1466.73  1484.01  1504.16  1536.85
eigval :     1538.38  1565.45  1579.72  1585.62  1588.22  1590.14
eigval :     1592.84  1593.30  1603.37  1608.63  1611.35  1632.06
eigval :     3061.99  3063.56  3071.42  3072.74  3073.54  3075.76
eigval :     3077.36  3079.26  3081.54  3084.19  3084.92  3086.65
eigval :     3091.52  3092.14  3092.26  3093.12  3097.57  3098.66
eigval :     3105.85  3106.71  3123.68

   temp. (K)  partition function   enthalpy   heat capacity  entropy
                                   cal/mol     cal/K/mol   cal/K/mol   J/K/mol
 298.15  VIB  0.211E+12            16505.634    113.985     98.007
         ROT  0.372E+08              888.752      2.981     37.622
         INT  0.785E+19            17394.387    116.965    135.628
         TR   0.119E+29             1481.254      4.968     44.678
         TOT                       18875.6406   121.9336   180.3062   754.4011

       T/K    H(0)-H(T)+PV         H(T)/Eh          T*S/Eh         G(T)/Eh
   ------------------------------------------------------------------------
    298.15    0.300802E-01    0.499991E+00    0.856693E-01    0.414322E+00
   ------------------------------------------------------------------------

         :::::::::::::::::::::::::::::::::::::::::::::::::::::
         ::                  THERMODYNAMIC                  ::
         :::::::::::::::::::::::::::::::::::::::::::::::::::::
         :: total free energy        -103.036713809084 Eh   ::
         ::.................................................::
         :: total energy             -103.451035623034 Eh   ::
         :: zero point energy           0.469910852151 Eh   ::
         :: G(RRHO) w/o ZPVE           -0.055589038201 Eh   ::
         :: G(RRHO) contrib.            0.414321813949 Eh   ::
         :::::::::::::::::::::::::::::::::::::::::::::::::::::

           -------------------------------------------------
          | TOTAL ENERGY             -103.451035623034 Eh   |
          | TOTAL ENTHALPY           -102.951044522852 Eh   |
          | TOTAL FREE ENERGY        -103.036713809084 Eh   |
          | GRADIENT NORM               0.000070717043 Eh/α |
          | HOMO-LUMO GAP               1.507995768697 eV   |
           -------------------------------------------------

 * finished run on 2025/08/21 at 17:20:58.977
