   * xtb version 6.7.1 (edcfbbe) compiled by 'albert@albert-system' on 2024-07-22

   ID    Z sym.   atoms
    1    6 C      1-6, 8-13, 15-42
    2    8 O      7
    3    7 N      14
    4    1 H      43-63

          program call               : xtb data2507/toluene/DBCP/DBCP_toluene_T1_crest.xyz --gfn 2 --uhf 2 --gbsa toluene --ohess vtight --parallel 40 --molden --ceasefiles --namespace data2507/toluene/DBCP/DBCP_toluene_T1_finalOpt
      * Solvation model:               GBSA
        Solvent                        toluene
        Solvent mass                       9.2140E+01 g/mol
          :  Hamiltonian                  GFN2-xTB          :
 * total energy  :  -103.3765242 Eh     change       -0.4647831E-08 Eh
 * total energy  :  -103.3765640 Eh     change       -0.3978886E-04 Eh
 * total energy  :  -103.3765824 Eh     change       -0.1846386E-04 Eh
 * total energy  :  -103.3765930 Eh     change       -0.1055836E-04 Eh
 * total energy  :  -103.3766034 Eh     change       -0.1036351E-04 Eh
 * total energy  :  -103.3766102 Eh     change       -0.6877975E-05 Eh
 * total energy  :  -103.3766138 Eh     change       -0.3604944E-05 Eh
 * total energy  :  -103.3766168 Eh     change       -0.2931307E-05 Eh
 * total energy  :  -103.3766197 Eh     change       -0.2875846E-05 Eh
 * total energy  :  -103.3766220 Eh     change       -0.2316013E-05 Eh
 * total energy  :  -103.3766236 Eh     change       -0.1667943E-05 Eh
 * total energy  :  -103.3766249 Eh     change       -0.1292536E-05 Eh
 * total energy  :  -103.3766260 Eh     change       -0.1063788E-05 Eh
 * total energy  :  -103.3766270 Eh     change       -0.1054840E-05 Eh
 * total energy  :  -103.3766282 Eh     change       -0.1103876E-05 Eh
 * total energy  :  -103.3766291 Eh     change       -0.9893900E-06 Eh
 * total energy  :  -103.3766298 Eh     change       -0.6564263E-06 Eh
 * total energy  :  -103.3766301 Eh     change       -0.2853306E-06 Eh
 * total energy  :  -103.3766301 Eh     change       -0.3902380E-07 Eh
   *** GEOMETRY OPTIMIZATION CONVERGED AFTER 19 ITERATIONS ***

 final structure:
================
63
 xtb: 6.7.1 (edcfbbe)
C            3.74212981891374        1.42468528789671       -3.20846243293164
C            2.39191459360502        1.54493862392474       -2.91243789903173
C            1.83478619017376        0.82793708271063       -1.87248617153594
C            2.62327412844451       -0.01952767310817       -1.09277269901251
C            3.97753761041173       -0.17748864094916       -1.43863033180869
C            4.52979911192357        0.54976078643978       -2.48246300560639
O            4.79351774285580       -1.05623062682300       -0.78863297119508
C            4.25263585805776       -1.81118576176809        0.21011892356970
C            5.08286910274312       -2.73026646359579        0.83451168312679
C            4.60426839531114       -3.49542647617158        1.88326445847671
C            3.30085432006756       -3.32137812524018        2.32609548713338
C            2.46686188399286       -2.40792761842771        1.71157522506704
C            2.91568026280186       -1.65813360220509        0.62195023440779
N            2.10494488103711       -0.73347891614905       -0.01991213833908
C            0.76397965190731       -0.56804567814211        0.37649752826741
C           -0.08271456535505       -1.71263562113272        0.16962843794644
C           -1.46148425420120       -1.65930091221360        0.31878600860595
C           -2.52553671451947       -2.55403222161064       -0.15371469952173
C           -2.24195574076996       -3.88176440046922       -0.46000423680545
C           -3.21042248931433       -4.74641608456777       -0.93949353176354
C           -4.50335969587798       -4.28677354923504       -1.13203581066708
C           -4.81796286182783       -2.97464655381862       -0.83907545344480
C           -3.86721579428780       -2.07587272532482       -0.34518916040166
C           -4.22470020389013       -0.69276063275304       -0.06803656262445
C           -5.26123933033855        0.12369473499744       -0.55254662197613
C           -5.24285561437117        1.51862200493116       -0.45601950571218
C           -4.14173166039425        2.23670285233559        0.10192707018290
C           -3.71560720541316        3.59113831969217       -0.04436914272142
C           -2.41614218356644        3.99474121362417        0.23236892042641
C           -1.41855063890064        3.10919086264164        0.70422033401416
C            0.02709365344776        3.21163170399995        0.75189046580068
C            0.65971684916389        4.46048165136847        0.71754795365848
C            2.02688106458731        4.59201233507562        0.80777307462199
C            2.81912173354158        3.46188194152371        0.96243044646010
C            2.23223661182033        2.21325095536484        0.97322252647970
C            0.85532594405574        2.03697920240981        0.83569229769892
C            0.26179530174078        0.69562603066950        0.77975133896282
C           -1.09340906349710        0.68556284449858        1.04944327204252
C           -1.89670881613818        1.83706520329287        1.01530879734705
C           -3.20950395105177        1.42477907939073        0.72664464155587
C           -3.23552066175332        0.01030006792992        0.63907015562960
C           -1.93860107147746       -0.44659875718718        0.82176984939303
H            4.17697051321908        1.99452203824466       -4.01399009149653
H            1.76419263068718        2.19971762990698       -3.49604561577094
H            0.78137532962029        0.91438054030551       -1.66186484005360
H            5.57486070603530        0.40868503986688       -2.70737675307112
H            6.09872538582824       -2.82141294344400        0.48489489021134
H            5.25287941603925       -4.21037844095850        2.36368162291770
H            2.93189649198955       -3.89380819442596        3.16258787122000
H            1.46170927707409       -2.26181768393451        2.07289448501073
H            0.39297599883520       -2.57836628927669       -0.26907797954752
H           -1.23668244490448       -4.24738772267953       -0.30686399528529
H           -2.95710312258833       -5.77270029869401       -1.16216109068787
H           -5.26733901044555       -4.95316593720292       -1.50645909255397
H           -5.83201273044312       -2.62812670727282       -0.97703088055193
H           -6.08109828986787       -0.32064774472172       -1.10183357396877
H           -6.05437418053122        2.07142187733299       -0.91057971754072
H           -4.39698580035264        4.31201015578619       -0.47695976357221
H           -2.15077844021581        5.01639903570187       -0.00698754670458
H            0.04338549166988        5.34494882720391        0.64459846453725
H            2.47994085357830        5.57286381472484        0.78451802318472
H            3.88904567461058        3.55686653421708        1.07724019918766
H            2.86074841180412        1.34891512539523        1.12916436076045

          :  Hamiltonian                  GFN2-xTB          :
         :: gradient norm              0.000126441208 Eh/a0 ::
         :: HOMO-LUMO gap              0.502760406604 eV    ::
         :: SCC energy              -105.287055659934 Eh    ::
         :: -> dispersion             -0.101827694864 Eh    ::
         :: -> Gsolv                  -0.041063142033 Eh    ::
         :: repulsion energy           1.910425535947 Eh    ::

    * Orbital Energies and Occupations

         #    Occupation            Energy/Eh            Energy/eV
      -------------------------------------------------------------
         1        2.0000           -0.7580420             -20.6274
       ...           ...                  ...                  ...
        85        2.0000           -0.4116126             -11.2005
        86        2.0000           -0.4083158             -11.1108
        87        2.0000           -0.4049261             -11.0186
        88        2.0000           -0.4006766             -10.9030
        89        2.0000           -0.3984024             -10.8411
        90        2.0000           -0.3977444             -10.8232
        91        2.0000           -0.3967816             -10.7970
        92        2.0000           -0.3803855             -10.3508
        93        2.0000           -0.3734757             -10.1628
        94        2.0000           -0.3710452             -10.0967
        95        1.9893           -0.3645693              -9.9204
        96        1.0107           -0.3559602              -9.6862
        97        0.9999           -0.2790040              -7.5921 (HOMO)
        98        0.0001           -0.2605276              -7.0893 (LUMO)
        99        0.0000           -0.2587007              -7.0396
       100                         -0.2477622              -6.7420
       101                         -0.2415912              -6.5740
       102                         -0.2350840              -6.3970
       103                         -0.2255696              -6.1381
       104                         -0.2195928              -5.9754
       105                         -0.2147417              -5.8434
       106                         -0.2007330              -5.4622
       107                         -0.1938712              -5.2755
       108                         -0.1845015              -5.0205
       ...                                ...                  ...
       189                          0.7376695              20.0730
      -------------------------------------------------------------
                  HL-Gap            0.0184764 Eh            0.5028 eV

     #   Z          covCN         q      C6AA      α(0)
     1   6 C        2.919    -0.027    28.668     8.780
     2   6 C        2.918    -0.029    28.716     8.788
     3   6 C        2.921    -0.043    29.070     8.842
     4   6 C        2.926     0.048    26.916     8.508
     5   6 C        2.887     0.132    25.108     8.215
     6   6 C        2.917    -0.051    29.273     8.872
     7   8 O        1.710    -0.223    17.702     5.681
     8   6 C        2.886     0.132    25.119     8.217
     9   6 C        2.916    -0.051    29.270     8.872
    10   6 C        2.919    -0.027    28.678     8.782
    11   6 C        2.918    -0.029    28.727     8.789
    12   6 C        2.920    -0.047    29.161     8.855
    13   6 C        2.927     0.045    26.981     8.518
    14   7 N        2.753    -0.007    21.392     6.869
    15   6 C        2.932     0.028    27.388     8.583
    16   6 C        2.930    -0.060    29.487     8.905
    17   6 C        2.965     0.002    27.984     8.677
    18   6 C        2.982     0.002    27.985     8.678
    19   6 C        2.920    -0.036    28.898     8.815
    20   6 C        2.916    -0.037    28.915     8.818
    21   6 C        2.915    -0.033    28.814     8.802
    22   6 C        2.920    -0.037    28.932     8.821
    23   6 C        2.982     0.005    27.903     8.665
    24   6 C        2.966    -0.009    28.235     8.716
    25   6 C        2.922    -0.040    28.994     8.830
    26   6 C        2.922    -0.048    29.198     8.861
    27   6 C        2.966     0.004    27.931     8.669
    28   6 C        2.922    -0.056    29.380     8.889
    29   6 C        2.923    -0.041    29.011     8.833
    30   6 C        2.968    -0.015    28.385     8.739
    31   6 C        2.985     0.004    27.935     8.670
    32   6 C        2.921    -0.039    28.965     8.826
    33   6 C        2.915    -0.034    28.841     8.806
    34   6 C        2.916    -0.041    29.016     8.833
    35   6 C        2.920    -0.038    28.949     8.823
    36   6 C        2.984    -0.001    28.046     8.687
    37   6 C        2.965    -0.009    28.251     8.718
    38   6 C        3.152    -0.013    28.058     8.663
    39   6 C        3.124    -0.028    28.519     8.745
    40   6 C        3.170    -0.008    27.836     8.619
    41   6 C        3.126    -0.021    28.332     8.716
    42   6 C        3.144    -0.017    28.183     8.686
    43   1 H        0.926     0.062     2.181     2.309
    44   1 H        0.926     0.056     2.248     2.345
    45   1 H        0.926     0.053     2.286     2.365
    46   1 H        0.926     0.068     2.108     2.271
    47   1 H        0.926     0.066     2.126     2.280
    48   1 H        0.926     0.061     2.185     2.312
    49   1 H        0.926     0.059     2.210     2.325
    50   1 H        0.926     0.062     2.174     2.306
    51   1 H        0.926     0.029     2.600     2.522
    52   1 H        0.926     0.032     2.562     2.503
    53   1 H        0.926     0.028     2.610     2.526
    54   1 H        0.926     0.028     2.619     2.531
    55   1 H        0.926     0.029     2.607     2.525
    56   1 H        0.925     0.020     2.738     2.587
    57   1 H        0.925     0.018     2.763     2.599
    58   1 H        0.925     0.014     2.827     2.629
    59   1 H        0.925     0.017     2.785     2.610
    60   1 H        0.926     0.027     2.623     2.533
    61   1 H        0.926     0.026     2.648     2.545
    62   1 H        0.926     0.023     2.681     2.560
    63   1 H        0.926     0.016     2.787     2.611

molecular dipole:
                 x           y           z       tot (Debye)
 q only:        3.094      -1.439      -0.468
   full:        2.995      -1.348      -0.675       8.522

 projected vibrational frequencies (cm⁻¹)
eigval :       -0.00    -0.00     0.00     0.00     0.00     0.00
eigval :       21.38    25.00    29.91    47.95    59.31    77.45
eigval :       97.00   102.78   112.69   119.93   141.54   154.81
eigval :      168.42   176.39   201.78   234.35   240.20   245.87
eigval :      266.66   272.58   288.40   294.78   310.89   319.42
eigval :      324.01   341.31   370.92   388.16   392.62   399.82
eigval :      423.20   429.89   437.67   438.35   456.37   460.63
eigval :      475.16   480.63   491.48   495.83   500.35   534.24
eigval :      537.33   540.46   548.75   551.94   562.00   566.78
eigval :      573.15   579.56   594.19   608.24   613.08   627.75
eigval :      639.05   657.51   662.80   669.26   673.93   675.25
eigval :      685.49   693.62   702.72   723.18   725.48   755.00
eigval :      762.80   768.53   774.74   774.76   778.21   787.27
eigval :      796.81   802.86   810.62   826.78   856.41   867.16
eigval :      869.69   870.04   870.77   875.08   885.73   903.16
eigval :      905.55   906.03   906.98   909.37   911.74   915.28
eigval :      917.45   918.39   920.32   921.16   944.96  1015.74
eigval :     1042.76  1074.40  1081.62  1083.09  1095.25  1095.77
eigval :     1100.40  1114.00  1114.74  1130.56  1145.28  1153.56
eigval :     1161.33  1169.61  1173.25  1177.10  1178.63  1181.79
eigval :     1196.28  1207.03  1210.06  1211.42  1228.96  1236.88
eigval :     1247.48  1250.88  1257.40  1266.16  1272.38  1278.68
eigval :     1280.84  1293.45  1299.81  1301.92  1305.76  1317.90
eigval :     1319.71  1339.55  1348.50  1368.84  1370.22  1381.74
eigval :     1411.04  1411.96  1414.71  1427.53  1428.82  1430.47
eigval :     1431.85  1437.18  1447.56  1466.21  1473.31  1492.90
eigval :     1526.43  1534.45  1535.96  1548.79  1550.78  1558.77
eigval :     1562.39  1568.67  1575.32  1582.26  1586.92  1602.25
eigval :     3045.04  3047.52  3057.50  3061.19  3064.30  3066.26
eigval :     3068.62  3072.34  3072.44  3078.61  3080.60  3086.47
eigval :     3088.36  3097.06  3098.24  3104.66  3105.37  3112.33
eigval :     3114.22  3115.74  3119.72

   temp. (K)  partition function   enthalpy   heat capacity  entropy
                                   cal/mol     cal/K/mol   cal/K/mol   J/K/mol
 298.15  VIB  0.377E+11            16561.593    115.744     97.161
         ROT  0.369E+08              888.752      2.981     37.605
         INT  0.139E+19            17450.346    118.725    134.766
         TR   0.119E+29             1481.254      4.968     44.678
         TOT                       18931.5995   123.6933   179.4434   750.7914

       T/K    H(0)-H(T)+PV         H(T)/Eh          T*S/Eh         G(T)/Eh
   ------------------------------------------------------------------------
    298.15    0.301694E-01    0.496782E+00    0.852594E-01    0.411522E+00
   ------------------------------------------------------------------------

         :::::::::::::::::::::::::::::::::::::::::::::::::::::
         ::                  THERMODYNAMIC                  ::
         :::::::::::::::::::::::::::::::::::::::::::::::::::::
         :: total free energy        -102.965107826205 Eh   ::
         ::.................................................::
         :: total energy             -103.376630119214 Eh   ::
         :: zero point energy           0.466612238461 Eh   ::
         :: G(RRHO) w/o ZPVE           -0.055089945452 Eh   ::
         :: G(RRHO) contrib.            0.411522293009 Eh   ::
         :::::::::::::::::::::::::::::::::::::::::::::::::::::

           -------------------------------------------------
          | TOTAL ENERGY             -103.376630119214 Eh   |
          | TOTAL ENTHALPY           -102.879848456545 Eh   |
          | TOTAL FREE ENERGY        -102.965107826205 Eh   |
          | GRADIENT NORM               0.000126678587 Eh/α |
          | HOMO-LUMO GAP               0.502768328378 eV   |
           -------------------------------------------------

 * finished run on 2025/08/21 at 17:26:56.843
