   * xtb version 6.7.1 (edcfbbe) compiled by 'albert@albert-system' on 2024-07-22

   ID    Z sym.   atoms
    1    6 C      1-6, 8-13, 15-42
    2    8 O      7
    3    7 N      14
    4    1 H      43-63

          program call               : xtb data2507/toluene/DBCP/DBCP_toluene_S0_crest.xyz --gfn 2 --gbsa toluene --ohess vtight --parallel 40 --molden --ceasefiles --namespace data2507/toluene/DBCP/DBCP_toluene_S0_finalOpt
      * Solvation model:               GBSA
        Solvent                        toluene
        Solvent mass                       9.2140E+01 g/mol
          :  Hamiltonian                  GFN2-xTB          :
 * total energy  :  -103.4510446 Eh     change       -0.2198192E-08 Eh
 * total energy  :  -103.4510755 Eh     change       -0.3089885E-04 Eh
 * total energy  :  -103.4510871 Eh     change       -0.1155466E-04 Eh
 * total energy  :  -103.4510918 Eh     change       -0.4707427E-05 Eh
 * total energy  :  -103.4510976 Eh     change       -0.5823543E-05 Eh
 * total energy  :  -103.4511029 Eh     change       -0.5244481E-05 Eh
 * total energy  :  -103.4511067 Eh     change       -0.3832122E-05 Eh
 * total energy  :  -103.4511090 Eh     change       -0.2263739E-05 Eh
 * total energy  :  -103.4511110 Eh     change       -0.2001226E-05 Eh
 * total energy  :  -103.4511129 Eh     change       -0.1977010E-05 Eh
 * total energy  :  -103.4511279 Eh     change       -0.1871816E-06 Eh
 * total energy  :  -103.4511281 Eh     change       -0.1814125E-06 Eh
 * total energy  :  -103.4511283 Eh     change       -0.2002771E-06 Eh
 * total energy  :  -103.4511285 Eh     change       -0.1741902E-06 Eh
 * total energy  :  -103.4511287 Eh     change       -0.1784263E-06 Eh
 * total energy  :  -103.4511288 Eh     change       -0.1535367E-06 Eh
 * total energy  :  -103.4511290 Eh     change       -0.1541892E-06 Eh
 * total energy  :  -103.4511291 Eh     change       -0.1367510E-06 Eh
 * total energy  :  -103.4511291 Eh     change       -0.1252445E-08 Eh
   *** GEOMETRY OPTIMIZATION CONVERGED AFTER 44 ITERATIONS ***

 final structure:
================
63
 xtb: 6.7.1 (edcfbbe)
C            3.58863644462773        0.87590873910899       -3.61503901481326
C            2.25059200848877        0.99795365484017       -3.30021246349329
C            1.75691014789715        0.46705993855497       -2.11793658408762
C            2.59981124725871       -0.18623204077159       -1.22852882901141
C            3.95308232056803       -0.32266462366961       -1.56591309090300
C            4.43939105463770        0.20574210383754       -2.74598587706593
O            4.85187417404494       -0.98114473576158       -0.75493640069591
C            4.36340252820729       -1.54283268925199        0.40518935066968
C            5.25952389100178       -2.23610737385411        1.19584312783824
C            4.84149037470970       -2.81044516442085        2.38921883718380
C            3.52637733778300       -2.67736089424036        2.78605259180662
C            2.62223542787575       -1.98350105797885        1.99538323047600
C            3.02175587673056       -1.41734282392780        0.79132383650721
N            2.14034080271400       -0.70817466755530       -0.02089690423019
C            0.77260024263703       -0.57356466553898        0.34186022163347
C           -0.03761093894859       -1.68622504949037        0.13999488014099
C           -1.44048190337999       -1.66315251870086        0.32997372874963
C           -2.48196624625068       -2.57007013484236       -0.14093503770914
C           -2.17375379224878       -3.88571074292645       -0.49602083060222
C           -3.13347196124357       -4.75268358148241       -0.97089036170636
C           -4.44596634128827       -4.31950658974613       -1.11526448510877
C           -4.78211989882804       -3.02528999826238       -0.78370443209757
C           -3.83686394777214       -2.12184434189103       -0.28984224876895
C           -4.21120812743261       -0.74745117431836        0.02519089084998
C           -5.31280385913198        0.04655290249881       -0.41821801128834
C           -5.32146316799148        1.42194083605165       -0.32964861872154
C           -4.22106197506077        2.15828716310951        0.20643598309540
C           -3.81889115611395        3.51596037491645        0.02030960321777
C           -2.52417385169346        3.93519464703941        0.23760907719128
C           -1.49065281050918        3.05186208675644        0.67536667497478
C           -0.03939379091387        3.19047957985369        0.66089821693693
C            0.54916020841290        4.45424929150438        0.56570025257384
C            1.91597771228356        4.62304107206541        0.57232296802640
C            2.74406165569652        3.51485535976669        0.69246818373032
C            2.19735800579791        2.25278441710550        0.77363177874417
C            0.81651243612666        2.03994183982665        0.73700184057692
C            0.25326471486520        0.69043725707740        0.76320194988035
C           -1.09405154920724        0.64909354069879        1.05651345340945
C           -1.93252046614491        1.79863842693786        1.02452057978500
C           -3.25294517112690        1.36463713844550        0.79944166937668
C           -3.25056254526006       -0.04015962109542        0.70819441624923
C           -1.90755699883517       -0.47979841585047        0.85912275686869
H            3.97921371678875        1.29028461410760       -4.53121741249756
H            1.57560008384036        1.50734071645498       -3.97094782213036
H            0.70810112212079        0.56229695250640       -1.88250277658266
H            5.48811352478745        0.08412524589361       -2.96826370139682
H            6.28299106767658       -2.31338105740528        0.86338322915257
H            5.54912944695208       -3.35015779904301        2.99879492732688
H            3.19007215250262       -3.10974679853211        3.71608547958701
H            1.59741266639548       -1.87518251438187        2.31535080039087
H            0.43951088009582       -2.56519371003670       -0.27124751215942
H           -1.15763124009894       -4.23139544988010       -0.37468655955212
H           -2.86662764056027       -5.76780461374093       -1.22617470283204
H           -5.20209636168084       -4.99716884191361       -1.48379159998608
H           -5.80636040758499       -2.69927718712136       -0.88811074180274
H           -6.13997060567591       -0.43290236948693       -0.92231648319721
H           -6.15102815754114        1.96322460877930       -0.76389120669436
H           -4.52953053652814        4.22108730109166       -0.38901729904653
H           -2.27414739348887        4.95598622443526       -0.01453272157987
H           -0.09248345330523        5.32099883397102        0.50953622734710
H            2.34117622941244        5.61338633156865        0.50215725394044
H            3.81651725765458        3.63848282530623        0.72785087729593
H            2.85662004075414        1.40893575270906        0.89971223822749

          :  Hamiltonian                  GFN2-xTB          :
         :: gradient norm              0.000047333341 Eh/a0 ::
         :: HOMO-LUMO gap              1.523651489184 eV    ::
         :: SCC energy              -105.377425722367 Eh    ::
         :: -> dispersion             -0.100914521069 Eh    ::
         :: -> Gsolv                  -0.038868162047 Eh    ::
         :: repulsion energy           1.926296613887 Eh    ::

    * Orbital Energies and Occupations

         #    Occupation            Energy/Eh            Energy/eV
      -------------------------------------------------------------
         1        2.0000           -0.7286077             -19.8264
       ...           ...                  ...                  ...
        84        2.0000           -0.4168592             -11.3433
        85        2.0000           -0.4150163             -11.2932
        86        2.0000           -0.4133897             -11.2489
        87        2.0000           -0.4119443             -11.2096
        88        2.0000           -0.4106184             -11.1735
        89        2.0000           -0.4095852             -11.1454
        90        2.0000           -0.4088160             -11.1244
        91        2.0000           -0.3905228             -10.6267
        92        2.0000           -0.3893027             -10.5935
        93        2.0000           -0.3872557             -10.5378
        94        2.0000           -0.3836535             -10.4397
        95        2.0000           -0.3802684             -10.3476
        96        2.0000           -0.3418450              -9.3021 (HOMO)
        97                         -0.2858518              -7.7784 (LUMO)
        98                         -0.2716303              -7.3914
        99                         -0.2535136              -6.8985
       100                         -0.2375770              -6.4648
       101                         -0.2337463              -6.3606
       102                         -0.2291891              -6.2366
       103                         -0.2277057              -6.1962
       104                         -0.2153599              -5.8602
       105                         -0.2122420              -5.7754
       106                         -0.2086945              -5.6789
       107                         -0.1979718              -5.3871
       ...                                ...                  ...
       189                          0.7371801              20.0597
      -------------------------------------------------------------
                  HL-Gap            0.0559932 Eh            1.5237 eV

     #   Z          covCN         q      C6AA      α(0)
     1   6 C        2.919    -0.043    29.058     8.840
     2   6 C        2.919    -0.040    28.986     8.829
     3   6 C        2.923    -0.059    29.468     8.902
     4   6 C        2.923     0.047    26.944     8.512
     5   6 C        2.881     0.121    25.340     8.252
     6   6 C        2.919    -0.059    29.470     8.902
     7   8 O        1.708    -0.277    18.600     5.823
     8   6 C        2.880     0.120    25.358     8.255
     9   6 C        2.919    -0.059    29.467     8.902
    10   6 C        2.919    -0.043    29.066     8.841
    11   6 C        2.919    -0.039    28.981     8.828
    12   6 C        2.923    -0.061    29.525     8.911
    13   6 C        2.922     0.045    26.997     8.521
    14   7 N        2.753    -0.079    22.780     7.089
    15   6 C        2.928     0.057    26.724     8.478
    16   6 C        2.934    -0.046    29.141     8.853
    17   6 C        2.970     0.005    27.919     8.667
    18   6 C        2.985     0.007    27.852     8.657
    19   6 C        2.920    -0.033    28.818     8.803
    20   6 C        2.916    -0.030    28.752     8.793
    21   6 C        2.916    -0.030    28.752     8.793
    22   6 C        2.920    -0.033    28.819     8.803
    23   6 C        2.985     0.007    27.848     8.656
    24   6 C        2.970     0.007    27.871     8.660
    25   6 C        2.924    -0.034    28.857     8.809
    26   6 C        2.922    -0.034    28.847     8.808
    27   6 C        2.970     0.010    27.799     8.648
    28   6 C        2.922    -0.034    28.837     8.806
    29   6 C        2.924    -0.035    28.860     8.810
    30   6 C        2.970     0.007    27.859     8.658
    31   6 C        2.987     0.007    27.856     8.658
    32   6 C        2.921    -0.033    28.818     8.803
    33   6 C        2.916    -0.030    28.744     8.792
    34   6 C        2.916    -0.031    28.761     8.794
    35   6 C        2.920    -0.032    28.801     8.801
    36   6 C        2.984     0.010    27.794     8.648
    37   6 C        2.968    -0.007    28.186     8.708
    38   6 C        3.132    -0.009    28.034     8.668
    39   6 C        3.136    -0.007    27.972     8.657
    40   6 C        3.142    -0.011    28.027     8.663
    41   6 C        3.132    -0.007    27.983     8.660
    42   6 C        3.139    -0.011    28.060     8.669
    43   1 H        0.926     0.040     2.443     2.444
    44   1 H        0.926     0.038     2.480     2.463
    45   1 H        0.926     0.030     2.588     2.515
    46   1 H        0.926     0.046     2.368     2.406
    47   1 H        0.926     0.045     2.383     2.414
    48   1 H        0.926     0.040     2.454     2.450
    49   1 H        0.926     0.039     2.458     2.452
    50   1 H        0.926     0.037     2.490     2.467
    51   1 H        0.925     0.040     2.453     2.449
    52   1 H        0.926     0.037     2.492     2.469
    53   1 H        0.926     0.035     2.514     2.479
    54   1 H        0.926     0.036     2.506     2.475
    55   1 H        0.926     0.039     2.457     2.451
    56   1 H        0.926     0.039     2.467     2.456
    57   1 H        0.925     0.039     2.464     2.455
    58   1 H        0.925     0.039     2.460     2.453
    59   1 H        0.926     0.039     2.464     2.455
    60   1 H        0.926     0.041     2.435     2.440
    61   1 H        0.926     0.036     2.496     2.471
    62   1 H        0.926     0.032     2.555     2.499
    63   1 H        0.926     0.030     2.593     2.518

molecular dipole:
                 x           y           z       tot (Debye)
 q only:       -1.255       0.251      -0.085
   full:       -1.210       0.246      -0.254       3.203

 projected vibrational frequencies (cm⁻¹)
eigval :       -0.00    -0.00     0.00     0.00     0.00     0.00
eigval :       12.10    18.35    23.71    41.64    47.39    75.72
eigval :       95.15    99.98   109.34   114.29   140.38   149.29
eigval :      167.66   173.33   197.14   237.29   240.16   250.23
eigval :      263.38   273.45   290.59   300.96   312.13   323.70
eigval :      332.66   343.31   376.01   392.19   399.69   412.69
eigval :      425.14   427.37   428.88   435.64   451.31   458.45
eigval :      481.38   485.47   493.37   506.38   508.77   520.33
eigval :      540.49   553.22   554.21   563.26   570.36   579.07
eigval :      583.97   592.37   609.70   619.64   627.82   641.43
eigval :      657.80   658.38   659.69   664.21   669.32   680.27
eigval :      694.44   696.59   713.13   740.80   745.23   760.13
eigval :      773.70   776.04   776.11   778.24   786.30   799.54
eigval :      812.56   826.57   831.90   850.35   857.39   861.34
eigval :      861.61   876.91   879.08   893.76   895.39   907.62
eigval :      911.87   912.56   912.73   914.62   915.47   916.12
eigval :      917.50   924.99   925.74   928.10   963.06  1017.77
eigval :     1049.90  1071.59  1087.43  1088.81  1093.97  1097.49
eigval :     1101.78  1104.86  1118.43  1155.89  1160.93  1162.63
eigval :     1173.39  1175.67  1179.30  1180.32  1183.53  1193.31
eigval :     1195.70  1206.19  1220.16  1239.60  1242.62  1250.48
eigval :     1257.41  1258.82  1264.48  1274.30  1277.73  1291.26
eigval :     1299.54  1305.72  1305.92  1306.84  1320.15  1337.66
eigval :     1350.13  1361.91  1365.98  1389.68  1404.73  1411.57
eigval :     1417.50  1422.51  1424.87  1436.76  1439.23  1443.94
eigval :     1448.60  1458.18  1466.71  1482.73  1503.28  1536.56
eigval :     1538.48  1565.42  1579.43  1585.33  1587.85  1589.40
eigval :     1592.39  1593.03  1602.83  1608.18  1610.42  1630.93
eigval :     3061.62  3063.46  3071.81  3073.50  3074.76  3076.12
eigval :     3077.50  3079.11  3082.42  3084.57  3085.06  3086.15
eigval :     3092.40  3092.79  3092.93  3093.09  3098.77  3100.00
eigval :     3105.96  3107.25  3112.30

   temp. (K)  partition function   enthalpy   heat capacity  entropy
                                   cal/mol     cal/K/mol   cal/K/mol   J/K/mol
 298.15  VIB  0.154E+12            16487.738    114.000     97.707
         ROT  0.370E+08              888.752      2.981     37.609
         INT  0.569E+19            17376.490    116.981    135.316
         TR   0.119E+29             1481.254      4.968     44.678
         TOT                       18857.7443   121.9494   179.9939   753.0946

       T/K    H(0)-H(T)+PV         H(T)/Eh          T*S/Eh         G(T)/Eh
   ------------------------------------------------------------------------
    298.15    0.300517E-01    0.500062E+00    0.855209E-01    0.414541E+00
   ------------------------------------------------------------------------

         :::::::::::::::::::::::::::::::::::::::::::::::::::::
         ::                  THERMODYNAMIC                  ::
         :::::::::::::::::::::::::::::::::::::::::::::::::::::
         :: total free energy        -103.036587820669 Eh   ::
         ::.................................................::
         :: total energy             -103.451129098282 Eh   ::
         :: zero point energy           0.470010468019 Eh   ::
         :: G(RRHO) w/o ZPVE           -0.055469190406 Eh   ::
         :: G(RRHO) contrib.            0.414541277612 Eh   ::
         :::::::::::::::::::::::::::::::::::::::::::::::::::::

           -------------------------------------------------
          | TOTAL ENERGY             -103.451129098282 Eh   |
          | TOTAL ENTHALPY           -102.951066901871 Eh   |
          | TOTAL FREE ENERGY        -103.036587820669 Eh   |
          | GRADIENT NORM               0.000047333119 Eh/α |
          | HOMO-LUMO GAP               1.523651539363 eV   |
           -------------------------------------------------

 * finished run on 2025/08/21 at 17:23:43.926
