   * xtb version 6.7.1 (edcfbbe) compiled by 'albert@albert-system' on 2024-07-22

   ID    Z sym.   atoms
    1    6 C      1-20, 22-25, 27-34, 36-56
    2    7 N      21, 35
    3    8 O      26
    4    1 H      57-112

          program call               : xtb data2507/gas/BP-mDTC/BP-mDTC.xyz --gfn 2 --ohess vtight --parallel 40 --molden --ceasefiles --namespace data2507/gas/BP-mDTC/BP-mDTC_gas_S0_preOpt
          :  Hamiltonian                  GFN2-xTB          :
 * total energy  :  -152.0681858 Eh     change       -0.9277755E-08 Eh
 * total energy  :  -152.0843233 Eh     change       -0.1613753E-01 Eh
 * total energy  :  -152.0891825 Eh     change       -0.4859207E-02 Eh
 * total energy  :  -152.0907388 Eh     change       -0.1556215E-02 Eh
 * total energy  :  -152.0916278 Eh     change       -0.8890592E-03 Eh
 * total energy  :  -152.0919063 Eh     change       -0.2784348E-03 Eh
 * total energy  :  -152.0920514 Eh     change       -0.1451663E-03 Eh
 * total energy  :  -152.0921834 Eh     change       -0.1319649E-03 Eh
 * total energy  :  -152.0922914 Eh     change       -0.1080419E-03 Eh
 * total energy  :  -152.0923634 Eh     change       -0.7196307E-04 Eh
 * total energy  :  -152.0926808 Eh     change       -0.9900603E-06 Eh
 * total energy  :  -152.0926818 Eh     change       -0.1048370E-05 Eh
 * total energy  :  -152.0926830 Eh     change       -0.1155379E-05 Eh
 * total energy  :  -152.0926841 Eh     change       -0.1087368E-05 Eh
 * total energy  :  -152.0926851 Eh     change       -0.1037736E-05 Eh
 * total energy  :  -152.0926861 Eh     change       -0.1022430E-05 Eh
 * total energy  :  -152.0926872 Eh     change       -0.1087811E-05 Eh
 * total energy  :  -152.0926884 Eh     change       -0.1180011E-05 Eh
 * total energy  :  -152.0926884 Eh     change       -0.5734563E-08 Eh
   *** GEOMETRY OPTIMIZATION CONVERGED AFTER 68 ITERATIONS ***

 final structure:
================
112
 xtb: 6.7.1 (edcfbbe)
C            7.60784620696973        1.44528218504768       -2.65262970942017
C            7.40212555308853       -0.01173560599757       -2.21462562953400
C            8.41386508936687       -0.37219552335920       -1.11734018237234
C            7.67303652518535       -0.91352344053378       -3.42193736439881
C            5.99274685674902       -0.16916757100887       -1.66126033528959
C            5.05297916156995       -1.02936639178242       -2.23465558204593
C            3.77411290401571       -1.18223316882061       -1.72973331723044
C            3.42206361789824       -0.45813079100912       -0.60370389237928
C            4.34182801831727        0.44251438003966       -0.02531814812007
C            5.61573239506657        0.57733950758682       -0.55246015267339
C            3.66044950324027        1.07484694266300        1.07167087004646
C            4.04631886490698        2.02371008528340        2.00410413191530
C            3.15416817118789        2.44022583927133        2.98363065205349
C            3.59675041183685        3.49687698521903        3.98604576823922
C            4.80265990376099        2.96624121892522        4.77419565058441
C            3.99256699787614        4.77127854539160        3.22652091948364
C            2.49912877639295        3.86548691075829        4.98783913949883
C            1.88324678985772        1.86113467397629        3.01477051524996
C            1.47264404203377        0.91041208462727        2.09734090796279
C            2.35858662615755        0.53032722348236        1.10387155962081
N            2.22331187883050       -0.39834371084476        0.08630320453076
C            1.07845211059749       -1.14275582583915       -0.20527769562700
C            1.17950503900248       -2.51114683900297       -0.44075342149090
C            0.04047299979388       -3.24356635970440       -0.75654137524837
C            0.11193540894128       -4.69695662866934       -1.06822575214461
O           -0.63256011246680       -5.20780825546759       -1.87973208554761
C            1.13552744795006       -5.48958681685126       -0.34110016149580
C            1.70216022266034       -6.59074280375758       -0.97997835905606
C            2.64483587314521       -7.36502708788671       -0.33152107856186
C            3.01447054032338       -7.05984396676676        0.96882068499632
C            2.43572942300983       -5.98210164280415        1.62005278239950
C            1.50237089267130       -5.19541590441572        0.97056952152405
C           -1.19546136269303       -2.61299175932296       -0.83933898538156
C           -1.30702884724104       -1.25427395341695       -0.56148561738943
N           -2.55244705776525       -0.62806974813315       -0.60416491172232
C           -3.71947000063277       -1.11502610459084       -0.04031263909232
C           -3.94376407638360       -2.25327085398782        0.71805178281446
C           -5.22294899091960       -2.48115240974313        1.18328339150714
C           -6.29195431461890       -1.61101392579492        0.93220010392386
C           -7.66861882796327       -1.96280897470016        1.47675652758990
C           -8.72780742282112       -0.91708098574684        1.11744083420374
C           -8.11129154752588       -3.30972564528944        0.88783748714375
C           -7.59755228414918       -2.06190213101916        3.00714029656537
C           -6.04804377543637       -0.45938869020706        0.20260859545959
C           -4.77029114829682       -0.20610871582901       -0.27849479896044
C           -4.20754941524985        0.88207951649992       -1.02994013500107
C           -4.75289228850720        2.04540531437451       -1.55642464146986
C           -3.95028638506301        2.91833010075076       -2.27189598330355
C           -4.47449564463470        4.21866060869798       -2.86346850421446
C           -3.68524860078084        5.39402922705952       -2.26937952925179
C           -5.95886463670025        4.44478760849124       -2.56334923593205
C           -4.29606790668818        4.18929293507720       -4.38788094126053
C           -2.60399505793264        2.58165926120080       -2.46393408899632
C           -2.03658720285331        1.43197849909287       -1.95261678370066
C           -2.84096622423670        0.58379962406950       -1.20771854859166
C           -0.16572731835158       -0.52075803439852       -0.24912663528611
H            7.49200118401778        2.13019254957459       -1.81728643048271
H            8.60619625682582        1.57632647321698       -3.06496182113980
H            6.88058766672001        1.71385469201684       -3.41609300302718
H            8.25962493977531       -1.39734080883733       -0.78670974488706
H            8.31454222021720        0.28139082896265       -0.25530916374295
H            9.42910227583764       -0.28107927629030       -1.49800500483249
H            7.55457326088907       -1.96285086237437       -3.16152845781776
H            8.69646265736817       -0.76541741185300       -3.76116071769812
H            7.00878308912518       -0.67291336583262       -4.24871145905063
H            5.31176269456090       -1.60337961621673       -3.10881562211612
H            3.07351667123105       -1.84195698491603       -2.21940074339585
H            6.30031286108187        1.27177869125968       -0.09032961556366
H            5.04648041261996        2.42580731900884        1.95513204797022
H            4.53475023430101        2.05200954933623        5.29993281853216
H            5.64004813719493        2.74748649823510        4.11749951329847
H            5.12698589615011        3.70330080036490        5.50594481630425
H            3.14862013063047        5.14026678766442        2.64728319860158
H            4.81796883958533        4.58700716568157        2.54467685882206
H            4.29643784707681        5.54676622734263        3.92664392096817
H            1.62359452908865        4.26395638644846        4.48039684275081
H            2.87120267088145        4.63094791531595        5.66607775687740
H            2.20612519073349        3.00441416317481        5.58407630400292
H            1.17898063580089        2.14965444357709        3.77730441871657
H            0.48760852505131        0.47500083845203        2.17390245752204
H            2.14296429641554       -2.99343298010103       -0.38463224522683
H            1.39424650722813       -6.81789182102604       -1.98983196997724
H            3.08854572498526       -8.21042391514891       -0.83603939931379
H            3.74828677319367       -7.66659221042562        1.47855451464550
H            2.71323416345941       -5.75451192500525        2.63876051798303
H            1.03972950647435       -4.36738454751434        1.48771701544087
H           -2.05993942484062       -3.18828111098250       -1.13176640289329
H           -3.14742835129404       -2.94366705452938        0.95207134240466
H           -5.39229615542425       -3.37292270264463        1.76721682971970
H           -8.83313399888709       -0.82208285134020        0.03919419959585
H           -8.47840649631604        0.05377547779251        1.53946399098138
H           -9.69046815341913       -1.22194263332401        1.52325783983554
H           -7.42753055820702       -4.10772611790196        1.16320885978375
H           -8.14573325092422       -3.25102924783329       -0.19808926248308
H           -9.10309728127049       -3.57069671222989        1.25146755929385
H           -6.90936207578836       -2.84075461130172        3.32338536097886
H           -8.58033142401657       -2.29102756871601        3.41407260476634
H           -7.26034355950725       -1.11735766241647        3.42927183955358
H           -6.82684976442789        0.25578666838469       -0.00291298501628
H           -5.80017921662506        2.24074851745630       -1.39758893429209
H           -2.62713024034117        5.32142408365551       -2.50468325770061
H           -4.05835199921639        6.33573672015407       -2.66679137856373
H           -3.79293957617720        5.40917035089213       -1.18665944639440
H           -6.56977322103364        3.65425807404678       -2.99293364097950
H           -6.27720228235860        5.38937172900090       -3.00012741949504
H           -6.13820667637940        4.49318677142755       -1.49172411814681
H           -4.68674967654077        5.10408618719787       -4.82891273113612
H           -3.24915647901637        4.09947594263197       -4.66374822838988
H           -4.83368918924379        3.34390007561161       -4.81232176206342
H           -1.97055399168598        3.23987608057384       -3.03884233050595
H           -0.99969381490373        1.20334311844724       -2.14790832454706
H           -0.24443574315104        0.53588386096981       -0.04741591359611

          :  Hamiltonian                  GFN2-xTB          :
         :: gradient norm              0.000058455635 Eh/a0 ::
         :: HOMO-LUMO gap              1.837508652496 eV    ::
         :: SCC energy              -154.725796228507 Eh    ::
         :: -> dispersion             -0.139374768766 Eh    ::
         :: repulsion energy           2.633107828697 Eh    ::

    * Orbital Energies and Occupations

         #    Occupation            Energy/Eh            Energy/eV
      -------------------------------------------------------------
         1        2.0000           -0.7057044             -19.2032
       ...           ...                  ...                  ...
       130        2.0000           -0.4132611             -11.2454
       131        2.0000           -0.4110143             -11.1843
       132        2.0000           -0.4078781             -11.0989
       133        2.0000           -0.4073855             -11.0855
       134        2.0000           -0.4064071             -11.0589
       135        2.0000           -0.4040772             -10.9955
       136        2.0000           -0.3948708             -10.7450
       137        2.0000           -0.3937318             -10.7140
       138        2.0000           -0.3913791             -10.6500
       139        2.0000           -0.3744710             -10.1899
       140        2.0000           -0.3704603             -10.0807
       141        2.0000           -0.3576354              -9.7318
       142        2.0000           -0.3560224              -9.6879 (HOMO)
       143                         -0.2884952              -7.8504 (LUMO)
       144                         -0.2460322              -6.6949
       145                         -0.2429005              -6.6097
       146                         -0.2379623              -6.4753
       147                         -0.2360103              -6.4222
       148                         -0.2341510              -6.3716
       149                         -0.2183484              -5.9416
       150                         -0.2146572              -5.8411
       151                         -0.2000906              -5.4447
       152                         -0.1848155              -5.0291
       153                         -0.1824674              -4.9652
       ...                                ...                  ...
       280                          0.7478812              20.3509
      -------------------------------------------------------------
                  HL-Gap            0.0675272 Eh            1.8375 eV

     #   Z          covCN         q      C6AA      α(0)
     1   6 C        3.762    -0.105    22.553     6.770
     2   6 C        3.903     0.026    20.086     6.371
     3   6 C        3.762    -0.105    22.553     6.770
     4   6 C        3.761    -0.107    22.590     6.775
     5   6 C        2.972    -0.001    28.057     8.688
     6   6 C        2.929    -0.043    29.077     8.843
     7   6 C        2.909    -0.054    29.349     8.883
     8   6 C        3.073     0.043    26.968     8.515
     9   6 C        3.065    -0.019    28.407     8.740
    10   6 C        2.920    -0.039    28.973     8.827
    11   6 C        3.065    -0.019    28.404     8.739
    12   6 C        2.920    -0.039    28.970     8.826
    13   6 C        2.972    -0.001    28.056     8.688
    14   6 C        3.903     0.026    20.086     6.371
    15   6 C        3.762    -0.105    22.551     6.769
    16   6 C        3.762    -0.105    22.555     6.770
    17   6 C        3.761    -0.107    22.589     6.775
    18   6 C        2.929    -0.043    29.077     8.843
    19   6 C        2.909    -0.054    29.352     8.884
    20   6 C        3.072     0.043    26.969     8.515
    21   7 N        2.802    -0.046    22.125     6.986
    22   6 C        2.910     0.068    26.480     8.438
    23   6 C        2.923    -0.051    29.263     8.871
    24   6 C        2.971    -0.011    28.296     8.725
    25   6 C        2.829     0.227    23.234     7.899
    26   8 O        0.858    -0.365    20.989     6.142
    27   6 C        2.973    -0.011    28.289     8.724
    28   6 C        2.925    -0.017    28.441     8.746
    29   6 C        2.918    -0.026    28.657     8.778
    30   6 C        2.920    -0.023    28.571     8.765
    31   6 C        2.918    -0.027    28.674     8.781
    32   6 C        2.921    -0.026    28.647     8.777
    33   6 C        2.927    -0.042    29.037     8.837
    34   6 C        2.909     0.069    26.458     8.434
    35   7 N        2.802    -0.043    22.066     6.977
    36   6 C        3.076     0.043    26.966     8.514
    37   6 C        2.909    -0.053    29.307     8.877
    38   6 C        2.931    -0.039    28.959     8.825
    39   6 C        2.973    -0.001    28.048     8.687
    40   6 C        3.903     0.026    20.086     6.371
    41   6 C        3.761    -0.107    22.588     6.775
    42   6 C        3.762    -0.105    22.558     6.770
    43   6 C        3.761    -0.105    22.553     6.770
    44   6 C        2.918    -0.043    29.078     8.843
    45   6 C        3.067    -0.019    28.407     8.740
    46   6 C        3.068    -0.019    28.407     8.739
    47   6 C        2.918    -0.043    29.080     8.843
    48   6 C        2.973    -0.001    28.054     8.688
    49   6 C        3.903     0.026    20.087     6.371
    50   6 C        3.762    -0.105    22.553     6.770
    51   6 C        3.761    -0.107    22.589     6.775
    52   6 C        3.761    -0.105    22.555     6.770
    53   6 C        2.931    -0.039    28.970     8.827
    54   6 C        2.909    -0.053    29.322     8.879
    55   6 C        3.075     0.042    26.971     8.515
    56   6 C        2.926    -0.059    29.463     8.902
    57   1 H        0.925     0.036     2.505     2.475
    58   1 H        0.925     0.036     2.503     2.474
    59   1 H        0.925     0.033     2.540     2.492
    60   1 H        0.925     0.033     2.549     2.497
    61   1 H        0.925     0.036     2.505     2.475
    62   1 H        0.925     0.036     2.505     2.475
    63   1 H        0.925     0.035     2.518     2.482
    64   1 H        0.925     0.035     2.511     2.478
    65   1 H        0.925     0.035     2.512     2.478
    66   1 H        0.926     0.037     2.495     2.470
    67   1 H        0.926     0.025     2.663     2.552
    68   1 H        0.926     0.030     2.582     2.513
    69   1 H        0.926     0.030     2.583     2.513
    70   1 H        0.925     0.033     2.547     2.496
    71   1 H        0.925     0.036     2.507     2.476
    72   1 H        0.925     0.036     2.504     2.474
    73   1 H        0.925     0.033     2.540     2.492
    74   1 H        0.925     0.036     2.504     2.475
    75   1 H        0.925     0.036     2.506     2.476
    76   1 H        0.925     0.035     2.511     2.478
    77   1 H        0.925     0.035     2.512     2.479
    78   1 H        0.925     0.035     2.519     2.482
    79   1 H        0.926     0.036     2.496     2.471
    80   1 H        0.926     0.025     2.664     2.552
    81   1 H        0.926     0.047     2.358     2.401
    82   1 H        0.926     0.055     2.260     2.351
    83   1 H        0.926     0.040     2.449     2.447
    84   1 H        0.926     0.039     2.469     2.457
    85   1 H        0.926     0.038     2.481     2.463
    86   1 H        0.926     0.037     2.495     2.470
    87   1 H        0.926     0.065     2.146     2.291
    88   1 H        0.926     0.025     2.661     2.551
    89   1 H        0.926     0.030     2.589     2.516
    90   1 H        0.925     0.036     2.506     2.475
    91   1 H        0.925     0.035     2.517     2.481
    92   1 H        0.925     0.035     2.519     2.482
    93   1 H        0.925     0.036     2.502     2.473
    94   1 H        0.925     0.034     2.530     2.488
    95   1 H        0.925     0.036     2.509     2.477
    96   1 H        0.925     0.035     2.512     2.478
    97   1 H        0.925     0.036     2.506     2.476
    98   1 H        0.925     0.033     2.548     2.496
    99   1 H        0.926     0.038     2.480     2.462
   100   1 H        0.926     0.038     2.479     2.462
   101   1 H        0.925     0.035     2.510     2.478
   102   1 H        0.925     0.036     2.508     2.477
   103   1 H        0.925     0.033     2.546     2.495
   104   1 H        0.925     0.036     2.508     2.477
   105   1 H        0.925     0.035     2.520     2.482
   106   1 H        0.925     0.035     2.512     2.479
   107   1 H        0.925     0.036     2.507     2.476
   108   1 H        0.925     0.036     2.509     2.477
   109   1 H        0.925     0.034     2.536     2.490
   110   1 H        0.926     0.029     2.597     2.520
   111   1 H        0.926     0.025     2.658     2.550
   112   1 H        0.926     0.056     2.251     2.346

molecular dipole:
                 x           y           z       tot (Debye)
 q only:        0.695       0.512       0.796
   full:        0.835       0.451       0.878       3.287

 projected vibrational frequencies (cm⁻¹)
eigval :       -0.00    -0.00    -0.00     0.00     0.00     0.00
eigval :        9.53     9.90    12.51    13.03    19.92    30.26
eigval :       30.66    30.90    32.77    34.18    42.09    44.96
eigval :       58.44    62.90    65.37    71.32    73.81    86.71
eigval :       87.34   105.54   111.24   126.46   145.24   154.41
eigval :      155.35   160.02   172.31   177.29   179.52   185.12
eigval :      186.94   196.99   200.67   204.12   217.02   217.63
eigval :      220.95   221.91   227.08   232.37   239.19   251.57
eigval :      259.51   262.30   269.43   274.43   283.67   292.27
eigval :      308.44   309.89   315.21   317.90   320.70   322.23
eigval :      328.24   332.30   337.36   342.70   350.86   355.92
eigval :      360.31   366.10   368.56   370.84   373.81   381.56
eigval :      397.50   399.57   405.33   411.85   412.39   432.01
eigval :      440.89   441.98   443.82   444.68   457.52   460.92
eigval :      462.00   463.69   466.78   471.41   478.37   512.58
eigval :      521.41   540.43   570.33   572.96   577.57   582.47
eigval :      584.81   586.61   590.73   601.59   622.20   637.26
eigval :      639.34   640.31   641.06   662.85   668.96   674.26
eigval :      687.90   688.16   700.71   707.72   708.33   710.79
eigval :      719.50   723.20   765.88   779.41   781.82   816.11
eigval :      819.31   820.84   823.35   832.36   834.98   851.72
eigval :      870.28   872.68   874.19   874.94   878.69   880.10
eigval :      882.77   893.93   895.01   900.50   910.77   911.82
eigval :      915.10   918.14   923.62   924.97   927.16   931.99
eigval :      933.63   935.51   936.02   960.09   960.13   960.37
eigval :      960.45   962.60   962.65   962.70   962.75   962.95
eigval :      963.02   963.08   963.44   978.53   995.64  1028.52
eigval :     1032.99  1034.12  1035.62  1035.84  1035.90  1035.93
eigval :     1035.97  1036.17  1038.47  1045.08  1049.18  1080.87
eigval :     1115.38  1119.81  1120.28  1131.56  1132.46  1141.76
eigval :     1145.23  1165.14  1178.31  1181.10  1182.22  1192.06
eigval :     1195.50  1218.48  1227.66  1227.89  1227.98  1228.10
eigval :     1228.29  1228.43  1231.77  1232.38  1233.33  1237.03
eigval :     1237.95  1241.03  1245.62  1254.34  1256.75  1271.20
eigval :     1277.30  1285.25  1286.39  1296.60  1305.48  1307.60
eigval :     1309.59  1322.10  1323.92  1340.97  1347.94  1352.75
eigval :     1358.42  1365.59  1394.54  1402.26  1402.57  1404.80
eigval :     1404.88  1405.98  1406.08  1406.20  1406.25  1412.57
eigval :     1413.29  1429.37  1429.55  1429.59  1429.64  1429.77
eigval :     1432.66  1434.39  1457.72  1461.95  1466.61  1475.60
eigval :     1475.77  1483.55  1485.40  1492.38  1492.45  1492.46
eigval :     1492.51  1494.89  1495.17  1495.24  1495.40  1501.71
eigval :     1502.08  1502.25  1503.03  1505.80  1505.84  1505.92
eigval :     1506.15  1515.02  1515.22  1515.49  1515.65  1520.33
eigval :     1520.70  1520.87  1521.19  1562.64  1566.81  1572.64
eigval :     1574.42  1580.44  1582.67  1586.44  1591.66  1605.32
eigval :     1606.14  1617.47  1620.60  1699.43  3020.94  3020.94
eigval :     3020.99  3021.06  3022.41  3022.46  3022.65  3022.76
eigval :     3026.81  3026.84  3026.84  3026.87  3029.35  3029.58
eigval :     3029.76  3030.15  3030.91  3031.00  3031.04  3031.08
eigval :     3035.44  3035.52  3035.66  3035.73  3037.75  3038.06
eigval :     3038.09  3038.45  3047.01  3047.04  3047.12  3047.30
eigval :     3050.40  3050.69  3050.89  3050.95  3075.91  3079.73
eigval :     3080.02  3080.05  3081.67  3082.42  3086.27  3087.69
eigval :     3091.48  3092.74  3093.17  3093.89  3097.52  3102.58
eigval :     3108.88  3110.38  3115.96  3119.38  3119.46  3119.95

   temp. (K)  partition function   enthalpy   heat capacity  entropy
                                   cal/mol     cal/K/mol   cal/K/mol   J/K/mol
 298.15  VIB  0.286E+26            32280.395    196.595    200.920
         ROT  0.159E+09              888.752      2.981     40.506
         INT  0.453E+34            33169.148    199.576    241.426
         TR   0.194E+29             1481.254      4.968     45.651
         TOT                       34650.4014   204.5441   287.0774  1201.1319

       T/K    H(0)-H(T)+PV         H(T)/Eh          T*S/Eh         G(T)/Eh
   ------------------------------------------------------------------------
    298.15    0.552189E-01    0.989153E+00    0.136400E+00    0.852753E+00
   ------------------------------------------------------------------------

         :::::::::::::::::::::::::::::::::::::::::::::::::::::
         ::                  THERMODYNAMIC                  ::
         :::::::::::::::::::::::::::::::::::::::::::::::::::::
         :: total free energy        -151.239935507453 Eh   ::
         ::.................................................::
         :: total energy             -152.092688399809 Eh   ::
         :: zero point energy           0.933933710354 Eh   ::
         :: G(RRHO) w/o ZPVE           -0.081180817999 Eh   ::
         :: G(RRHO) contrib.            0.852752892355 Eh   ::
         :::::::::::::::::::::::::::::::::::::::::::::::::::::

           -------------------------------------------------
          | TOTAL ENERGY             -152.092688399809 Eh   |
          | TOTAL ENTHALPY           -151.103535759920 Eh   |
          | TOTAL FREE ENERGY        -151.239935507453 Eh   |
          | GRADIENT NORM               0.000058447046 Eh/α |
          | HOMO-LUMO GAP               1.837508242146 eV   |
           -------------------------------------------------

 * finished run on 2025/09/08 at 03:50:11.328
