   * xtb version 6.7.1 (edcfbbe) compiled by 'albert@albert-system' on 2024-07-22

   ID    Z sym.   atoms
    1    6 C      1-20, 22-25, 27-34, 36-56
    2    7 N      21, 35
    3    8 O      26
    4    1 H      57-112

          program call               : xtb data2507/gas/BP-mDTC/BP-mDTC_gas_T1_crest.xyz --gfn 2 --spinpol --tblite --uhf 2 --ohess vtight --parallel 40 --molden --ceasefiles --namespace data2507/gas/BP-mDTC/BP-mDTC_gas_T1_finalOpt
 * total energy  :  -152.0144894 Eh     change       -0.1903834E-07 Eh
 * total energy  :  -152.0145297 Eh     change       -0.4023865E-04 Eh
 * total energy  :  -152.0145429 Eh     change       -0.1319010E-04 Eh
 * total energy  :  -152.0145444 Eh     change       -0.1537542E-05 Eh
 * total energy  :  -152.0145461 Eh     change       -0.1664543E-05 Eh
 * total energy  :  -152.0145483 Eh     change       -0.2278798E-05 Eh
 * total energy  :  -152.0145512 Eh     change       -0.2841983E-05 Eh
 * total energy  :  -152.0145540 Eh     change       -0.2817372E-05 Eh
 * total energy  :  -152.0145565 Eh     change       -0.2495436E-05 Eh
 * total energy  :  -152.0145589 Eh     change       -0.2353008E-05 Eh
 * total energy  :  -152.0145729 Eh     change       -0.4945038E-06 Eh
 * total energy  :  -152.0145734 Eh     change       -0.5301056E-06 Eh
 * total energy  :  -152.0145739 Eh     change       -0.4335678E-06 Eh
 * total energy  :  -152.0145742 Eh     change       -0.3771157E-06 Eh
 * total energy  :  -152.0145747 Eh     change       -0.4234059E-06 Eh
 * total energy  :  -152.0145750 Eh     change       -0.3765839E-06 Eh
 * total energy  :  -152.0145753 Eh     change       -0.2831680E-06 Eh
 * total energy  :  -152.0145756 Eh     change       -0.2936446E-06 Eh
 * total energy  :  -152.0145757 Eh     change       -0.6345908E-07 Eh
   *** GEOMETRY OPTIMIZATION CONVERGED AFTER 37 ITERATIONS ***

 final structure:
================
112
 xtb: 6.7.1 (edcfbbe)
C            4.81084872742416        5.08791055486921       -3.51122209692857
C            3.39684614006409        4.54602910824501       -3.73816347575232
C            3.29668455560130        4.07056745492667       -5.19471772161970
C            2.40378188218840        5.69164483941938       -3.49511893433523
C            3.05821943656234        3.38777474108660       -2.81249187348522
C            1.79082932030097        2.79694951939142       -2.90337981481002
C            1.39452246007751        1.74461765729376       -2.10339882593939
C            2.29757284287937        1.26397088575145       -1.16641451284151
C            3.58966600224302        1.82587608902526       -1.07030463982291
C            3.96101425698637        2.88305354487201       -1.88650641674869
C            4.28180844649587        1.07947354849285       -0.05241137571693
C            5.55512197526197        1.16788940040116        0.48885589246362
C            5.93684111016721        0.29319284589195        1.49721012114892
C            7.31965783207598        0.32545413260173        2.12930627745659
C            7.18055130161122        0.61996981527701        3.62990787487075
C            7.99555038647365       -1.03830338693621        1.92685841275282
C            8.22322315317953        1.39870363746039        1.51601451636828
C            5.00586454669842       -0.64855631606903        1.95604640953129
C            3.73198003651775       -0.75547059934935        1.43796361317431
C            3.37232756932684        0.10365845889423        0.41018310855209
N            2.17733098670663        0.22925616081664       -0.26358683629605
C            1.05873367688479       -0.60209546407988       -0.10824354894749
C            1.22461591970926       -1.97353380005984       -0.18469622884539
C            0.11477060046711       -2.83671755713189       -0.06142768147465
C            0.20566074330913       -4.26839642727042       -0.16090918388124
O           -0.81196718323799       -4.98211773677442       -0.38995211069707
C            1.51414073575753       -4.92157812460830       -0.00235261174552
C            2.46302267611506       -4.46642517060527        0.91657629627609
C            3.67387743118059       -5.11542483297358        1.04683676282377
C            3.95391122413180       -6.23848438299526        0.28260020532805
C            2.99775176285859       -6.72391454458895       -0.59709917739532
C            1.78429241978210       -6.08268954860637       -0.73397688177667
C           -1.16494954248108       -2.25136072644205        0.06812963724496
C           -1.31591979580147       -0.88036966021120        0.12040762468209
N           -2.59742366520484       -0.33835414399079        0.28412486407850
C           -2.96596045076087        0.59831441525182        1.22494317677272
C           -2.21819275742957        1.21308757699495        2.21917283431544
C           -2.85746254434660        2.11340406959486        3.04702093788339
C           -4.21938440159372        2.42120921008114        2.93023882754049
C           -4.82939963590710        3.43095961876586        3.88983955760759
C           -4.67254456707939        2.91554512473595        5.32771754377828
C           -4.10160736577775        4.77430508517819        3.73611140293978
C           -6.31972834710279        3.66624037735361        3.62902383857069
C           -4.96304792515559        1.78011691771016        1.94796760854194
C           -4.34653364886916        0.87112397072881        1.10307076935423
C           -4.82944033574923        0.04359414721472        0.02814902456115
C           -6.07603397555656       -0.11700275798385       -0.55598018952820
C           -6.23059339788075       -1.00387522058771       -1.61351356803173
C           -7.56976040229296       -1.23978951332560       -2.29401068069192
C           -8.69976593802895       -0.41222769725707       -1.67511077251136
C           -7.94171077644046       -2.72403698487727       -2.16665051511758
C           -7.45528320083840       -0.85708913278400       -3.77668194165968
C           -5.10543091942694       -1.70164704905379       -2.07336581690230
C           -3.85277253085943       -1.55919775386352       -1.51267703236460
C           -3.71722050018502       -0.68986939338283       -0.43933484002732
C           -0.20616663642178       -0.03194049688306        0.05211964756535
H            5.55934442454207        4.32321597989417       -3.70538553205664
H            4.99440825913966        5.91636741206682       -4.19238433612773
H            4.93044839809543        5.45664805712720       -2.49503951337094
H            3.55676437277610        4.88154991513144       -5.87166660411485
H            2.29167952384989        3.73590333617017       -5.43562320817963
H            3.98169625211294        3.24307723216903       -5.36751718994633
H            1.38304727660541        5.38500370052390       -3.70513379808206
H            2.64360182362962        6.53676026495386       -4.13687285674263
H            2.45482071449735        6.01950602543929       -2.45883656256886
H            1.08522856934147        3.16860150363784       -3.63035940860046
H            0.41596894257327        1.30379206888473       -2.21700256922770
H            4.95314684325649        3.29021732515872       -1.78641884229730
H            6.22576659361454        1.92272917239912        0.11381142331316
H            8.16323371967255        0.66726177168972        4.09432408134559
H            6.68091607348362        1.57475885460725        3.78066262427117
H            6.60322872102279       -0.14948572597770        4.13459220914234
H            8.07612753198792       -1.26367836562626        0.86546839549311
H            7.43215883178030       -1.83629683408071        2.40195262587236
H            8.99577141998384       -1.02723926963702        2.35472775052626
H            8.36991645144600        1.22564988283818        0.45237475371120
H            9.19826424173497        1.36945209164637        1.99815865530433
H            7.80700081544212        2.39264500201583        1.66332740471013
H            5.28341511469839       -1.32208164841421        2.75205984203989
H            3.03574809365250       -1.47987226235899        1.82992312938304
H            2.20148924664745       -2.37032308955367       -0.41230699177069
H            2.23071369162334       -3.62733533325857        1.55526887560084
H            4.40050083333264       -4.75107078735117        1.75934935339902
H            4.90365331547801       -6.74186096185024        0.38675400332218
H            3.20152975409597       -7.61061085362241       -1.18018754550720
H            1.03359849725219       -6.45531703804322       -1.41405268777111
H           -2.01934281209590       -2.90236387216737        0.16495658660147
H           -1.17194048632995        0.98670516878183        2.35599441977688
H           -2.27195643584542        2.59011946446526        3.81801701648708
H           -3.62661343741885        2.79452975964429        5.59503435126630
H           -5.16571554715488        1.95189949017167        5.43704340245941
H           -5.12373567879997        3.61594616013356        6.02731822641271
H           -4.19158596740436        5.13547089287326        2.71364739463242
H           -3.04539078500978        4.68453756497544        3.97360273259876
H           -4.53823292237215        5.51436135356460        4.40336748324487
H           -6.48568626646927        4.05043098135186        2.62515834079067
H           -6.69909466159809        4.40103792708590        4.33624729989188
H           -6.89008659411234        2.74974423256872        3.76087903276881
H           -6.01672797451961        1.96741765822395        1.82660913927693
H           -6.90444153658491        0.45645211452907       -0.17503944358311
H           -8.50244940136661        0.65328148383299       -1.76865364949477
H           -9.63145587091708       -0.62689326994933       -2.19461559717888
H           -8.83688606579197       -0.66057317457204       -0.62519917937871
H           -7.20474636745831       -3.36173397573611       -2.64612200347112
H           -8.90695638224651       -2.90893569910264       -2.63331798777942
H           -8.00514706005582       -3.00654499213263       -1.11789443395810
H           -6.71202726496574       -1.46266634115370       -4.28730210550891
H           -8.41178635428653       -1.00113305810685       -4.27461190584033
H           -7.16903321464810        0.18821337874696       -3.87416851618757
H           -5.20888693773135       -2.38349027178795       -2.90299388269938
H           -3.00918747265841       -2.10816971841814       -1.90118433266443
H           -0.32436665503353        1.03801367605372        0.09870913250792

 projected vibrational frequencies (cm⁻¹)
eigval :       -0.00    -0.00     0.00     0.00     0.00     0.00
eigval :        8.94     9.40    12.52    15.93    23.63    30.13
eigval :       30.44    32.36    33.25    34.68    41.90    48.05
eigval :       60.55    61.45    67.14    68.82    79.09    85.13
eigval :       87.90   106.43   112.88   132.54   146.90   152.59
eigval :      157.98   158.67   171.46   175.69   182.22   185.68
eigval :      194.70   200.68   200.98   209.19   215.96   218.67
eigval :      219.53   222.19   227.19   230.22   230.36   241.37
eigval :      253.30   257.63   257.85   272.67   282.58   286.68
eigval :      295.15   313.42   318.31   318.55   322.28   323.03
eigval :      325.05   336.21   337.62   343.22   348.74   357.51
eigval :      358.15   358.83   365.59   373.11   378.28   383.97
eigval :      393.75   396.58   404.86   406.58   407.84   429.65
eigval :      440.29   441.11   441.69   442.43   457.21   461.55
eigval :      461.93   464.31   466.09   466.27   501.50   509.47
eigval :      513.41   532.41   535.46   561.36   575.97   580.89
eigval :      582.39   586.25   591.27   595.65   597.85   610.94
eigval :      619.80   636.13   641.26   641.57   647.96   658.63
eigval :      669.83   690.60   691.28   701.27   708.59   709.32
eigval :      716.99   719.65   750.23   765.42   775.33   792.75
eigval :      818.37   821.85   824.47   827.47   830.68   832.88
eigval :      835.91   855.80   865.65   869.67   870.01   871.47
eigval :      872.30   873.47   875.31   883.43   891.44   911.31
eigval :      914.75   916.15   917.81   920.16   923.99   926.18
eigval :      931.07   932.69   934.31   960.30   960.32   960.42
eigval :      960.43   962.69   962.73   963.05   963.16   963.24
eigval :      963.28   963.41   963.43   967.25   978.96  1025.72
eigval :     1029.12  1032.40  1034.26  1034.81  1034.83  1035.10
eigval :     1035.28  1036.67  1038.63  1042.64  1045.56  1076.73
eigval :     1109.90  1113.46  1117.69  1127.73  1128.74  1134.91
eigval :     1137.62  1160.67  1165.52  1165.86  1175.40  1177.78
eigval :     1187.85  1210.54  1219.50  1225.30  1226.45  1226.51
eigval :     1226.65  1226.82  1228.22  1230.65  1231.08  1231.50
eigval :     1233.26  1234.16  1235.55  1246.16  1254.19  1261.03
eigval :     1273.99  1281.86  1282.92  1294.23  1295.87  1299.10
eigval :     1303.03  1325.12  1332.66  1339.89  1343.35  1346.93
eigval :     1349.55  1358.77  1368.30  1387.07  1401.63  1402.53
eigval :     1404.61  1404.77  1405.77  1405.91  1405.99  1406.03
eigval :     1408.65  1411.72  1417.31  1425.25  1429.03  1429.14
eigval :     1429.57  1429.59  1438.49  1440.16  1447.65  1450.60
eigval :     1465.48  1467.96  1479.13  1480.32  1482.19  1491.10
eigval :     1491.22  1491.71  1491.72  1493.92  1494.01  1494.08
eigval :     1494.19  1500.33  1500.40  1500.47  1500.58  1504.35
eigval :     1504.48  1505.04  1505.10  1514.66  1514.81  1514.89
eigval :     1515.11  1519.30  1519.39  1520.06  1520.19  1525.27
eigval :     1550.41  1561.99  1563.65  1575.05  1576.51  1579.16
eigval :     1581.92  1585.41  1602.02  1608.32  3022.96  3023.00
eigval :     3023.12  3023.25  3024.81  3024.84  3024.87  3025.02
eigval :     3027.69  3027.75  3027.80  3028.01  3031.14  3031.21
eigval :     3031.29  3031.54  3032.17  3032.25  3032.41  3032.53
eigval :     3036.18  3036.22  3036.40  3036.58  3039.43  3039.52
eigval :     3039.61  3039.86  3048.58  3048.88  3048.92  3050.07
eigval :     3051.86  3052.03  3052.09  3053.68  3066.02  3071.48
eigval :     3081.51  3085.86  3086.33  3088.30  3090.48  3091.89
eigval :     3097.22  3097.60  3099.36  3099.95  3102.43  3102.87
eigval :     3110.21  3112.28  3117.35  3117.44  3120.64  3120.93

   temp. (K)  partition function   enthalpy   heat capacity  entropy
                                   cal/mol     cal/K/mol   cal/K/mol   J/K/mol
 298.15  VIB  0.212E+26            32435.752    198.155    201.444
         ROT  0.159E+09              888.752      2.981     40.515
         INT  0.338E+34            33324.505    201.136    241.959
         TR   0.194E+29             1481.254      4.968     45.651
         TOT                       34805.7586   206.1044   287.6107  1203.3630

       T/K    H(0)-H(T)+PV         H(T)/Eh          T*S/Eh         G(T)/Eh
   ------------------------------------------------------------------------
    298.15    0.554665E-01    0.986032E+00    0.136653E+00    0.849379E+00
   ------------------------------------------------------------------------

         :::::::::::::::::::::::::::::::::::::::::::::::::::::
         ::                  THERMODYNAMIC                  ::
         :::::::::::::::::::::::::::::::::::::::::::::::::::::
         :: total free energy        -151.165196677919 Eh   ::
         ::.................................................::
         :: total energy             -152.014575803284 Eh   ::
         :: zero point energy           0.930565725033 Eh   ::
         :: G(RRHO) w/o ZPVE           -0.081186599668 Eh   ::
         :: G(RRHO) contrib.            0.849379125365 Eh   ::
         :::::::::::::::::::::::::::::::::::::::::::::::::::::

           -------------------------------------------------
          | TOTAL ENERGY             -152.014575803284 Eh   |
          | TOTAL ENTHALPY           -151.028543571295 Eh   |
          | TOTAL FREE ENERGY        -151.165196677919 Eh   |
          | GRADIENT NORM               0.000047620655 Eh/α |
           -------------------------------------------------

 * finished run on 2025/09/08 at 04:38:32.031
