   * xtb version 6.7.1 (edcfbbe) compiled by 'albert@albert-system' on 2024-07-22

   ID    Z sym.   atoms
    1    6 C      1-20, 22-25, 27-34, 36-56
    2    7 N      21, 35
    3    8 O      26
    4    1 H      57-112

          program call               : xtb data2507/gas/BP-mDTC/BP-mDTC_gas_S0_finalOpt.xtbopt.xyz --gfn 2 --spinpol --tblite --uhf 2 --ohess vtight --parallel 40 --molden --ceasefiles --namespace data2507/gas/BP-mDTC/BP-mDTC_gas_T1_preOpt
 * total energy  :  -152.0070589 Eh     change       -0.3048464E-07 Eh
 * total energy  :  -152.0109025 Eh     change       -0.3843656E-02 Eh
 * total energy  :  -152.0119787 Eh     change       -0.1076141E-02 Eh
 * total energy  :  -152.0122336 Eh     change       -0.2549171E-03 Eh
 * total energy  :  -152.0124483 Eh     change       -0.2147291E-03 Eh
 * total energy  :  -152.0126374 Eh     change       -0.1890680E-03 Eh
 * total energy  :  -152.0128191 Eh     change       -0.1817284E-03 Eh
 * total energy  :  -152.0129668 Eh     change       -0.1476602E-03 Eh
 * total energy  :  -152.0130842 Eh     change       -0.1174258E-03 Eh
 * total energy  :  -152.0131986 Eh     change       -0.1144321E-03 Eh
 * total energy  :  -152.0144434 Eh     change       -0.5964453E-06 Eh
 * total energy  :  -152.0144438 Eh     change       -0.4688081E-06 Eh
 * total energy  :  -152.0144445 Eh     change       -0.6518151E-06 Eh
 * total energy  :  -152.0144452 Eh     change       -0.7020175E-06 Eh
 * total energy  :  -152.0144458 Eh     change       -0.5873053E-06 Eh
 * total energy  :  -152.0144462 Eh     change       -0.4671095E-06 Eh
 * total energy  :  -152.0144465 Eh     change       -0.2697227E-06 Eh
 * total energy  :  -152.0144465 Eh     change        0.3309577E-07 Eh
 * total energy  :  -152.0144465 Eh     change       -0.3695365E-07 Eh
   *** GEOMETRY OPTIMIZATION CONVERGED AFTER 69 ITERATIONS ***

 final structure:
================
112
 xtb: 6.7.1 (edcfbbe)
C            4.99749812958453        6.03125365353480       -0.00598890519877
C            3.63339121046770        5.72137423895898       -0.62847036220837
C            3.70187393820394        6.06593857803502       -2.12322925203980
C            2.58405796721003        6.60463575993974        0.06194478953530
C            3.23650538462909        4.26169635720293       -0.47165418607430
C            2.00360688956434        3.83693489444223       -0.98464045022596
C            1.55920031829776        2.53509695986318       -0.88149687692380
C            2.37003759639376        1.61720235962554       -0.23122586379925
C            3.63030532671944        2.01294547490226        0.26835680490025
C            4.05400493841863        3.32750402818307        0.15015240009770
C            4.23348974161086        0.83046321662056        0.82492991692450
C            5.44591830371114        0.58975866162160        1.45240082026759
C            5.74603635924402       -0.68881412230077        1.90299281422253
C            7.06196612504604       -1.02852189677031        2.58516750604421
C            7.99965708593525        0.17730770694886        2.69074692834605
C            6.77689365912545       -1.53678736321943        4.00577619684738
C            7.77856599714119       -2.11916605382913        1.77593248050594
C            4.79328588728437       -1.70186942092050        1.72864641536867
C            3.57877130435786       -1.48886979744222        1.11063511965912
C            3.30413127199777       -0.21545641916884        0.63397987923156
N            2.18326267610510        0.27194470403256       -0.00116158590213
C            1.06310967326673       -0.48455487503760       -0.37986700206897
C            1.24794397101882       -1.64790109953044       -1.10283161881695
C            0.14098588597239       -2.42959911057014       -1.49705688911742
C            0.24585960770443       -3.62438453614455       -2.28487856021247
O           -0.75728434980046       -4.11177111779904       -2.88291738330785
C            1.54274657476937       -4.30947770428131       -2.40730920808972
C            2.43502818688169       -4.40757292547045       -1.33639962023546
C            3.63691459018942       -5.06840141893108       -1.49017587942816
C            3.96270552477892       -5.66135063524457       -2.70072679229164
C            3.06064593782775       -5.60941680534649       -3.75308942446820
C            1.85699023075686       -4.95133350420403       -3.60950885602572
C           -1.15167604804424       -1.95178649889533       -1.17469173414835
C           -1.31831794409239       -0.79510768667439       -0.44301120288495
N           -2.61235853842677       -0.37952837231231       -0.09493380353801
C           -3.58274633247436       -1.17817202483966        0.47054263480811
C           -3.52913286155230       -2.50681449637844        0.86839755737535
C           -4.66029081925765       -3.05826546490865        1.43371194209787
C           -5.84497814045897       -2.33508973307649        1.62910443063439
C           -7.04102302265332       -3.03889690907338        2.25033887174866
C           -7.44257658201593       -4.22352219210135        1.35976286139843
C           -6.65752595089797       -3.54501261977352        3.64843678470705
C           -8.25688710173572       -2.11933674753211        2.39458038662448
C           -5.87722208176178       -0.99876197707257        1.25222302967686
C           -4.75549613529225       -0.41979369408247        0.68014496053884
C           -4.46880510177609        0.90855248129618        0.20502277428311
C           -5.21950987758014        2.07112571859517        0.13247402625955
C           -4.66054666333204        3.21973906281759       -0.41261394018805
C           -5.42374985754305        4.53070409706497       -0.51854997864964
C           -4.66446836109872        5.61853688603206        0.25482194962853
C           -6.83838809422889        4.43745914274910        0.05966936984453
C           -5.53826351743738        4.92717534500747       -1.99760192320329
C           -3.34624761240961        3.16077476277192       -0.89477164677360
C           -2.57847819126112        2.01620529623756       -0.83588773729920
C           -3.13637540752077        0.88263376627356       -0.26340083762722
C           -0.21476892816650       -0.04365946024530       -0.02322220046031
H            5.78682859945790        5.45760719389999       -0.48617489823575
H            5.22389390967138        7.08735195048899       -0.13794030191863
H            4.99831465243163        5.81891258392048        1.06069504790968
H            2.73880951172090        5.93061675763758       -2.60728964652052
H            4.42685961714282        5.42690862016982       -2.62306907653808
H            4.00613488894330        7.10215285116885       -2.25465262507704
H            1.60142792635405        6.47805143838133       -0.38356309376070
H            2.86313683262988        7.65270299429909       -0.02317843649198
H            2.51486502299273        6.35031797496735        1.11763188498602
H            1.36732586819732        4.54779991480962       -1.48897393590701
H            0.61480632843035        2.23871730673001       -1.30988983398954
H            5.01964477781689        3.59713809955126        0.54378950412029
H            6.13456859119920        1.40819014048121        1.57939891215488
H            8.92524881625209       -0.12561684151118        3.17604788922011
H            8.24917790248399        0.56632829907826        1.70625171325541
H            7.55343981375198        0.97001686522331        3.28685763187642
H            6.16866024160039       -2.43673216176627        3.99184978044378
H            6.24808438987599       -0.77700065058059        4.57764258528730
H            7.71053521129507       -1.76523934049237        4.51537632988286
H            7.18757876811869       -3.02904913035469        1.72352794755854
H            8.73378698083256       -2.36049749604732        2.23737795691780
H            7.96264430382920       -1.77375805918711        0.76071692897477
H            5.00521153393553       -2.69522801466108        2.09280497136637
H            2.86158778707434       -2.28819395642579        1.01191244946233
H            2.24380285161524       -1.91669141249585       -1.41842013858807
H            2.16576513139029       -3.99892500273697       -0.37412647824273
H            4.32031721028748       -5.13278049244015       -0.65510685739672
H            4.90491925716467       -6.17639697362598       -2.81599334442381
H            3.29892085354806       -6.08759346788207       -4.69239235315054
H            1.14835704805983       -4.90851142497578       -4.42248413375689
H           -2.00523818805454       -2.50762423306632       -1.52942934444253
H           -2.63204668949629       -3.09329631646935        0.74458078893120
H           -4.61713463187041       -4.09315456791065        1.73561508255465
H           -6.63714887183000       -4.94702219703826        1.27270118991999
H           -7.69504728753969       -3.87371444573586        0.36096947744883
H           -8.31027269215564       -4.72884976372963        1.77855605314415
H           -6.34741778652847       -2.71302727571448        4.27747756278892
H           -5.84096408651258       -4.25985858058037        3.60251296609861
H           -7.51027963180365       -4.03254044446133        4.11608314959650
H           -8.03601128433174       -1.27613768667794        3.04511912685589
H           -9.08087345044703       -2.67603945270071        2.83632240840492
H           -8.58438530944093       -1.74875911886364        1.42598638952888
H           -6.75683698837615       -0.39368149821924        1.39490544305608
H           -6.23203076629469        2.05698153549679        0.49943994720449
H           -3.67032686313978        5.77724719216869       -0.15330716357000
H           -5.20673302677984        6.56034100124440        0.20453933153019
H           -4.56221875866725        5.33431214187650        1.30013754083552
H           -7.43421227448421        3.70421653189648       -0.47882598029342
H           -7.33167793804639        5.40288118122034       -0.03350574694561
H           -6.81360692654227        4.17415752402049        1.11464215543255
H           -6.05199668630669        4.14783211250323       -2.55654685468217
H           -6.10370681465274        5.85158324341834       -2.09427107152177
H           -4.56038630779528        5.07864491499774       -2.44584568950210
H           -2.90571090055370        4.04010154312965       -1.33889301663765
H           -1.57853744772115        2.00323843426646       -1.23933173524915
H           -0.34263455678150        0.83094138646392        0.59356545429060

 projected vibrational frequencies (cm⁻¹)
eigval :       -0.00    -0.00    -0.00    -0.00     0.00     0.00
eigval :        8.05    11.19    12.98    18.16    21.00    29.84
eigval :       30.33    32.64    33.04    34.78    40.98    46.84
eigval :       58.93    60.39    66.83    72.42    76.03    79.67
eigval :       89.90   106.81   112.97   132.08   144.21   153.45
eigval :      156.96   158.10   170.86   176.26   182.90   187.48
eigval :      197.42   199.90   201.55   206.60   216.54   218.50
eigval :      218.87   222.30   226.54   228.51   230.55   239.17
eigval :      253.99   257.45   258.19   271.37   282.75   289.20
eigval :      293.03   311.75   318.11   318.38   322.63   322.81
eigval :      326.94   336.76   337.49   340.31   348.64   357.70
eigval :      358.01   358.63   366.06   371.47   377.87   384.10
eigval :      392.22   396.50   404.19   406.01   406.63   428.99
eigval :      439.14   440.32   441.06   442.37   457.08   460.20
eigval :      462.87   465.63   466.12   470.85   483.91   512.35
eigval :      516.33   528.98   548.39   555.15   576.27   580.19
eigval :      582.32   586.72   590.03   594.76   599.87   609.98
eigval :      619.53   638.91   641.11   641.35   644.23   659.23
eigval :      669.03   690.51   691.12   702.48   708.51   709.07
eigval :      716.23   719.31   750.75   765.16   774.93   788.49
eigval :      811.23   818.22   821.31   825.15   830.94   832.82
eigval :      835.29   856.94   864.91   865.61   869.76   870.20
eigval :      872.60   872.84   875.46   884.11   891.89   906.27
eigval :      911.45   914.29   917.07   920.81   924.03   926.62
eigval :      930.16   932.93   934.22   960.26   960.30   960.36
eigval :      960.41   962.86   962.89   963.18   963.30   963.31
eigval :      963.35   963.39   963.48   967.20   978.84  1026.42
eigval :     1028.55  1032.00  1034.22  1034.92  1034.95  1034.99
eigval :     1035.14  1036.82  1038.29  1041.75  1045.41  1077.33
eigval :     1108.62  1112.93  1117.20  1124.66  1128.50  1130.27
eigval :     1135.64  1160.65  1161.78  1165.57  1177.72  1177.97
eigval :     1185.22  1210.86  1220.59  1224.59  1226.31  1226.41
eigval :     1226.59  1226.70  1226.72  1230.01  1230.73  1231.17
eigval :     1232.70  1233.86  1234.39  1246.26  1253.41  1260.97
eigval :     1274.22  1281.53  1282.09  1293.94  1295.69  1298.41
eigval :     1303.06  1324.35  1333.22  1339.96  1342.74  1347.25
eigval :     1350.55  1358.46  1369.34  1390.59  1401.54  1402.57
eigval :     1404.78  1404.90  1405.75  1405.94  1405.99  1406.03
eigval :     1407.80  1411.27  1415.52  1425.07  1429.22  1429.25
eigval :     1429.31  1429.37  1437.10  1439.60  1445.77  1447.67
eigval :     1464.94  1467.15  1479.49  1480.14  1480.58  1491.26
eigval :     1491.48  1491.62  1491.65  1493.77  1493.89  1493.96
eigval :     1494.30  1500.29  1500.38  1500.50  1500.74  1504.53
eigval :     1504.77  1504.87  1505.00  1514.78  1514.81  1514.99
eigval :     1515.05  1519.46  1519.60  1520.20  1520.38  1533.22
eigval :     1550.68  1561.56  1563.49  1575.61  1576.86  1579.18
eigval :     1581.68  1584.85  1602.25  1609.08  3023.00  3023.07
eigval :     3023.18  3023.26  3024.92  3024.95  3024.98  3025.04
eigval :     3027.72  3027.72  3027.85  3028.04  3031.23  3031.30
eigval :     3031.32  3031.69  3032.14  3032.26  3032.41  3032.52
eigval :     3036.17  3036.28  3036.40  3036.62  3039.32  3039.39
eigval :     3039.56  3039.79  3048.42  3048.53  3049.03  3049.98
eigval :     3051.55  3051.79  3052.37  3053.48  3065.79  3071.68
eigval :     3083.67  3088.22  3088.60  3090.01  3090.53  3090.79
eigval :     3099.21  3099.49  3100.04  3101.20  3102.98  3103.06
eigval :     3108.46  3109.35  3117.31  3117.39  3120.57  3120.86

   temp. (K)  partition function   enthalpy   heat capacity  entropy
                                   cal/mol     cal/K/mol   cal/K/mol   J/K/mol
 298.15  VIB  0.220E+26            32466.705    198.171    201.553
         ROT  0.159E+09              888.752      2.981     40.506
         INT  0.349E+34            33355.457    201.152    242.059
         TR   0.194E+29             1481.254      4.968     45.651
         TOT                       34836.7111   206.1205   287.7105  1203.7808

       T/K    H(0)-H(T)+PV         H(T)/Eh          T*S/Eh         G(T)/Eh
   ------------------------------------------------------------------------
    298.15    0.555158E-01    0.985899E+00    0.136701E+00    0.849198E+00
   ------------------------------------------------------------------------

         :::::::::::::::::::::::::::::::::::::::::::::::::::::
         ::                  THERMODYNAMIC                  ::
         :::::::::::::::::::::::::::::::::::::::::::::::::::::
         :: total free energy        -151.165248169898 Eh   ::
         ::.................................................::
         :: total energy             -152.014446506798 Eh   ::
         :: zero point energy           0.930383049737 Eh   ::
         :: G(RRHO) w/o ZPVE           -0.081184712837 Eh   ::
         :: G(RRHO) contrib.            0.849198336900 Eh   ::
         :::::::::::::::::::::::::::::::::::::::::::::::::::::

           -------------------------------------------------
          | TOTAL ENERGY             -152.014446506798 Eh   |
          | TOTAL ENTHALPY           -151.028547624245 Eh   |
          | TOTAL FREE ENERGY        -151.165248169898 Eh   |
          | GRADIENT NORM               0.000095474322 Eh/α |
           -------------------------------------------------

 * finished run on 2025/09/08 at 04:11:39.608
