   * xtb version 6.7.1 (edcfbbe) compiled by 'albert@albert-system' on 2024-07-22

   ID    Z sym.   atoms
    1    6 C      1-20, 22-25, 27-34, 36-56
    2    7 N      21, 35
    3    8 O      26
    4    1 H      57-112

          program call               : xtb data2507/gas/BP-mDTC/BP-mDTC_gas_S0_crest.xyz --gfn 2 --ohess vtight --parallel 40 --molden --ceasefiles --namespace data2507/gas/BP-mDTC/BP-mDTC_gas_S0_finalOpt
          :  Hamiltonian                  GFN2-xTB          :
 * total energy  :  -152.0947455 Eh     change       -0.6413813E-08 Eh
 * total energy  :  -152.0947469 Eh     change       -0.1405476E-05 Eh
 * total energy  :  -152.0947489 Eh     change       -0.1928715E-05 Eh
 * total energy  :  -152.0947545 Eh     change       -0.5608796E-05 Eh
 * total energy  :  -152.0947581 Eh     change       -0.3627008E-05 Eh
 * total energy  :  -152.0947593 Eh     change       -0.1160794E-05 Eh
 * total energy  :  -152.0947608 Eh     change       -0.1488879E-05 Eh
 * total energy  :  -152.0947636 Eh     change       -0.2818225E-05 Eh
 * total energy  :  -152.0947653 Eh     change       -0.1732236E-05 Eh
 * total energy  :  -152.0947664 Eh     change       -0.1047157E-05 Eh
 * total energy  :  -152.0947711 Eh     change       -0.8621389E-06 Eh
 * total energy  :  -152.0947720 Eh     change       -0.8476078E-06 Eh
 * total energy  :  -152.0947726 Eh     change       -0.6230004E-06 Eh
 * total energy  :  -152.0947730 Eh     change       -0.3692958E-06 Eh
 * total energy  :  -152.0947732 Eh     change       -0.2428387E-06 Eh
 * total energy  :  -152.0947734 Eh     change       -0.1775958E-06 Eh
 * total energy  :  -152.0947736 Eh     change       -0.1885166E-06 Eh
 * total energy  :  -152.0947738 Eh     change       -0.2147936E-06 Eh
 * total energy  :  -152.0947738 Eh     change       -0.4927415E-08 Eh
   *** GEOMETRY OPTIMIZATION CONVERGED AFTER 22 ITERATIONS ***

 final structure:
================
112
 xtb: 6.7.1 (edcfbbe)
C            4.86671899913763        6.12386742802941        0.28508246923206
C            3.51071691809585        5.83018239005009       -0.36242808907351
C            3.56764287989545        6.30257596545418       -1.82207274862848
C            2.43860830607775        6.62195835456331        0.39970327284548
C            3.15510667955150        4.35108730739486       -0.32831837338539
C            1.93576386661017        3.93636037423958       -0.87977437560928
C            1.52491010330125        2.61936387909492       -0.88351252056811
C            2.35448819120129        1.67341792614862       -0.30390646383414
C            3.60275946185568        2.05956601227553        0.22514485029634
C            3.99355172710331        3.39215246342916        0.21535458990291
C            4.24271458005573        0.85618120506315        0.68019739718926
C            5.46386220625455        0.61192676723605        1.29450679264569
C            5.81190472599844       -0.68236556330822        1.64325767510206
C            7.13525706556187       -1.02631595138161        2.31105218903630
C            8.02379026434158        0.20250302301892        2.52266679302900
C            6.85838945460076       -1.65583255826471        3.68365953111741
C            7.90187343353849       -2.02055549003214        1.42741399664046
C            4.90004288273508       -1.71228567296588        1.37811059920281
C            3.67958953913598       -1.49721366706599        0.77107918133325
C            3.35390913835404       -0.20219300453335        0.40002328512803
N            2.20861228065953        0.30201938960644       -0.19206563040196
C            1.09760206707539       -0.44410763671864       -0.59240358244780
C            1.27435573085184       -1.62073503992057       -1.31490670362359
C            0.16795592832490       -2.37032552632410       -1.69876533249440
C            0.33114935358072       -3.62072970912931       -2.49010025060243
O           -0.45123624446409       -3.93885934106213       -3.36020359226385
C            1.51191851883813       -4.45190629490500       -2.14158896894476
C            1.94747327515210       -4.57171993172061       -0.82363353695758
C            3.04160090653932       -5.36185631511636       -0.52479315313105
C            3.71218783455727       -6.03210941724393       -1.53561167532597
C            3.27285711343405       -5.93129067349444       -2.84597668318309
C            2.17062725489622       -5.15387609546071       -3.14765767230767
C           -1.11434215026104       -1.93436125114619       -1.38968361427844
C           -1.29449960225223       -0.77191874261303       -0.64584403279541
N           -2.58043270848287       -0.36780558612475       -0.28303401704777
C           -3.55136074518232       -1.18188650974956        0.27474666361409
C           -3.50063794897016       -2.51770222873472        0.64027133647021
C           -4.62449339834098       -3.07609501178730        1.21441094476597
C           -5.80048028492513       -2.35158237261377        1.44955120122771
C           -6.98848962847152       -3.06443213067904        2.07888209218560
C           -7.41458084793282       -4.22772893676216        1.17221073575354
C           -6.58190954467805       -3.60142594804841        3.45852550286275
C           -8.19624094452703       -2.14193519347581        2.26560214858198
C           -5.82903437160216       -1.01001101795822        1.10706491351970
C           -4.71214253970379       -0.42278915308605        0.52731973627655
C           -4.42798108890728        0.91669140929330        0.09099510225965
C           -5.18139288639091        2.08292850738308        0.06753678233314
C           -4.63392460148089        3.24578146256547       -0.44870724384081
C           -5.39598830903626        4.56203696435319       -0.49724453059528
C           -4.62212094920359        5.62063405139626        0.30132911240948
C           -6.80093175219167        4.45042976192476        0.10105192502635
C           -5.53531542756810        5.01128469197042       -1.95866643151440
C           -3.32942024553367        3.20099033998616       -0.95755937261159
C           -2.56073320897765        2.05529710836304       -0.94766518378761
C           -3.10559617273412        0.90656340967806       -0.39787328043212
C           -0.18591659360405       -0.03153027947769       -0.24422814173445
H            5.67035595478331        5.61355145687792       -0.24076982834320
H            5.06456722110418        7.19314939794105        0.24286695323282
H            4.87454052487209        5.82198493942763        1.32991024456739
H            2.60765048361016        6.18279211432909       -2.31633229439532
H            4.30864476773363        5.72788598771867       -2.37398104437828
H            3.84353100601179        7.35420448379945       -1.86543119491079
H            1.45878942037870        6.50312929404472       -0.05420369941376
H            2.68577827396742        7.68157211910876        0.40249337373232
H            2.38000960798831        6.27813506795571        1.43040767064408
H            1.28151453873150        4.66766095604251       -1.32923122055332
H            0.59021203376332        2.34057429533404       -1.34420216060206
H            4.95315203663508        3.65025818145913        0.63103716445943
H            6.11706629530332        1.44564820606046        1.49064532920773
H            8.95697118415326       -0.10141719749779        2.99287443242082
H            8.26477756189121        0.67838218651558        1.57490641558301
H            7.54087111152996        0.92710295132959        3.17416191218500
H            6.28523631194467       -2.57412124058889        3.59109771903032
H            6.29489668680524       -0.96434230408284        4.30674556832711
H            7.79524869989983       -1.88855795315673        4.18569055228184
H            7.34617064404523       -2.94451761245807        1.29390822587361
H            8.86099599602126       -2.26288732407980        1.88051393631869
H            8.08304889361979       -1.58768155571880        0.44571269884830
H            5.14847050831945       -2.72459028007856        1.65846312495284
H            3.00407695140938       -2.32115192034491        0.60294632721640
H            2.26745943667741       -1.92654550468177       -1.60569724339585
H            1.40886275061050       -4.06707325814064       -0.03401417694104
H            3.37330914411291       -5.45622783175219        0.49886526405591
H            4.57265871917322       -6.64068311917442       -1.29981972627326
H            3.78865180601215       -6.46332875486794       -3.63143550835348
H            1.81036683140787       -5.06838596236839       -4.16202078815630
H           -1.96340829976488       -2.50343521573448       -1.73501093225790
H           -2.61035269669635       -3.11062183766204        0.49337445432670
H           -4.58045254368664       -4.11811419583345        1.49220035844890
H           -6.61438574661613       -4.95278315044605        1.05335037551162
H           -7.68524896076828       -3.85519268361006        0.18640574231226
H           -8.27620330704813       -4.73863398148922        1.59714862757747
H           -6.25509850250412       -2.78398031680090        4.09810416180462
H           -5.76965943192822       -4.31880956355626        3.38197334758379
H           -7.42765790759699       -4.09473044550902        3.93319164572868
H           -7.95789266124222       -1.31447813091234        2.92994234480956
H           -9.01583597597405       -2.70330804528447        2.70996895709420
H           -8.53801024179995       -1.74764870468503        1.31141412219486
H           -6.69916583795069       -0.39974702389546        1.28230336894474
H           -6.18758656595924        2.05350737575247        0.45085367907628
H           -3.63374823424134        5.79003288573906       -0.11661580679665
H           -5.16144304925594        6.56562969077880        0.29275314769769
H           -4.50422841135850        5.29950849100903        1.33428725117486
H           -7.40619999241198        3.73611250670978       -0.45221446047656
H           -7.29476347968798        5.41887165887293        0.04984424495538
H           -6.75841060784872        4.15009515324273        1.14549383183572
H           -6.06069460460216        4.25315442773879       -2.53580079107421
H           -6.09956044944213        5.94005915994642       -2.01348423891474
H           -4.56473695539593        5.17604126966828       -2.41810579433889
H           -2.89604554735496        4.09285520258793       -1.38389535104564
H           -1.57044752644012        2.05874767822105       -1.37554721291101
H           -0.32018539553364        0.84929799008725        0.36488498555494

          :  Hamiltonian                  GFN2-xTB          :
         :: gradient norm              0.000050503271 Eh/a0 ::
         :: HOMO-LUMO gap              1.847447626754 eV    ::
         :: SCC energy              -154.729439687434 Eh    ::
         :: -> dispersion             -0.142473638608 Eh    ::
         :: repulsion energy           2.634665887853 Eh    ::

    * Orbital Energies and Occupations

         #    Occupation            Energy/Eh            Energy/eV
      -------------------------------------------------------------
         1        2.0000           -0.7072182             -19.2444
       ...           ...                  ...                  ...
       130        2.0000           -0.4136712             -11.2566
       131        2.0000           -0.4114838             -11.1970
       132        2.0000           -0.4095814             -11.1453
       133        2.0000           -0.4074253             -11.0866
       134        2.0000           -0.4060619             -11.0495
       135        2.0000           -0.4041165             -10.9966
       136        2.0000           -0.3965057             -10.7895
       137        2.0000           -0.3940924             -10.7238
       138        2.0000           -0.3920646             -10.6686
       139        2.0000           -0.3733162             -10.1585
       140        2.0000           -0.3708275             -10.0907
       141        2.0000           -0.3590602              -9.7705
       142        2.0000           -0.3560425              -9.6884 (HOMO)
       143                         -0.2881501              -7.8410 (LUMO)
       144                         -0.2469391              -6.7196
       145                         -0.2439137              -6.6372
       146                         -0.2383403              -6.4856
       147                         -0.2370479              -6.4504
       148                         -0.2347285              -6.3873
       149                         -0.2174351              -5.9167
       150                         -0.2149538              -5.8492
       151                         -0.2020338              -5.4976
       152                         -0.1847045              -5.0261
       153                         -0.1835596              -4.9949
       ...                                ...                  ...
       280                          0.7459617              20.2987
      -------------------------------------------------------------
                  HL-Gap            0.0678924 Eh            1.8474 eV

     #   Z          covCN         q      C6AA      α(0)
     1   6 C        3.761    -0.107    22.589     6.775
     2   6 C        3.903     0.026    20.086     6.370
     3   6 C        3.761    -0.105    22.554     6.770
     4   6 C        3.762    -0.105    22.554     6.770
     5   6 C        2.973    -0.001    28.054     8.688
     6   6 C        2.931    -0.039    28.961     8.826
     7   6 C        2.909    -0.052    29.301     8.876
     8   6 C        3.078     0.042    26.966     8.514
     9   6 C        3.067    -0.019    28.422     8.742
    10   6 C        2.918    -0.043    29.079     8.843
    11   6 C        3.068    -0.019    28.412     8.740
    12   6 C        2.918    -0.044    29.082     8.843
    13   6 C        2.973    -0.002    28.060     8.689
    14   6 C        3.903     0.026    20.086     6.371
    15   6 C        3.761    -0.107    22.592     6.776
    16   6 C        3.762    -0.105    22.552     6.770
    17   6 C        3.762    -0.105    22.552     6.770
    18   6 C        2.931    -0.039    28.976     8.828
    19   6 C        2.909    -0.055    29.365     8.886
    20   6 C        3.077     0.042    26.978     8.516
    21   7 N        2.801    -0.045    22.108     6.983
    22   6 C        2.909     0.069    26.467     8.436
    23   6 C        2.924    -0.050    29.241     8.868
    24   6 C        2.972    -0.011    28.285     8.724
    25   6 C        2.828     0.229    23.207     7.894
    26   8 O        0.858    -0.361    20.923     6.133
    27   6 C        2.973    -0.011    28.285     8.724
    28   6 C        2.922    -0.024    28.610     8.772
    29   6 C        2.918    -0.026    28.649     8.777
    30   6 C        2.920    -0.023    28.575     8.766
    31   6 C        2.918    -0.026    28.648     8.777
    32   6 C        2.924    -0.017    28.441     8.746
    33   6 C        2.926    -0.041    29.024     8.835
    34   6 C        2.909     0.069    26.451     8.433
    35   7 N        2.802    -0.043    22.078     6.979
    36   6 C        3.078     0.043    26.963     8.513
    37   6 C        2.909    -0.053    29.306     8.877
    38   6 C        2.931    -0.039    28.958     8.825
    39   6 C        2.973    -0.001    28.049     8.687
    40   6 C        3.903     0.026    20.086     6.371
    41   6 C        3.762    -0.105    22.558     6.770
    42   6 C        3.761    -0.105    22.553     6.770
    43   6 C        3.761    -0.107    22.589     6.775
    44   6 C        2.918    -0.043    29.077     8.843
    45   6 C        3.067    -0.019    28.407     8.740
    46   6 C        3.067    -0.019    28.412     8.740
    47   6 C        2.918    -0.043    29.077     8.843
    48   6 C        2.973    -0.001    28.059     8.689
    49   6 C        3.903     0.026    20.086     6.370
    50   6 C        3.762    -0.105    22.550     6.769
    51   6 C        3.761    -0.107    22.588     6.775
    52   6 C        3.761    -0.105    22.552     6.770
    53   6 C        2.931    -0.039    28.965     8.826
    54   6 C        2.909    -0.052    29.299     8.876
    55   6 C        3.077     0.043    26.963     8.513
    56   6 C        2.925    -0.057    29.411     8.894
    57   1 H        0.925     0.035     2.513     2.479
    58   1 H        0.925     0.035     2.516     2.481
    59   1 H        0.925     0.035     2.511     2.478
    60   1 H        0.925     0.036     2.508     2.477
    61   1 H        0.925     0.033     2.542     2.493
    62   1 H        0.925     0.036     2.503     2.474
    63   1 H        0.925     0.036     2.507     2.476
    64   1 H        0.925     0.036     2.505     2.475
    65   1 H        0.925     0.033     2.540     2.493
    66   1 H        0.926     0.030     2.589     2.516
    67   1 H        0.926     0.024     2.674     2.557
    68   1 H        0.926     0.038     2.481     2.463
    69   1 H        0.926     0.038     2.475     2.460
    70   1 H        0.925     0.035     2.515     2.480
    71   1 H        0.925     0.036     2.508     2.477
    72   1 H        0.925     0.036     2.508     2.477
    73   1 H        0.925     0.035     2.517     2.481
    74   1 H        0.925     0.033     2.539     2.492
    75   1 H        0.925     0.036     2.502     2.474
    76   1 H        0.925     0.035     2.519     2.482
    77   1 H        0.925     0.036     2.503     2.474
    78   1 H        0.925     0.033     2.542     2.493
    79   1 H        0.926     0.028     2.621     2.532
    80   1 H        0.926     0.024     2.672     2.556
    81   1 H        0.926     0.046     2.370     2.407
    82   1 H        0.926     0.033     2.540     2.492
    83   1 H        0.926     0.037     2.483     2.464
    84   1 H        0.926     0.039     2.466     2.456
    85   1 H        0.926     0.040     2.445     2.445
    86   1 H        0.926     0.053     2.279     2.361
    87   1 H        0.926     0.063     2.161     2.299
    88   1 H        0.926     0.024     2.677     2.559
    89   1 H        0.926     0.030     2.591     2.517
    90   1 H        0.925     0.036     2.503     2.474
    91   1 H        0.925     0.034     2.531     2.488
    92   1 H        0.925     0.036     2.508     2.477
    93   1 H        0.925     0.033     2.547     2.496
    94   1 H        0.925     0.035     2.513     2.479
    95   1 H        0.925     0.036     2.505     2.475
    96   1 H        0.925     0.035     2.516     2.480
    97   1 H        0.925     0.035     2.519     2.482
    98   1 H        0.925     0.036     2.506     2.475
    99   1 H        0.926     0.038     2.478     2.462
   100   1 H        0.926     0.038     2.480     2.463
   101   1 H        0.925     0.035     2.512     2.479
   102   1 H        0.925     0.036     2.509     2.477
   103   1 H        0.925     0.033     2.544     2.494
   104   1 H        0.925     0.036     2.509     2.477
   105   1 H        0.925     0.035     2.520     2.483
   106   1 H        0.925     0.035     2.513     2.479
   107   1 H        0.925     0.034     2.537     2.491
   108   1 H        0.925     0.036     2.508     2.476
   109   1 H        0.925     0.035     2.511     2.478
   110   1 H        0.926     0.029     2.601     2.522
   111   1 H        0.926     0.023     2.691     2.565
   112   1 H        0.926     0.055     2.262     2.352

molecular dipole:
                 x           y           z       tot (Debye)
 q only:        0.750       0.330       0.873
   full:        0.881       0.247       0.900       3.261

 projected vibrational frequencies (cm⁻¹)
eigval :       -0.00    -0.00     0.00     0.00     0.00     0.00
eigval :        8.24    10.81    12.42    15.81    20.00    29.31
eigval :       30.80    31.90    33.35    33.68    42.16    47.46
eigval :       60.87    61.30    65.02    71.82    75.88    79.50
eigval :       88.16   104.18   110.55   128.31   141.76   155.90
eigval :      158.43   159.66   173.08   177.12   181.95   187.27
eigval :      199.40   200.65   201.54   204.06   216.62   219.03
eigval :      221.17   222.35   226.54   230.47   237.60   239.32
eigval :      247.37   258.95   259.64   270.74   283.06   285.83
eigval :      293.36   314.05   317.36   317.75   321.78   321.99
eigval :      332.47   337.21   338.30   343.74   351.65   359.97
eigval :      360.31   362.51   367.66   371.79   374.18   381.66
eigval :      395.20   398.43   404.40   410.83   411.65   432.00
eigval :      440.25   440.32   441.89   443.30   453.13   461.48
eigval :      463.65   465.55   466.35   470.29   474.01   516.71
eigval :      520.40   544.03   560.94   575.80   577.22   584.01
eigval :      585.05   586.55   594.00   601.15   620.71   639.03
eigval :      640.10   640.25   646.12   664.17   670.25   670.70
eigval :      687.69   687.83   702.73   707.39   708.61   713.33
eigval :      719.45   722.34   766.33   778.11   782.03   810.78
eigval :      816.64   820.15   822.38   831.97   833.46   849.08
eigval :      867.64   869.57   870.73   873.66   874.13   876.51
eigval :      880.67   893.86   894.88   901.82   906.00   911.95
eigval :      914.11   917.25   920.86   926.73   927.76   931.91
eigval :      932.49   935.13   936.37   960.26   960.29   960.37
eigval :      960.39   962.80   962.91   962.96   962.99   963.00
eigval :      963.03   963.39   963.48   978.52   995.46  1028.22
eigval :     1030.17  1033.25  1035.20  1035.72  1035.79  1035.89
eigval :     1035.93  1037.35  1039.71  1043.69  1048.09  1080.53
eigval :     1114.26  1118.60  1119.57  1128.01  1131.69  1136.35
eigval :     1143.32  1164.90  1172.81  1178.69  1181.33  1189.73
eigval :     1192.63  1218.70  1227.30  1228.16  1228.25  1228.35
eigval :     1228.39  1230.14  1231.75  1232.68  1233.16  1236.75
eigval :     1237.84  1239.24  1239.98  1251.78  1256.11  1269.74
eigval :     1277.09  1284.34  1284.98  1297.71  1309.86  1310.34
eigval :     1311.09  1320.40  1322.29  1345.39  1348.20  1348.74
eigval :     1357.93  1360.80  1394.17  1402.38  1402.87  1404.80
eigval :     1404.92  1406.09  1406.13  1406.27  1406.35  1412.75
eigval :     1413.25  1429.55  1429.60  1429.68  1429.76  1429.98
eigval :     1432.88  1433.20  1456.95  1462.11  1466.36  1483.37
eigval :     1484.03  1485.51  1485.81  1492.45  1492.47  1492.52
eigval :     1492.57  1494.95  1495.23  1495.29  1495.40  1501.50
eigval :     1501.80  1501.97  1502.19  1505.76  1505.86  1505.90
eigval :     1505.99  1514.90  1515.02  1515.10  1515.24  1520.31
eigval :     1520.39  1521.15  1521.23  1562.30  1565.64  1571.67
eigval :     1573.13  1580.97  1583.21  1584.11  1592.05  1605.82
eigval :     1606.31  1617.77  1618.88  1708.68  3020.88  3021.04
eigval :     3021.31  3021.43  3022.38  3022.41  3022.75  3022.91
eigval :     3026.87  3026.87  3026.94  3027.03  3029.34  3029.67
eigval :     3029.77  3030.23  3030.98  3031.10  3031.13  3031.16
eigval :     3035.51  3035.58  3035.79  3035.91  3037.90  3038.00
eigval :     3038.19  3038.34  3046.47  3046.81  3047.10  3047.28
eigval :     3049.98  3050.19  3050.51  3050.97  3071.01  3078.96
eigval :     3078.98  3083.89  3084.65  3085.79  3086.17  3092.29
eigval :     3093.36  3096.60  3098.00  3098.49  3100.46  3103.01
eigval :     3103.25  3107.60  3115.96  3116.01  3119.39  3119.49

   temp. (K)  partition function   enthalpy   heat capacity  entropy
                                   cal/mol     cal/K/mol   cal/K/mol   J/K/mol
 298.15  VIB  0.254E+26            32309.569    196.804    201.053
         ROT  0.157E+09              888.752      2.981     40.479
         INT  0.398E+34            33198.321    199.785    241.533
         TR   0.194E+29             1481.254      4.968     45.651
         TOT                       34679.5749   204.7533   287.1840  1201.5778

       T/K    H(0)-H(T)+PV         H(T)/Eh          T*S/Eh         G(T)/Eh
   ------------------------------------------------------------------------
    298.15    0.552654E-01    0.989019E+00    0.136450E+00    0.852568E+00
   ------------------------------------------------------------------------

         :::::::::::::::::::::::::::::::::::::::::::::::::::::
         ::                  THERMODYNAMIC                  ::
         :::::::::::::::::::::::::::::::::::::::::::::::::::::
         :: total free energy        -151.242205550280 Eh   ::
         ::.................................................::
         :: total energy             -152.094773799580 Eh   ::
         :: zero point energy           0.933753210044 Eh   ::
         :: G(RRHO) w/o ZPVE           -0.081184960744 Eh   ::
         :: G(RRHO) contrib.            0.852568249300 Eh   ::
         :::::::::::::::::::::::::::::::::::::::::::::::::::::

           -------------------------------------------------
          | TOTAL ENERGY             -152.094773799580 Eh   |
          | TOTAL ENTHALPY           -151.105755169195 Eh   |
          | TOTAL FREE ENERGY        -151.242205550280 Eh   |
          | GRADIENT NORM               0.000050494513 Eh/α |
          | HOMO-LUMO GAP               1.847447391920 eV   |
           -------------------------------------------------

 * finished run on 2025/09/08 at 04:11:15.036
