   * xtb version 6.7.1 (edcfbbe) compiled by 'albert@albert-system' on 2024-07-22

   ID    Z sym.   atoms
    1    6 C      1-23, 25-37
    2    7 N      24
    3    1 H      38-60

          program call               : xtb data2507/toluene/D6/D6_toluene_S0_finalOpt.xtbopt.xyz --gfn 2 --uhf 2 --gbsa toluene --ohess vtight --parallel 40 --molden --ceasefiles --namespace data2507/toluene/D6/D6_toluene_T1_preOpt
      * Solvation model:               GBSA
        Solvent                        toluene
        Solvent mass                       9.2140E+01 g/mol
          :  Hamiltonian                  GFN2-xTB          :
 * total energy  :   -91.7182380 Eh     change       -0.1151446E-07 Eh
 * total energy  :   -91.7240041 Eh     change       -0.5766061E-02 Eh
 * total energy  :   -91.7266071 Eh     change       -0.2602970E-02 Eh
 * total energy  :   -91.7270532 Eh     change       -0.4461297E-03 Eh
 * total energy  :   -91.7273143 Eh     change       -0.2611232E-03 Eh
 * total energy  :   -91.7275936 Eh     change       -0.2792417E-03 Eh
 * total energy  :   -91.7277592 Eh     change       -0.1656622E-03 Eh
 * total energy  :   -91.7278650 Eh     change       -0.1057595E-03 Eh
 * total energy  :   -91.7279308 Eh     change       -0.6582459E-04 Eh
 * total energy  :   -91.7279746 Eh     change       -0.4378242E-04 Eh
 * total energy  :   -91.7287610 Eh     change       -0.4682275E-06 Eh
 * total energy  :   -91.7287613 Eh     change       -0.3156126E-06 Eh
 * total energy  :   -91.7287615 Eh     change       -0.1928323E-06 Eh
 * total energy  :   -91.7287617 Eh     change       -0.1779844E-06 Eh
 * total energy  :   -91.7287618 Eh     change       -0.1818858E-06 Eh
 * total energy  :   -91.7287621 Eh     change       -0.2147769E-06 Eh
 * total energy  :   -91.7287623 Eh     change       -0.1976666E-06 Eh
 * total energy  :   -91.7287624 Eh     change       -0.1110336E-06 Eh
 * total energy  :   -91.7287624 Eh     change       -0.5248775E-07 Eh
   *** GEOMETRY OPTIMIZATION CONVERGED AFTER 82 ITERATIONS ***

 final structure:
================
60
 xtb: 6.7.1 (edcfbbe)
C           -2.28576733125257       -3.32382136116487        1.74603732298925
C           -0.94240414531973       -3.11006500608538        1.56432747337356
C           -0.45399022462361       -1.93323803408055        0.92690523139579
C            0.93440226825061       -1.69712351806259        0.73263755873086
C            1.91064748926831       -2.74084027057972        0.80864191523180
C            3.21453030727442       -2.51038294711480        0.53815192546035
C            3.71162321057444       -1.20865778786602        0.17977345694887
C            5.00588582103579       -0.99009215089143       -0.30796616799806
C            5.91870290606113       -2.06060177491356       -0.55404922345081
C            7.13832798608240       -1.85025526722298       -1.12570691585446
C            7.52754095679308       -0.55567172050283       -1.49567844521407
C            6.68420507875476        0.50951084132726       -1.24292873309363
C            5.44308851928826        0.34459035471056       -0.63529606089282
C            4.59295102802470        1.46982932778676       -0.30039836667360
C            5.05580137328148        2.78985292275848       -0.38092555849588
C            4.25553287271865        3.86430185312351       -0.04224630224533
C            2.96740978965798        3.64400232053875        0.40997660603723
C            2.49361775930923        2.34719639406881        0.51514003480923
C            3.27390247810685        1.24812256667787        0.15514427775524
C            2.77140478746032       -0.11567635441706        0.28054059017214
C            1.44488725092868       -0.38679374160534        0.48561040271189
C           -1.43043389147444       -1.00980219914473        0.47641321205345
C           -2.77562433809177       -1.23735563337658        0.65844177075338
N           -3.71030122502879       -0.29083732752586        0.20631221080405
C           -4.80502729113857       -0.55328096036500       -0.58897946351612
C           -5.21941024187336       -1.75324941272374       -1.15246386733509
C           -6.35472683971765       -1.73717791584215       -1.94099570094716
C           -7.05921280854108       -0.55851251489051       -2.17655886527519
C           -6.63840700005134        0.64352718753124       -1.63679502184703
C           -5.50261682047915        0.65254201230837       -0.84018672103024
C           -4.78160155676668        1.68978005279755       -0.15181543734194
C           -4.97447380833460        3.05647970999481       -0.00910203868482
C           -4.07776766265304        3.77511205780693        0.76046906152767
C           -3.00990869938998        3.14430092538974        1.39531652373966
C           -2.79767465040515        1.78434940273009        1.26831779024502
C           -3.68008635045115        1.06119770549747        0.47632598490900
C           -3.22716663557840       -2.39856856003080        1.30496378830115
H           -2.62268459956702       -4.21851015950292        2.24975589288349
H           -0.24289682769550       -3.83351992175388        1.95092430263434
H            1.59564696118113       -3.74505932401991        1.04602109293531
H            3.90627640993943       -3.33566249261054        0.59296172827804
H            5.63117575150496       -3.06816784252785       -0.30148965609164
H            7.80468732559484       -2.68135067807560       -1.30794971965694
H            8.48169368506226       -0.39191715314516       -1.97346658805945
H            7.01036784948151        1.49284618083105       -1.54383553599372
H            6.06665532267131        2.98924051702225       -0.69850872214030
H            4.64392347756947        4.86956237559307       -0.11949225893015
H            2.33508122764814        4.47315852643263        0.69185941730096
H            1.49903238125922        2.19988324392511        0.90555686125770
H            0.74314569894998        0.42963869350786        0.50822136010543
H           -1.12902854318550       -0.13126892400249       -0.07195102080761
H           -4.66725398811340       -2.66636138511142       -0.98960352608596
H           -6.70014436921021       -2.65755709855858       -2.38841014901271
H           -7.94171011882821       -0.58629030624767       -2.79854510769949
H           -7.17809924799073        1.55777603705261       -1.83295572014966
H           -5.81070187731192        3.54508046130645       -0.48613244785339
H           -4.20868489237463        4.84038090931877        0.88095489732927
H           -2.33594857828326        3.72992132099631        2.00334194221004
H           -1.98037506900306        1.29786464431996        1.77888193160760
H           -4.28080206266860       -2.54739173783470        1.47949474467693

          :  Hamiltonian                  GFN2-xTB          :
         :: gradient norm              0.000037012461 Eh/a0 ::
         :: HOMO-LUMO gap              0.633003518354 eV    ::
         :: SCC energy               -93.492949437010 Eh    ::
         :: -> dispersion             -0.081942702584 Eh    ::
         :: -> Gsolv                  -0.037190712803 Eh    ::
         :: repulsion energy           1.764187012784 Eh    ::

    * Orbital Energies and Occupations

         #    Occupation            Energy/Eh            Energy/eV
      -------------------------------------------------------------
         1        2.0000           -0.6820173             -18.5586
       ...           ...                  ...                  ...
        75        2.0000           -0.4201012             -11.4315
        76        2.0000           -0.4188339             -11.3971
        77        2.0000           -0.4107784             -11.1778
        78        2.0000           -0.4100384             -11.1577
        79        2.0000           -0.4054347             -11.0324
        80        2.0000           -0.4023871             -10.9495
        81        2.0000           -0.3969239             -10.8008
        82        2.0000           -0.3898931             -10.6095
        83        2.0000           -0.3842129             -10.4550
        84        2.0000           -0.3793222             -10.3219
        85        1.9395           -0.3676042             -10.0030
        86        1.0605           -0.3623919              -9.8612
        87        1.0000           -0.2737004              -7.4478 (HOMO)
        88        0.0000           -0.2504382              -6.8148 (LUMO)
        89        0.0000           -0.2495470              -6.7905
        90                         -0.2388401              -6.4992
        91                         -0.2290618              -6.2331
        92                         -0.2278509              -6.2001
        93                         -0.2237839              -6.0895
        94                         -0.1964609              -5.3460
        95                         -0.1914618              -5.2099
        96                         -0.1895080              -5.1568
        97                         -0.1857790              -5.0553
        98                         -0.1743877              -4.7453
       ...                                ...                  ...
       171                          0.7394430              20.1213
      -------------------------------------------------------------
                  HL-Gap            0.0232622 Eh            0.6330 eV

     #   Z          covCN         q      C6AA      α(0)
     1   6 C        2.912    -0.031    28.773     8.796
     2   6 C        2.919    -0.037    28.931     8.820
     3   6 C        2.967     0.006    27.887     8.662
     4   6 C        2.967     0.001    27.999     8.679
     5   6 C        2.911    -0.039    28.963     8.825
     6   6 C        2.910    -0.039    28.958     8.824
     7   6 C        2.975    -0.002    28.075     8.691
     8   6 C        2.973     0.004    27.932     8.669
     9   6 C        2.917    -0.039    28.969     8.826
    10   6 C        2.911    -0.032    28.809     8.801
    11   6 C        2.915    -0.036    28.904     8.816
    12   6 C        2.917    -0.036    28.900     8.815
    13   6 C        2.975     0.001    28.009     8.681
    14   6 C        2.977     0.004    27.922     8.668
    15   6 C        2.923    -0.038    28.949     8.823
    16   6 C        2.916    -0.033    28.824     8.804
    17   6 C        2.916    -0.034    28.840     8.806
    18   6 C        2.923    -0.038    28.933     8.821
    19   6 C        2.979     0.003    27.949     8.672
    20   6 C        2.970     0.002    27.973     8.675
    21   6 C        2.920    -0.046    29.143     8.853
    22   6 C        2.924    -0.055    29.371     8.887
    23   6 C        2.906     0.060    26.654     8.465
    24   7 N        2.803    -0.031    21.842     6.941
    25   6 C        3.076     0.049    26.829     8.492
    26   6 C        2.909    -0.046    29.153     8.854
    27   6 C        2.923    -0.033    28.823     8.804
    28   6 C        2.920    -0.038    28.940     8.822
    29   6 C        2.912    -0.032    28.797     8.800
    30   6 C        3.066    -0.015    28.327     8.727
    31   6 C        3.066    -0.015    28.328     8.727
    32   6 C        2.912    -0.032    28.798     8.800
    33   6 C        2.920    -0.038    28.944     8.822
    34   6 C        2.923    -0.033    28.822     8.804
    35   6 C        2.909    -0.046    29.152     8.853
    36   6 C        3.076     0.048    26.837     8.493
    37   6 C        2.919    -0.050    29.232     8.866
    38   1 H        0.926     0.035     2.511     2.478
    39   1 H        0.926     0.038     2.480     2.463
    40   1 H        0.926     0.031     2.576     2.510
    41   1 H        0.926     0.031     2.573     2.508
    42   1 H        0.926     0.032     2.559     2.502
    43   1 H        0.926     0.027     2.625     2.533
    44   1 H        0.926     0.027     2.624     2.533
    45   1 H        0.926     0.031     2.573     2.508
    46   1 H        0.926     0.033     2.550     2.497
    47   1 H        0.926     0.029     2.595     2.519
    48   1 H        0.926     0.030     2.588     2.516
    49   1 H        0.926     0.033     2.550     2.497
    50   1 H        0.926     0.033     2.538     2.491
    51   1 H        0.926     0.038     2.479     2.462
    52   1 H        0.926     0.036     2.499     2.472
    53   1 H        0.926     0.035     2.511     2.478
    54   1 H        0.926     0.034     2.528     2.486
    55   1 H        0.926     0.036     2.499     2.472
    56   1 H        0.926     0.036     2.500     2.473
    57   1 H        0.926     0.034     2.531     2.488
    58   1 H        0.926     0.035     2.517     2.481
    59   1 H        0.926     0.035     2.522     2.483
    60   1 H        0.926     0.037     2.482     2.464

molecular dipole:
                 x           y           z       tot (Debye)
 q only:       -0.873      -0.062       0.074
   full:       -0.818      -0.105       0.087       2.107

 projected vibrational frequencies (cm⁻¹)
eigval :       -0.00    -0.00    -0.00     0.00     0.00     0.00
eigval :       13.10    17.33    23.94    38.83    54.68    66.12
eigval :       72.28    75.06    97.14   103.78   118.98   141.47
eigval :      143.47   177.76   199.83   215.78   233.94   241.18
eigval :      253.47   270.08   283.94   289.26   310.92   350.53
eigval :      361.50   376.03   388.62   393.11   396.39   402.89
eigval :      413.23   422.26   434.30   446.62   461.26   472.27
eigval :      499.74   511.50   516.84   537.98   540.83   551.97
eigval :      561.84   574.46   579.54   585.49   590.61   606.99
eigval :      616.06   637.42   650.45   666.67   667.97   675.15
eigval :      685.94   709.55   724.87   731.98   735.39   754.06
eigval :      755.45   758.59   763.67   769.89   779.32   780.08
eigval :      810.52   829.97   831.58   838.98   845.10   854.29
eigval :      871.89   877.12   888.31   892.05   896.34   900.91
eigval :      902.86   905.40   905.81   912.32   917.89   921.49
eigval :      923.21   930.26   945.68   973.24   986.90  1007.68
eigval :     1011.55  1044.83  1066.46  1069.42  1079.37  1110.15
eigval :     1112.31  1120.43  1121.46  1139.61  1144.37  1162.84
eigval :     1171.75  1172.99  1178.56  1180.70  1184.77  1188.08
eigval :     1207.64  1231.13  1232.51  1240.17  1242.82  1251.25
eigval :     1253.73  1267.63  1284.89  1291.80  1293.99  1310.85
eigval :     1327.94  1331.69  1343.29  1346.25  1349.80  1355.71
eigval :     1360.91  1365.17  1374.71  1380.55  1402.69  1410.73
eigval :     1415.58  1432.98  1434.39  1448.25  1461.55  1464.90
eigval :     1482.25  1485.75  1490.03  1495.55  1534.41  1549.48
eigval :     1560.57  1566.26  1572.20  1580.17  1583.34  1590.09
eigval :     1606.42  3068.54  3070.18  3073.69  3074.63  3075.34
eigval :     3079.46  3080.40  3081.05  3081.55  3084.93  3087.54
eigval :     3088.36  3093.67  3093.76  3094.84  3096.27  3097.59
eigval :     3099.35  3101.94  3104.52  3106.51  3109.00  3115.55

   temp. (K)  partition function   enthalpy   heat capacity  entropy
                                   cal/mol     cal/K/mol   cal/K/mol   J/K/mol
 298.15  VIB  0.251E+12            15937.589    106.891     96.589
         ROT  0.403E+08              888.752      2.981     37.782
         INT  0.101E+20            16826.341    109.872    134.371
         TR   0.984E+28             1481.254      4.968     44.308
         TOT                       18307.5948   114.8400   178.6790   747.5931

       T/K    H(0)-H(T)+PV         H(T)/Eh          T*S/Eh         G(T)/Eh
   ------------------------------------------------------------------------
    298.15    0.291750E-01    0.487957E+00    0.848962E-01    0.403060E+00
   ------------------------------------------------------------------------

         :::::::::::::::::::::::::::::::::::::::::::::::::::::
         ::                  THERMODYNAMIC                  ::
         :::::::::::::::::::::::::::::::::::::::::::::::::::::
         :: total free energy         -91.325702003672 Eh   ::
         ::.................................................::
         :: total energy              -91.728762424875 Eh   ::
         :: zero point energy           0.458781590600 Eh   ::
         :: G(RRHO) w/o ZPVE           -0.055721169397 Eh   ::
         :: G(RRHO) contrib.            0.403060421203 Eh   ::
         :::::::::::::::::::::::::::::::::::::::::::::::::::::

           -------------------------------------------------
          | TOTAL ENERGY              -91.728762424875 Eh   |
          | TOTAL ENTHALPY            -91.240805824909 Eh   |
          | TOTAL FREE ENERGY         -91.325702003672 Eh   |
          | GRADIENT NORM               0.000036944807 Eh/α |
          | HOMO-LUMO GAP               0.632996260148 eV   |
           -------------------------------------------------

 * finished run on 2025/09/04 at 22:07:22.653
