   * xtb version 6.7.1 (edcfbbe) compiled by 'albert@albert-system' on 2024-07-22

   ID    Z sym.   atoms
    1    6 C      1-23, 25-37
    2    7 N      24
    3    1 H      38-60

          program call               : xtb data2507/toluene/D6/D6.xyz --gfn 2 --gbsa toluene --ohess vtight --parallel 40 --molden --ceasefiles --namespace data2507/toluene/D6/D6_toluene_S0_preOpt
      * Solvation model:               GBSA
        Solvent                        toluene
        Solvent mass                       9.2140E+01 g/mol
          :  Hamiltonian                  GFN2-xTB          :
 * total energy  :   -91.8114951 Eh     change       -0.1905519E-08 Eh
 * total energy  :   -91.8238918 Eh     change       -0.1239676E-01 Eh
 * total energy  :   -91.8263812 Eh     change       -0.2489370E-02 Eh
 * total energy  :   -91.8267332 Eh     change       -0.3519478E-03 Eh
 * total energy  :   -91.8269662 Eh     change       -0.2330821E-03 Eh
 * total energy  :   -91.8270425 Eh     change       -0.7623155E-04 Eh
 * total energy  :   -91.8271266 Eh     change       -0.8410839E-04 Eh
 * total energy  :   -91.8271942 Eh     change       -0.6757735E-04 Eh
 * total energy  :   -91.8272580 Eh     change       -0.6380286E-04 Eh
 * total energy  :   -91.8273079 Eh     change       -0.4990503E-04 Eh
 * total energy  :   -91.8280535 Eh     change       -0.5127868E-06 Eh
 * total energy  :   -91.8280540 Eh     change       -0.5154419E-06 Eh
 * total energy  :   -91.8280545 Eh     change       -0.4860224E-06 Eh
 * total energy  :   -91.8280550 Eh     change       -0.4768984E-06 Eh
 * total energy  :   -91.8280554 Eh     change       -0.4461761E-06 Eh
 * total energy  :   -91.8280559 Eh     change       -0.4539263E-06 Eh
 * total energy  :   -91.8280563 Eh     change       -0.4523656E-06 Eh
 * total energy  :   -91.8280568 Eh     change       -0.4838037E-06 Eh
 * total energy  :   -91.8280568 Eh     change       -0.3334307E-08 Eh
   *** GEOMETRY OPTIMIZATION CONVERGED AFTER 94 ITERATIONS ***

 final structure:
================
60
 xtb: 6.7.1 (edcfbbe)
C           -2.31996420701429       -2.91971824532424        2.18777867972369
C           -0.98267917234151       -2.79451330332109        1.85789038336442
C           -0.56234613706430       -1.79590743823846        0.98122833848142
C            0.85813505148138       -1.65122872387855        0.62894111288209
C            1.65194204726018       -2.77093377479069        0.36756915158173
C            2.97243132468263       -2.61569132065670        0.02786931477273
C            3.57676883689573       -1.35275291585053       -0.06055350539118
C            4.96758537557688       -1.19682618221828       -0.44431880714793
C            5.75485334212151       -2.29691314800809       -0.81529688695500
C            7.07028133447278       -2.15563929782259       -1.18778804262806
C            7.64660413829719       -0.89165099110584       -1.20723949094526
C            6.89526725300065        0.20395984901138       -0.85400612119444
C            5.55303056213266        0.08817275739036       -0.46457028664832
C            4.76175954318497        1.25249639172952       -0.10503316381727
C            5.32296188289866        2.53721883199860       -0.06421962755911
C            4.57403277266881        3.64822827891388        0.24267460483888
C            3.21977426976495        3.50860609625348        0.51866799807504
C            2.64831618243318        2.25860537261944        0.50190495760711
C            3.39172925539617        1.10720329392397        0.20464410180915
C            2.79113994828550       -0.21589684769862        0.22942304168585
C            1.44313387372718       -0.40063246762743        0.55733613913090
C           -1.51050894559832       -0.93525089500249        0.43769573310656
C           -2.85345239227393       -1.05917233992623        0.77201995173828
N           -3.79429266378436       -0.17428860035119        0.21997772975732
C           -4.96351090268991       -0.52865108742534       -0.42191637813137
C           -5.46711745013791       -1.78966558825060       -0.70995765346058
C           -6.66680766846354       -1.86598457431257       -1.39133313905042
C           -7.35218491532585       -0.71933552335703       -1.78898535120279
C           -6.84446485554036        0.53763687297303       -1.52674457163261
C           -5.63956489385937        0.64058383098179       -0.84284574193231
C           -4.83042854002918        1.75162947261089       -0.42594567460808
C           -4.96650093017481        3.13000239431803       -0.53490738055864
C           -3.98718838759879        3.93760410553741        0.00849876902085
C           -2.89054061103575        3.38800113305066        0.67028061156834
C           -2.73393713525813        2.02068309586634        0.79238877514288
C           -3.70091447596894        1.20260890938462        0.22462559307298
C           -3.25965204250787       -2.05512345658081        1.65525991612379
H           -2.63419164429398       -3.69086220655480        2.87586658143859
H           -0.25479198104620       -3.46019751229757        2.29690948313896
H            1.21838015954755       -3.75919844099211        0.41075387919494
H            3.54726523793999       -3.50550064811369       -0.17029131412926
H            5.33170053931292       -3.28809024402774       -0.82277826122422
H            7.65027511147904       -3.02267888594041       -1.46894482251783
H            8.67803546928632       -0.76814847374412       -1.50377225543895
H            7.36736850710285        1.17203572993739       -0.89164103667352
H            6.37114214101969        2.67754594936262       -0.27167214779387
H            5.03718054959776        4.62395537279473        0.26653593906216
H            2.61903772373825        4.37577031083584        0.75172296509702
H            1.59736051423551        2.18369832268618        0.72809473757033
H            0.82469412063041        0.45057585230362        0.78922957300810
H           -1.21004623376267       -0.18150061924581       -0.27522684651299
H           -4.93604169338291       -2.68377350392907       -0.41978680836299
H           -7.08129679428934       -2.83624700890941       -1.62410494648509
H           -8.28920953593784       -0.82073510608052       -2.31689126423082
H           -7.36864029683547        1.42559107805615       -1.84789996605646
H           -5.82459985594703        3.55734540408556       -1.03224824435151
H           -4.07290392438029        5.01171975067588       -0.06916776420780
H           -2.14951922932017        4.04621581741779        1.10060531380053
H           -1.89381631629733        1.60247429076350        1.32608195101551
H           -4.30107523600480       -2.13745919389498        1.92760617403255

          :  Hamiltonian                  GFN2-xTB          :
         :: gradient norm              0.000049914844 Eh/a0 ::
         :: HOMO-LUMO gap              2.701539196621 eV    ::
         :: SCC energy               -93.611923406535 Eh    ::
         :: -> dispersion             -0.082013267920 Eh    ::
         :: -> Gsolv                  -0.037157581158 Eh    ::
         :: repulsion energy           1.783866612924 Eh    ::

    * Orbital Energies and Occupations

         #    Occupation            Energy/Eh            Energy/eV
      -------------------------------------------------------------
         1        2.0000           -0.6751738             -18.3724
       ...           ...                  ...                  ...
        74        2.0000           -0.4219124             -11.4808
        75        2.0000           -0.4184265             -11.3860
        76        2.0000           -0.4172979             -11.3553
        77        2.0000           -0.4105981             -11.1729
        78        2.0000           -0.4080211             -11.1028
        79        2.0000           -0.4050689             -11.0225
        80        2.0000           -0.4044646             -11.0060
        81        2.0000           -0.4031557             -10.9704
        82        2.0000           -0.3936182             -10.7109
        83        2.0000           -0.3805853             -10.3563
        84        2.0000           -0.3779808             -10.2854
        85        2.0000           -0.3770737             -10.2607
        86        2.0000           -0.3616117              -9.8400 (HOMO)
        87                         -0.2623320              -7.1384 (LUMO)
        88                         -0.2562885              -6.9740
        89                         -0.2453810              -6.6772
        90                         -0.2405035              -6.5444
        91                         -0.2319390              -6.3114
        92                         -0.2268507              -6.1729
        93                         -0.2213875              -6.0243
        94                         -0.1941903              -5.2842
        95                         -0.1934275              -5.2634
        96                         -0.1892995              -5.1511
        97                         -0.1856017              -5.0505
       ...                                ...                  ...
       171                          0.7451536              20.2767
      -------------------------------------------------------------
                  HL-Gap            0.0992797 Eh            2.7015 eV

     #   Z          covCN         q      C6AA      α(0)
     1   6 C        2.918    -0.029    28.727     8.789
     2   6 C        2.924    -0.038    28.946     8.823
     3   6 C        2.976     0.013    27.729     8.638
     4   6 C        2.975     0.007    27.857     8.658
     5   6 C        2.921    -0.037    28.912     8.818
     6   6 C        2.921    -0.037    28.925     8.820
     7   6 C        2.979     0.004    27.935     8.670
     8   6 C        2.979     0.005    27.905     8.665
     9   6 C        2.923    -0.037    28.918     8.819
    10   6 C        2.917    -0.033    28.810     8.802
    11   6 C        2.917    -0.033    28.810     8.802
    12   6 C        2.923    -0.037    28.915     8.818
    13   6 C        2.978     0.005    27.911     8.666
    14   6 C        2.979     0.005    27.907     8.665
    15   6 C        2.923    -0.037    28.915     8.818
    16   6 C        2.917    -0.032    28.809     8.802
    17   6 C        2.917    -0.032    28.808     8.802
    18   6 C        2.923    -0.036    28.905     8.817
    19   6 C        2.979     0.005    27.910     8.666
    20   6 C        2.977     0.005    27.912     8.666
    21   6 C        2.929    -0.041    29.030     8.836
    22   6 C        2.928    -0.048    29.185     8.860
    23   6 C        2.911     0.064    26.574     8.453
    24   7 N        2.802    -0.048    22.158     6.991
    25   6 C        3.076     0.048    26.848     8.495
    26   6 C        2.909    -0.052    29.292     8.875
    27   6 C        2.924    -0.035    28.878     8.813
    28   6 C        2.919    -0.043    29.069     8.841
    29   6 C        2.912    -0.035    28.874     8.811
    30   6 C        3.068    -0.019    28.416     8.741
    31   6 C        3.067    -0.019    28.414     8.741
    32   6 C        2.912    -0.035    28.871     8.811
    33   6 C        2.920    -0.043    29.070     8.842
    34   6 C        2.923    -0.035    28.877     8.812
    35   6 C        2.910    -0.051    29.276     8.872
    36   6 C        3.077     0.048    26.848     8.495
    37   6 C        2.921    -0.045    29.116     8.849
    38   1 H        0.926     0.040     2.451     2.448
    39   1 H        0.926     0.040     2.446     2.446
    40   1 H        0.926     0.035     2.523     2.484
    41   1 H        0.926     0.037     2.489     2.467
    42   1 H        0.926     0.035     2.511     2.478
    43   1 H        0.926     0.031     2.576     2.510
    44   1 H        0.926     0.031     2.578     2.511
    45   1 H        0.926     0.035     2.518     2.481
    46   1 H        0.926     0.035     2.515     2.480
    47   1 H        0.926     0.031     2.578     2.511
    48   1 H        0.926     0.031     2.579     2.511
    49   1 H        0.926     0.035     2.522     2.484
    50   1 H        0.926     0.037     2.495     2.470
    51   1 H        0.926     0.042     2.428     2.437
    52   1 H        0.926     0.030     2.593     2.518
    53   1 H        0.926     0.029     2.595     2.519
    54   1 H        0.926     0.027     2.628     2.535
    55   1 H        0.926     0.029     2.596     2.519
    56   1 H        0.926     0.029     2.596     2.520
    57   1 H        0.926     0.027     2.628     2.535
    58   1 H        0.926     0.029     2.597     2.520
    59   1 H        0.926     0.027     2.623     2.533
    60   1 H        0.926     0.040     2.442     2.444

molecular dipole:
                 x           y           z       tot (Debye)
 q only:        0.569      -0.448       0.254
   full:        0.588      -0.468       0.265       2.026

 projected vibrational frequencies (cm⁻¹)
eigval :       -0.00    -0.00     0.00     0.00     0.00     0.00
eigval :       10.62    17.93    19.88    33.28    44.88    62.47
eigval :       63.20    76.07   100.35   109.00   119.24   145.52
eigval :      149.83   202.72   208.21   217.39   235.55   248.42
eigval :      267.16   271.97   279.27   313.69   316.13   358.57
eigval :      381.63   392.95   395.44   396.65   400.16   408.13
eigval :      423.60   434.61   439.72   449.59   467.84   515.36
eigval :      517.25   522.75   528.55   540.04   542.01   556.00
eigval :      582.45   586.40   587.69   596.87   602.04   614.05
eigval :      639.83   670.83   674.05   676.43   677.93   688.72
eigval :      702.48   708.42   737.23   749.09   756.90   760.92
eigval :      765.00   766.87   778.83   780.78   797.27   822.80
eigval :      842.16   847.51   861.68   864.81   866.55   871.08
eigval :      892.63   896.55   900.56   903.60   904.56   906.46
eigval :      909.25   915.16   920.69   921.26   925.03   930.60
eigval :      931.13   940.09   976.75   999.98  1011.17  1019.02
eigval :     1031.76  1067.99  1071.43  1094.42  1098.30  1116.69
eigval :     1125.80  1127.30  1143.96  1150.15  1153.21  1169.94
eigval :     1173.64  1180.44  1180.73  1182.60  1190.00  1201.75
eigval :     1234.31  1235.02  1245.03  1255.67  1261.45  1264.44
eigval :     1269.29  1288.94  1299.75  1302.80  1311.88  1315.99
eigval :     1316.79  1334.80  1339.57  1352.44  1356.95  1359.57
eigval :     1363.77  1396.58  1414.44  1420.09  1426.91  1429.58
eigval :     1433.62  1446.54  1472.12  1475.89  1478.79  1487.07
eigval :     1494.88  1540.39  1560.27  1566.92  1570.48  1574.36
eigval :     1584.24  1587.22  1591.46  1593.01  1597.39  1604.88
eigval :     1613.23  3069.78  3070.12  3070.82  3070.92  3075.27
eigval :     3076.10  3076.57  3079.46  3080.02  3081.23  3083.03
eigval :     3083.96  3086.94  3089.23  3089.90  3092.32  3096.31
eigval :     3100.73  3101.94  3103.90  3113.03  3114.21  3116.72

   temp. (K)  partition function   enthalpy   heat capacity  entropy
                                   cal/mol     cal/K/mol   cal/K/mol   J/K/mol
 298.15  VIB  0.332E+12            15607.764    104.226     94.835
         ROT  0.404E+08              888.752      2.981     37.787
         INT  0.134E+20            16496.517    107.207    132.623
         TR   0.984E+28             1481.254      4.968     44.308
         TOT                       17977.7705   112.1748   176.9307   740.2782

       T/K    H(0)-H(T)+PV         H(T)/Eh          T*S/Eh         G(T)/Eh
   ------------------------------------------------------------------------
    298.15    0.286494E-01    0.492068E+00    0.840655E-01    0.408002E+00
   ------------------------------------------------------------------------

         :::::::::::::::::::::::::::::::::::::::::::::::::::::
         ::                  THERMODYNAMIC                  ::
         :::::::::::::::::::::::::::::::::::::::::::::::::::::
         :: total free energy         -91.420054369502 Eh   ::
         ::.................................................::
         :: total energy              -91.828056793068 Eh   ::
         :: zero point energy           0.463418528838 Eh   ::
         :: G(RRHO) w/o ZPVE           -0.055416105273 Eh   ::
         :: G(RRHO) contrib.            0.408002423566 Eh   ::
         :::::::::::::::::::::::::::::::::::::::::::::::::::::

           -------------------------------------------------
          | TOTAL ENERGY              -91.828056793068 Eh   |
          | TOTAL ENTHALPY            -91.335988863346 Eh   |
          | TOTAL FREE ENERGY         -91.420054369502 Eh   |
          | GRADIENT NORM               0.000049910765 Eh/α |
          | HOMO-LUMO GAP               2.701539145624 eV   |
           -------------------------------------------------

 * finished run on 2025/09/04 at 22:05:00.310
