   * xtb version 6.7.1 (edcfbbe) compiled by 'albert@albert-system' on 2024-07-22

   ID    Z sym.   atoms
    1    6 C      1-23, 25-37
    2    7 N      24
    3    1 H      38-60

          program call               : xtb data2507/toluene/D6/D6_toluene_S0_crest.xyz --gfn 2 --gbsa toluene --ohess vtight --parallel 40 --molden --ceasefiles --namespace data2507/toluene/D6/D6_toluene_S0_finalOpt
      * Solvation model:               GBSA
        Solvent                        toluene
        Solvent mass                       9.2140E+01 g/mol
          :  Hamiltonian                  GFN2-xTB          :
 * total energy  :   -91.8280570 Eh     change       -0.1864564E-08 Eh
 * total energy  :   -91.8280774 Eh     change       -0.2036593E-04 Eh
 * total energy  :   -91.8280858 Eh     change       -0.8422073E-05 Eh
 * total energy  :   -91.8280894 Eh     change       -0.3628031E-05 Eh
 * total energy  :   -91.8280942 Eh     change       -0.4786317E-05 Eh
 * total energy  :   -91.8280970 Eh     change       -0.2791292E-05 Eh
 * total energy  :   -91.8280997 Eh     change       -0.2743725E-05 Eh
 * total energy  :   -91.8281022 Eh     change       -0.2419850E-05 Eh
 * total energy  :   -91.8281041 Eh     change       -0.1901018E-05 Eh
 * total energy  :   -91.8281058 Eh     change       -0.1772939E-05 Eh
 * total energy  :   -91.8281164 Eh     change       -0.3024911E-05 Eh
 * total energy  :   -91.8281196 Eh     change       -0.3125646E-05 Eh
 * total energy  :   -91.8281228 Eh     change       -0.3251423E-05 Eh
 * total energy  :   -91.8281259 Eh     change       -0.3075436E-05 Eh
 * total energy  :   -91.8281284 Eh     change       -0.2481843E-05 Eh
 * total energy  :   -91.8281303 Eh     change       -0.1955288E-05 Eh
 * total energy  :   -91.8281318 Eh     change       -0.1529257E-05 Eh
 * total energy  :   -91.8281330 Eh     change       -0.1130103E-05 Eh
 * total energy  :   -91.8281330 Eh     change       -0.6161102E-08 Eh
   *** GEOMETRY OPTIMIZATION CONVERGED AFTER 22 ITERATIONS ***

 final structure:
================
60
 xtb: 6.7.1 (edcfbbe)
C           -2.19335673001061       -3.21655189190917        1.80925016731864
C           -0.86405621696315       -3.01327359403696        1.48653391106801
C           -0.48071863635704       -1.90644883097207        0.73051065757440
C            0.93259388995359       -1.67541503911510        0.39677351622942
C            1.77610942921059       -2.73608659671697        0.05491250015243
C            3.09955456312161       -2.50413577222386       -0.22366617348612
C            3.65657247813835       -1.21712823363073       -0.18345306449921
C            5.06827535332048       -0.98624411923789       -0.42753590898255
C            5.95069900755773       -2.04431813095373       -0.69108384396457
C            7.29409835529828       -1.83648222408354       -0.89362350652338
C            7.80619402935420       -0.54645870413897       -0.83191535853083
C            6.96263727550008        0.50873819517624       -0.57760257573976
C            5.58655429827867        0.32669640371487       -0.37776767240266
C            4.69842940942299        1.44903219508913       -0.12709279276551
C            5.16578116953558        2.77139734582114       -0.13603776490407
C            4.33103216268778        3.83913417243284        0.09351641497005
C            2.98147807182526        3.61636507271990        0.33588248948240
C            2.49633462724857        2.33028601713194        0.34561378933137
C            3.32731921317637        1.22272539503039        0.12294493710905
C            2.80542385973446       -0.13342249499828        0.12380764338780
C            1.46351135137880       -0.39878491709407        0.41916548628438
C           -1.46078003368233       -1.01801194535020        0.29896298189307
C           -2.79476338145491       -1.21635504857061        0.63281005520200
N           -3.76343122609908       -0.29197962682666        0.20827717305394
C           -4.93883104327117       -0.58801493605413       -0.45148862565893
C           -5.42535851736614       -1.81393786756675       -0.88396724621520
C           -6.63696812384912       -1.82991621452084       -1.54808778037354
C           -7.35051995511808       -0.65709791566146       -1.78880020942159
C           -6.86048866363683        0.56807892315002       -1.38220843667016
C           -5.64459439483662        0.61020168062779       -0.71145835158250
C           -4.84823243018564        1.67746902244372       -0.17289681961688
C           -5.01378305950403        3.05519903679732       -0.10292769331815
C           -4.04142538436510        3.80855800538366        0.52440963473687
C           -2.92268003599029        3.20345511910183        1.09447416758604
C           -2.73619316389288        1.83563706064357        1.03794345751704
C           -3.69637093422424        1.07525115029457        0.38474352671660
C           -3.16311757977653       -2.32133415941126        1.39434283573106
H           -2.47737559146036       -4.07336980009484        2.40263295418969
H           -0.11376173254025       -3.70401871980228        1.84067141123517
H            1.38137914722090       -3.73962433758929       -0.00433981605080
H            3.71343865769560       -3.35168117358619       -0.48115001923734
H            5.58450998369539       -3.05695109330151       -0.73530337264473
H            7.94793281862603       -2.67267313886099       -1.09462590713540
H            8.86186673396762       -0.37207473726239       -0.98114820793784
H            7.39156072656156        1.49628730077233       -0.52926914755340
H            6.20492714640780        2.97767630504298       -0.33362042529057
H            4.72293204177996        4.84581418494424        0.07960470815727
H            2.31446501796015        4.44805551933659        0.51054637940906
H            1.44217666605638        2.19250827846618        0.52236411789868
H            0.80865887485059        0.40813691860506        0.70304072002766
H           -1.19324250529616       -0.17819451541505       -0.32521068799204
H           -4.87248032439631       -2.72603182900297       -0.71643020867434
H           -7.03899727783249       -2.77236827354003       -1.89097977547124
H           -8.29598144870309       -0.71167338484003       -2.30852107756722
H           -7.40680905120488        1.47798329040543       -1.58224294263241
H           -5.88938175658278        3.52308056429794       -0.52806548235530
H           -4.15049329045467        4.88153224030744        0.58695942746353
H           -2.18799007484278        3.81754201529047        1.59521440561430
H           -1.87908840817790        1.37194736281483        1.50276413675124
H           -4.19796689499206       -2.46373576367660        1.66684230600788

          :  Hamiltonian                  GFN2-xTB          :
         :: gradient norm              0.000063378905 Eh/a0 ::
         :: HOMO-LUMO gap              2.689415800790 eV    ::
         :: SCC energy               -93.611837601073 Eh    ::
         :: -> dispersion             -0.082137129822 Eh    ::
         :: -> Gsolv                  -0.037139236903 Eh    ::
         :: repulsion energy           1.783704616137 Eh    ::

    * Orbital Energies and Occupations

         #    Occupation            Energy/Eh            Energy/eV
      -------------------------------------------------------------
         1        2.0000           -0.6752160             -18.3736
       ...           ...                  ...                  ...
        74        2.0000           -0.4219734             -11.4825
        75        2.0000           -0.4184532             -11.3867
        76        2.0000           -0.4173438             -11.3565
        77        2.0000           -0.4105220             -11.1709
        78        2.0000           -0.4075620             -11.0903
        79        2.0000           -0.4050958             -11.0232
        80        2.0000           -0.4045071             -11.0072
        81        2.0000           -0.4035115             -10.9801
        82        2.0000           -0.3935236             -10.7083
        83        2.0000           -0.3805919             -10.3564
        84        2.0000           -0.3780409             -10.2870
        85        2.0000           -0.3769021             -10.2560
        86        2.0000           -0.3616516              -9.8410 (HOMO)
        87                         -0.2628174              -7.1516 (LUMO)
        88                         -0.2562369              -6.9726
        89                         -0.2454158              -6.6781
        90                         -0.2406474              -6.5484
        91                         -0.2319031              -6.3104
        92                         -0.2267841              -6.1711
        93                         -0.2214483              -6.0259
        94                         -0.1942177              -5.2849
        95                         -0.1933212              -5.2605
        96                         -0.1892828              -5.1506
        97                         -0.1856661              -5.0522
       ...                                ...                  ...
       171                          0.7449981              20.2724
      -------------------------------------------------------------
                  HL-Gap            0.0988342 Eh            2.6894 eV

     #   Z          covCN         q      C6AA      α(0)
     1   6 C        2.918    -0.029    28.728     8.789
     2   6 C        2.924    -0.038    28.948     8.823
     3   6 C        2.976     0.012    27.731     8.638
     4   6 C        2.974     0.007    27.860     8.658
     5   6 C        2.921    -0.037    28.913     8.818
     6   6 C        2.921    -0.037    28.926     8.820
     7   6 C        2.979     0.004    27.935     8.670
     8   6 C        2.979     0.005    27.905     8.665
     9   6 C        2.923    -0.037    28.917     8.819
    10   6 C        2.917    -0.033    28.811     8.802
    11   6 C        2.917    -0.032    28.810     8.802
    12   6 C        2.923    -0.037    28.915     8.818
    13   6 C        2.978     0.005    27.910     8.666
    14   6 C        2.978     0.005    27.907     8.665
    15   6 C        2.923    -0.037    28.915     8.818
    16   6 C        2.917    -0.032    28.808     8.802
    17   6 C        2.917    -0.032    28.808     8.801
    18   6 C        2.923    -0.036    28.907     8.817
    19   6 C        2.979     0.005    27.911     8.666
    20   6 C        2.977     0.005    27.913     8.666
    21   6 C        2.930    -0.042    29.033     8.836
    22   6 C        2.928    -0.048    29.187     8.860
    23   6 C        2.911     0.064    26.575     8.453
    24   7 N        2.802    -0.048    22.159     6.991
    25   6 C        3.076     0.048    26.848     8.495
    26   6 C        2.909    -0.052    29.292     8.875
    27   6 C        2.924    -0.035    28.878     8.813
    28   6 C        2.919    -0.043    29.069     8.841
    29   6 C        2.912    -0.035    28.874     8.811
    30   6 C        3.068    -0.019    28.416     8.741
    31   6 C        3.067    -0.019    28.414     8.741
    32   6 C        2.912    -0.035    28.871     8.811
    33   6 C        2.920    -0.043    29.070     8.842
    34   6 C        2.923    -0.035    28.878     8.812
    35   6 C        2.910    -0.051    29.278     8.873
    36   6 C        3.077     0.048    26.848     8.495
    37   6 C        2.921    -0.045    29.116     8.849
    38   1 H        0.926     0.040     2.452     2.449
    39   1 H        0.926     0.040     2.444     2.445
    40   1 H        0.926     0.035     2.521     2.483
    41   1 H        0.926     0.037     2.490     2.468
    42   1 H        0.926     0.035     2.511     2.478
    43   1 H        0.926     0.031     2.576     2.510
    44   1 H        0.926     0.031     2.578     2.511
    45   1 H        0.926     0.035     2.518     2.481
    46   1 H        0.926     0.035     2.516     2.480
    47   1 H        0.926     0.031     2.578     2.511
    48   1 H        0.926     0.031     2.578     2.511
    49   1 H        0.926     0.035     2.522     2.483
    50   1 H        0.926     0.037     2.488     2.467
    51   1 H        0.926     0.042     2.427     2.436
    52   1 H        0.926     0.030     2.593     2.518
    53   1 H        0.926     0.029     2.595     2.519
    54   1 H        0.926     0.027     2.628     2.535
    55   1 H        0.926     0.029     2.596     2.519
    56   1 H        0.926     0.029     2.596     2.520
    57   1 H        0.926     0.027     2.628     2.535
    58   1 H        0.926     0.029     2.597     2.520
    59   1 H        0.926     0.027     2.622     2.532
    60   1 H        0.926     0.040     2.443     2.444

molecular dipole:
                 x           y           z       tot (Debye)
 q only:        0.586      -0.460       0.192
   full:        0.603      -0.482       0.204       2.030

 projected vibrational frequencies (cm⁻¹)
eigval :       -0.00     0.00     0.00     0.00     0.00     0.00
eigval :       14.46    18.84    20.95    32.79    40.74    64.56
eigval :       65.16    72.19    99.74   107.46   119.24   146.03
eigval :      147.71   201.87   211.55   218.24   234.89   248.86
eigval :      264.40   271.64   280.24   312.84   319.08   358.78
eigval :      384.23   392.29   395.07   396.66   400.25   408.59
eigval :      424.30   434.76   440.24   450.44   467.70   514.75
eigval :      517.15   521.55   528.62   539.69   541.49   555.82
eigval :      581.50   586.56   587.86   596.31   603.63   613.78
eigval :      638.66   670.32   673.42   675.99   678.40   688.96
eigval :      702.11   709.04   736.86   749.38   756.91   758.53
eigval :      765.20   766.68   778.42   778.80   795.02   820.15
eigval :      842.48   845.79   860.29   863.44   867.61   870.65
eigval :      892.25   895.61   899.70   901.97   903.30   906.39
eigval :      907.55   913.69   918.37   922.68   923.22   925.06
eigval :      930.21   940.08   976.63  1000.16  1011.28  1019.18
eigval :     1032.12  1068.37  1071.84  1094.27  1098.22  1116.72
eigval :     1126.01  1127.96  1143.82  1149.60  1153.70  1170.39
eigval :     1173.22  1180.32  1181.16  1182.92  1190.55  1201.45
eigval :     1234.75  1235.44  1245.59  1256.30  1262.35  1264.43
eigval :     1269.62  1288.85  1299.76  1302.92  1311.68  1316.11
eigval :     1316.88  1334.69  1339.72  1352.55  1357.13  1359.76
eigval :     1363.78  1396.33  1414.39  1420.00  1427.05  1429.33
eigval :     1433.66  1446.17  1472.32  1475.92  1478.57  1487.13
eigval :     1494.71  1539.93  1560.06  1566.77  1570.54  1574.29
eigval :     1583.59  1587.35  1591.54  1593.07  1597.48  1604.84
eigval :     1613.26  3069.15  3070.66  3070.68  3071.01  3074.36
eigval :     3075.89  3076.55  3079.73  3080.50  3081.47  3082.07
eigval :     3083.96  3087.99  3089.51  3089.84  3092.20  3096.29
eigval :     3101.01  3102.12  3104.68  3112.88  3114.17  3116.91

   temp. (K)  partition function   enthalpy   heat capacity  entropy
                                   cal/mol     cal/K/mol   cal/K/mol   J/K/mol
 298.15  VIB  0.248E+12            15610.404    104.202     94.522
         ROT  0.400E+08              888.752      2.981     37.769
         INT  0.995E+19            16499.156    107.183    132.291
         TR   0.984E+28             1481.254      4.968     44.308
         TOT                       17980.4102   112.1508   176.5995   738.8921

       T/K    H(0)-H(T)+PV         H(T)/Eh          T*S/Eh         G(T)/Eh
   ------------------------------------------------------------------------
    298.15    0.286536E-01    0.492017E+00    0.839081E-01    0.408108E+00
   ------------------------------------------------------------------------

         :::::::::::::::::::::::::::::::::::::::::::::::::::::
         ::                  THERMODYNAMIC                  ::
         :::::::::::::::::::::::::::::::::::::::::::::::::::::
         :: total free energy         -91.420024584979 Eh   ::
         ::.................................................::
         :: total energy              -91.828132984964 Eh   ::
         :: zero point energy           0.463362895063 Eh   ::
         :: G(RRHO) w/o ZPVE           -0.055254495077 Eh   ::
         :: G(RRHO) contrib.            0.408108399985 Eh   ::
         :::::::::::::::::::::::::::::::::::::::::::::::::::::

           -------------------------------------------------
          | TOTAL ENERGY              -91.828132984964 Eh   |
          | TOTAL ENTHALPY            -91.336116482400 Eh   |
          | TOTAL FREE ENERGY         -91.420024584979 Eh   |
          | GRADIENT NORM               0.000063379620 Eh/α |
          | HOMO-LUMO GAP               2.689415745366 eV   |
           -------------------------------------------------

 * finished run on 2025/09/04 at 22:07:16.212
