   * xtb version 6.7.1 (edcfbbe) compiled by 'albert@albert-system' on 2024-07-22

   ID    Z sym.   atoms
    1    6 C      1-23, 25-37
    2    7 N      24
    3    1 H      38-60

          program call               : xtb data2507/toluene/D6/D6_toluene_T1_crest.xyz --gfn 2 --uhf 2 --gbsa toluene --ohess vtight --parallel 40 --molden --ceasefiles --namespace data2507/toluene/D6/D6_toluene_T1_finalOpt
      * Solvation model:               GBSA
        Solvent                        toluene
        Solvent mass                       9.2140E+01 g/mol
          :  Hamiltonian                  GFN2-xTB          :
 * total energy  :   -91.7286639 Eh     change       -0.1797375E-08 Eh
 * total energy  :   -91.7286842 Eh     change       -0.2027325E-04 Eh
 * total energy  :   -91.7286882 Eh     change       -0.4036605E-05 Eh
 * total energy  :   -91.7286917 Eh     change       -0.3476313E-05 Eh
 * total energy  :   -91.7286943 Eh     change       -0.2586114E-05 Eh
 * total energy  :   -91.7286977 Eh     change       -0.3355843E-05 Eh
 * total energy  :   -91.7287017 Eh     change       -0.4080741E-05 Eh
 * total energy  :   -91.7287052 Eh     change       -0.3503559E-05 Eh
 * total energy  :   -91.7287079 Eh     change       -0.2629620E-05 Eh
 * total energy  :   -91.7287102 Eh     change       -0.2363692E-05 Eh
 * total energy  :   -91.7287195 Eh     change       -0.1933636E-05 Eh
 * total energy  :   -91.7287213 Eh     change       -0.1764203E-05 Eh
 * total energy  :   -91.7287230 Eh     change       -0.1778671E-05 Eh
 * total energy  :   -91.7287250 Eh     change       -0.1944855E-05 Eh
 * total energy  :   -91.7287271 Eh     change       -0.2087863E-05 Eh
 * total energy  :   -91.7287291 Eh     change       -0.2041357E-05 Eh
 * total energy  :   -91.7287309 Eh     change       -0.1763459E-05 Eh
 * total energy  :   -91.7287323 Eh     change       -0.1456050E-05 Eh
 * total energy  :   -91.7287323 Eh     change       -0.6983797E-08 Eh
   *** GEOMETRY OPTIMIZATION CONVERGED AFTER 22 ITERATIONS ***

 final structure:
================
60
 xtb: 6.7.1 (edcfbbe)
C           -2.27007667089232       -3.41720328152713        1.55660919868717
C           -0.92943180760957       -3.19135147884205        1.37097160378322
C           -0.44962847683695       -1.98469666502482        0.78318597665331
C            0.93724383848916       -1.73257946142301        0.59992194510448
C            1.92211065316789       -2.76922249675373        0.65523488190236
C            3.22981745948584       -2.51663654320005        0.42641051106448
C            3.72577335715192       -1.19859639224813        0.13264076640085
C            5.04257274320910       -0.95121293077593       -0.27608785502227
C            5.99118394085306       -2.00114641451146       -0.47010346003928
C            7.23904685505679       -1.76367051177164       -0.96486684311099
C            7.62315717244443       -0.45983900403540       -1.30588012228984
C            6.74492019653122        0.58646772843119       -1.09849937287639
C            5.47273563640151        0.39397947991686       -0.56728662257483
C            4.58344488322315        1.50092412160033       -0.27599339534035
C            5.02154560089802        2.83048610490355       -0.34075669946439
C            4.18679451350856        3.88914857114330       -0.03844767430383
C            2.88570478312735        3.64301078070736        0.35981498340959
C            2.43403385907333        2.33711980171625        0.44549156230822
C            3.25000527947681        1.25259719474929        0.12098966477848
C            2.76693855255263       -0.12095704142073        0.21911228281530
C            1.43946188504747       -0.41273799005666        0.38893265341999
C           -1.43439980752287       -1.04732884033327        0.38075056693181
C           -2.77677256920952       -1.28479082599771        0.57034932554279
N           -3.71793181638587       -0.31966813371283        0.17553268717013
C           -4.83325257761754       -0.54873387125925       -0.60145235136080
C           -5.26577990873133       -1.72483543622442       -1.20055411453000
C           -6.42326091263425       -1.67653047059585       -1.95484441338644
C           -7.13162343741924       -0.48877704921369       -2.12356318657396
C           -6.69160130852773        0.69104332690171       -1.55103095119011
C           -5.53353975151313        0.66732103272545       -0.78753595127401
C           -4.79142763052288        1.67590001718691       -0.07925005738828
C           -4.97521295500202        3.03691799944196        0.11868883784449
C           -4.05786952287972        3.72350312461677        0.89318333884049
C           -2.97939336888763        3.06548012655626        1.48063751247736
C           -2.77536500601767        1.71070442956107        1.29735186896502
C           -3.67747260144939        1.02084869946579        0.49779169044787
C           -3.21849147358497       -2.47432305184370        1.17121353617677
H           -2.59940595272167       -4.33511271643380        2.02215026859349
H           -0.22503455767841       -3.93061558917622        1.71624744756706
H            1.61293188700275       -3.78534979747551        0.84437047570655
H            3.92495233399653       -3.33989888730573        0.46251543644767
H            5.71304657000167       -3.01535164666250       -0.23460235048800
H            7.93270942160727       -2.58017820746356       -1.10668296421190
H            8.60127143643009       -0.27394005287121       -1.72325354885868
H            7.07065227304573        1.57775777669779       -1.37218593347237
H            6.03963864398496        3.05109888450110       -0.61830268147686
H            4.55763579157842        4.90195167823817       -0.10209603643956
H            2.22526497212885        4.45938215098451        0.61315655331478
H            1.42552083986327        2.17272946764157        0.79041886886395
H            0.72786600383315        0.39468997064190        0.40911654170400
H           -1.14270163522688       -0.14560809952301       -0.13396024065142
H           -4.71125534341638       -2.64430525918292       -1.09032171083024
H           -6.78348126350044       -2.57834257079455       -2.42769123436395
H           -8.03224492451531       -0.49131446709496       -2.71965641174736
H           -7.23402710648532        1.61313249097468       -1.69631513265321
H           -5.82011999484052        3.54571014149430       -0.32039294325001
H           -4.18133418329263        4.78406145708596        1.05584278196724
H           -2.29010553296071        3.62525072279860        2.09574526341461
H           -1.94959993506380        1.20268481457007        1.77208667150527
H           -4.26920716722451       -2.63200801329910        1.35495028905975

          :  Hamiltonian                  GFN2-xTB          :
         :: gradient norm              0.000066070603 Eh/a0 ::
         :: HOMO-LUMO gap              0.628266023333 eV    ::
         :: SCC energy               -93.492769264922 Eh    ::
         :: -> dispersion             -0.082028219910 Eh    ::
         :: -> Gsolv                  -0.037126385066 Eh    ::
         :: repulsion energy           1.764036930577 Eh    ::

    * Orbital Energies and Occupations

         #    Occupation            Energy/Eh            Energy/eV
      -------------------------------------------------------------
         1        2.0000           -0.6821563             -18.5624
       ...           ...                  ...                  ...
        75        2.0000           -0.4201033             -11.4316
        76        2.0000           -0.4188436             -11.3973
        77        2.0000           -0.4108493             -11.1798
        78        2.0000           -0.4100660             -11.1585
        79        2.0000           -0.4053547             -11.0303
        80        2.0000           -0.4020889             -10.9414
        81        2.0000           -0.3968221             -10.7981
        82        2.0000           -0.3897837             -10.6066
        83        2.0000           -0.3843403             -10.4584
        84        2.0000           -0.3793048             -10.3214
        85        1.9390           -0.3676734             -10.0049
        86        1.0610           -0.3624787              -9.8635
        87        1.0000           -0.2736590              -7.4466 (HOMO)
        88        0.0000           -0.2505703              -6.8184 (LUMO)
        89        0.0000           -0.2495949              -6.7918
        90                         -0.2389246              -6.5015
        91                         -0.2290838              -6.2337
        92                         -0.2279943              -6.2040
        93                         -0.2236930              -6.0870
        94                         -0.1964304              -5.3451
        95                         -0.1915800              -5.2132
        96                         -0.1893919              -5.1536
        97                         -0.1857100              -5.0534
        98                         -0.1739015              -4.7321
       ...                                ...                  ...
       171                          0.7393548              20.1189
      -------------------------------------------------------------
                  HL-Gap            0.0230887 Eh            0.6283 eV

     #   Z          covCN         q      C6AA      α(0)
     1   6 C        2.911    -0.031    28.775     8.796
     2   6 C        2.919    -0.037    28.931     8.820
     3   6 C        2.967     0.006    27.891     8.663
     4   6 C        2.967     0.001    27.999     8.679
     5   6 C        2.911    -0.039    28.966     8.825
     6   6 C        2.910    -0.039    28.960     8.824
     7   6 C        2.975    -0.002    28.078     8.692
     8   6 C        2.973     0.004    27.931     8.669
     9   6 C        2.917    -0.039    28.970     8.826
    10   6 C        2.911    -0.033    28.810     8.801
    11   6 C        2.915    -0.036    28.905     8.816
    12   6 C        2.917    -0.036    28.902     8.816
    13   6 C        2.975     0.001    28.008     8.681
    14   6 C        2.977     0.004    27.921     8.668
    15   6 C        2.923    -0.038    28.950     8.824
    16   6 C        2.916    -0.033    28.825     8.804
    17   6 C        2.916    -0.034    28.840     8.806
    18   6 C        2.923    -0.038    28.934     8.821
    19   6 C        2.979     0.003    27.949     8.672
    20   6 C        2.969     0.002    27.976     8.676
    21   6 C        2.920    -0.046    29.146     8.853
    22   6 C        2.924    -0.055    29.378     8.889
    23   6 C        2.906     0.060    26.655     8.466
    24   7 N        2.803    -0.031    21.834     6.940
    25   6 C        3.076     0.049    26.830     8.492
    26   6 C        2.909    -0.046    29.152     8.853
    27   6 C        2.923    -0.033    28.822     8.804
    28   6 C        2.920    -0.038    28.938     8.821
    29   6 C        2.912    -0.032    28.796     8.799
    30   6 C        3.066    -0.015    28.325     8.727
    31   6 C        3.066    -0.015    28.326     8.727
    32   6 C        2.912    -0.032    28.797     8.800
    33   6 C        2.920    -0.038    28.942     8.822
    34   6 C        2.923    -0.033    28.821     8.804
    35   6 C        2.909    -0.046    29.152     8.853
    36   6 C        3.076     0.048    26.838     8.494
    37   6 C        2.919    -0.050    29.235     8.867
    38   1 H        0.926     0.035     2.512     2.479
    39   1 H        0.926     0.038     2.479     2.462
    40   1 H        0.926     0.031     2.579     2.511
    41   1 H        0.926     0.031     2.575     2.509
    42   1 H        0.926     0.032     2.560     2.502
    43   1 H        0.926     0.027     2.625     2.534
    44   1 H        0.926     0.027     2.625     2.534
    45   1 H        0.926     0.031     2.573     2.508
    46   1 H        0.926     0.033     2.550     2.497
    47   1 H        0.926     0.029     2.595     2.519
    48   1 H        0.926     0.030     2.588     2.516
    49   1 H        0.926     0.033     2.550     2.497
    50   1 H        0.926     0.034     2.535     2.490
    51   1 H        0.926     0.038     2.480     2.463
    52   1 H        0.926     0.037     2.495     2.470
    53   1 H        0.926     0.036     2.509     2.477
    54   1 H        0.926     0.034     2.527     2.486
    55   1 H        0.926     0.036     2.498     2.471
    56   1 H        0.926     0.036     2.499     2.472
    57   1 H        0.926     0.034     2.530     2.487
    58   1 H        0.926     0.035     2.516     2.481
    59   1 H        0.926     0.035     2.518     2.481
    60   1 H        0.926     0.038     2.482     2.463

molecular dipole:
                 x           y           z       tot (Debye)
 q only:       -0.900      -0.061       0.065
   full:       -0.843      -0.104       0.080       2.169

 projected vibrational frequencies (cm⁻¹)
eigval :       -0.00    -0.00    -0.00    -0.00     0.00     0.00
eigval :        8.54    15.73    22.66    31.50    50.57    61.68
eigval :       68.65    72.60    93.52   104.12   117.14   140.20
eigval :      141.64   175.70   200.30   214.11   233.83   240.43
eigval :      252.30   269.20   283.27   290.10   311.18   349.24
eigval :      361.06   374.66   388.58   391.40   395.15   400.94
eigval :      410.52   421.55   434.46   446.72   460.68   472.52
eigval :      497.60   511.17   516.71   536.98   540.58   551.87
eigval :      560.70   573.87   579.45   585.53   590.94   606.82
eigval :      613.44   635.81   648.55   666.21   667.49   674.26
eigval :      685.80   708.84   723.69   731.88   735.44   749.71
eigval :      755.61   756.72   758.78   769.75   778.26   779.17
eigval :      807.78   829.63   830.49   833.16   839.51   844.13
eigval :      871.70   875.15   883.00   890.08   892.28   896.30
eigval :      902.74   904.63   908.24   909.44   915.24   921.65
eigval :      923.40   930.25   945.58   972.60   986.73  1007.70
eigval :     1011.78  1044.47  1067.09  1070.14  1080.46  1111.16
eigval :     1112.79  1120.87  1123.72  1140.55  1145.25  1164.30
eigval :     1172.83  1175.32  1179.58  1182.03  1185.73  1191.60
eigval :     1208.31  1231.51  1232.63  1241.07  1242.92  1251.57
eigval :     1256.72  1269.51  1284.76  1292.06  1293.99  1312.37
eigval :     1327.93  1332.35  1343.92  1346.22  1349.87  1356.16
eigval :     1362.11  1365.60  1375.35  1381.19  1402.65  1411.00
eigval :     1415.64  1433.13  1435.00  1447.97  1461.60  1465.00
eigval :     1482.26  1485.31  1490.08  1495.49  1534.42  1550.45
eigval :     1560.78  1566.32  1572.79  1580.12  1583.24  1590.12
eigval :     1606.34  3068.58  3069.37  3073.14  3075.03  3076.38
eigval :     3079.25  3080.95  3081.78  3082.09  3085.92  3088.06
eigval :     3088.98  3094.17  3094.30  3095.46  3097.67  3098.72
eigval :     3100.73  3102.51  3105.99  3107.34  3110.68  3121.43

   temp. (K)  partition function   enthalpy   heat capacity  entropy
                                   cal/mol     cal/K/mol   cal/K/mol   J/K/mol
 298.15  VIB  0.713E+12            16012.440    106.700     97.643
         ROT  0.402E+08              888.752      2.981     37.775
         INT  0.286E+20            16901.192    109.681    135.418
         TR   0.984E+28             1481.254      4.968     44.308
         TOT                       18382.4460   114.6492   179.7258   751.9725

       T/K    H(0)-H(T)+PV         H(T)/Eh          T*S/Eh         G(T)/Eh
   ------------------------------------------------------------------------
    298.15    0.292943E-01    0.487902E+00    0.853935E-01    0.402508E+00
   ------------------------------------------------------------------------

         :::::::::::::::::::::::::::::::::::::::::::::::::::::
         ::                  THERMODYNAMIC                  ::
         :::::::::::::::::::::::::::::::::::::::::::::::::::::
         :: total free energy         -91.326223850995 Eh   ::
         ::.................................................::
         :: total energy              -91.728732334118 Eh   ::
         :: zero point energy           0.458607694202 Eh   ::
         :: G(RRHO) w/o ZPVE           -0.056099211079 Eh   ::
         :: G(RRHO) contrib.            0.402508483123 Eh   ::
         :::::::::::::::::::::::::::::::::::::::::::::::::::::

           -------------------------------------------------
          | TOTAL ENERGY              -91.728732334118 Eh   |
          | TOTAL ENTHALPY            -91.240830347519 Eh   |
          | TOTAL FREE ENERGY         -91.326223850995 Eh   |
          | GRADIENT NORM               0.000065929823 Eh/α |
          | HOMO-LUMO GAP               0.628275038559 eV   |
           -------------------------------------------------

 * finished run on 2025/09/04 at 22:10:36.447
