   * xtb version 6.7.1 (edcfbbe) compiled by 'albert@albert-system' on 2024-07-22

   ID    Z sym.   atoms
    1    6 C      1-12, 14-22, 25-33, 35-50, 52-55
    2    7 N      13, 23, 24, 34
    3    8 O      51
    4    1 H      56-87

          program call               : xtb data2507/gas/Oxd-bCZ/Oxd-bCZ_gas_S0_crest.xyz --gfn 2 --ohess vtight --parallel 40 --molden --ceasefiles --namespace data2507/gas/Oxd-bCZ/Oxd-bCZ_gas_S0_finalOpt
          :  Hamiltonian                  GFN2-xTB          :
 * total energy  :  -139.2171372 Eh     change       -0.8062955E-09 Eh
 * total energy  :  -139.2171383 Eh     change       -0.1080467E-05 Eh
 * total energy  :  -139.2171392 Eh     change       -0.8548637E-06 Eh
 * total energy  :  -139.2171418 Eh     change       -0.2595792E-05 Eh
 * total energy  :  -139.2171439 Eh     change       -0.2087528E-05 Eh
 * total energy  :  -139.2171458 Eh     change       -0.1950508E-05 Eh
 * total energy  :  -139.2171490 Eh     change       -0.3160990E-05 Eh
 * total energy  :  -139.2171538 Eh     change       -0.4819953E-05 Eh
 * total energy  :  -139.2171580 Eh     change       -0.4221528E-05 Eh
 * total energy  :  -139.2171608 Eh     change       -0.2749241E-05 Eh
 * total energy  :  -139.2171899 Eh     change       -0.1231962E-05 Eh
 * total energy  :  -139.2171908 Eh     change       -0.8754816E-06 Eh
 * total energy  :  -139.2171913 Eh     change       -0.5436816E-06 Eh
 * total energy  :  -139.2171917 Eh     change       -0.3492037E-06 Eh
 * total energy  :  -139.2171919 Eh     change       -0.2549529E-06 Eh
 * total energy  :  -139.2171922 Eh     change       -0.2496614E-06 Eh
 * total energy  :  -139.2171924 Eh     change       -0.2438187E-06 Eh
 * total energy  :  -139.2171927 Eh     change       -0.2950310E-06 Eh
 * total energy  :  -139.2171927 Eh     change       -0.3144919E-08 Eh
   *** GEOMETRY OPTIMIZATION CONVERGED AFTER 44 ITERATIONS ***

 final structure:
================
87
 xtb: 6.7.1 (edcfbbe)
C          -13.08649730233368       -1.64380097479036        3.02713674448830
C          -11.80940757420061       -1.23947283375608        3.40945127446692
C          -10.84912388660627       -0.90155495290570        2.47509498303770
C          -11.19855289239505       -0.96820130311266        1.13402025626334
C          -12.48405249488992       -1.40131201643902        0.73605297627126
C          -13.43217681495061       -1.73582271636273        1.69383541835123
C          -12.48889387839200       -1.40093533091333       -0.70013874818860
C          -13.45344867356695       -1.70488517893744       -1.65169414473243
C          -13.12974798952271       -1.57300429512911       -2.98716367029507
C          -11.86830526184029       -1.12934193257605       -3.37774271297485
C          -10.89208807932740       -0.82098690864592       -2.44970122539632
C          -11.20344245520633       -0.97561002656627       -1.10650065382771
N          -10.43393068779225       -0.71600325642346        0.01124914409198
C           -9.10575813893578       -0.27482204502213        0.00675663851205
C           -8.14890638499110       -0.93209658228354       -0.76262816282454
C           -6.84030270403379       -0.49453832014671       -0.76468220031834
C           -6.45170651586518        0.60612835166612       -0.00261637139125
C           -5.05857601683295        1.06948052855170       -0.00813874196713
C           -4.00558617082051        0.15485562887888        0.01104098438275
C           -2.69571568807228        0.58551937213044        0.00740976476241
C           -2.41035495292991        1.95004241276112       -0.02240219666355
C           -1.04840362516448        2.42282780708931       -0.03474344901970
N           -0.65210947412915        3.66293901852333       -0.07472957963075
N            0.68471553670132        3.65550626311645       -0.07669987195118
C            1.06736804927603        2.41104374264878       -0.03731672291133
C            2.42427927006050        1.92403828766481       -0.02586776962618
C            2.69663740598625        0.55802811357269        0.03825549101796
C            4.00235786147101        0.11492755437660        0.04849342171877
C            5.06390695738228        1.01781406009090       -0.01179303313602
C            6.45244836081517        0.54241680916487       -0.00752258673095
C            6.84595895793842       -0.50831697185576        0.81991467306118
C            8.15360266560132       -0.94826453343817        0.83439603518089
C            9.10099680320245       -0.35700920588091        0.00194456308961
N           10.42663261856238       -0.80397498804893        0.00832651990602
C           11.54828683321499       -0.00399380221574        0.11688079328536
C           11.64187678597912        1.36893870357916        0.29389181271779
C           12.90394532026165        1.92095128967011        0.40287669204283
C           14.05074005857655        1.13210143488574        0.34765512418307
C           13.96309770197640       -0.23741488251186        0.19808043134342
C           12.70543532677487       -0.81530131340369        0.08631288760525
C           12.25081897127030       -2.17046708511924       -0.05343351270327
C           12.90550335478497       -3.39053518163761       -0.15749519056928
C           12.14989913352093       -4.53588177264488       -0.30892130666503
C           10.75983717273190       -4.47290835663497       -0.37344223119631
C           10.08600293585016       -3.27071649150860       -0.27249270388267
C           10.83866494816323       -2.11892514992267       -0.09389223035472
C            8.71428270868773        0.68590685846753       -0.83663247126097
C            7.40934623274713        1.13335098099737       -0.83155978030192
C            4.78032498980417        2.38352630716173       -0.07741196723880
C            3.47931573055694        2.83601323648611       -0.08124082434990
O            0.00485662176083        1.57059151913469       -0.00852504477693
C           -3.45669316890323        2.87335983225048       -0.04397746902219
C           -4.76219457797084        2.43372321438906       -0.03351821414381
C           -7.41640732593600        1.25773887652812        0.76423311745933
C           -8.72684540615681        0.82579965637055        0.77141720855978
H          -13.80960551103333       -1.89692512805177        3.78811703425026
H          -11.56267007937610       -1.19243276845085        4.45992574393212
H           -9.85666006995525       -0.60748293623969        2.78203433396688
H          -14.41633376213618       -2.06519027456137        1.39649651894698
H          -14.43629345865206       -2.03234861335718       -1.34797325057814
H          -13.86441551846780       -1.80631042959679       -3.74339483116034
H          -11.64926452975148       -1.01989330021723       -4.42970673546119
H           -9.92410875521193       -0.45962923084775       -2.76293550025430
H           -8.43611937203140       -1.79417899086943       -1.34589783543502
H           -6.11093555829227       -1.00321248940582       -1.37758499165667
H           -4.22001525753014       -0.90295969696727        0.05092295865159
H           -1.88612653387175       -0.12878380318273        0.02902887195728
H            1.88027977534097       -0.14780050064383        0.07732134611108
H            4.20645950038681       -0.94517743711405        0.08092473072897
H            6.12547034323484       -0.96204398543185        1.48432013554075
H            8.45445480774499       -1.74017441306108        1.50384020494200
H           10.75952562670130        1.98770656707423        0.35785167534186
H           13.00287972010203        2.98797493025555        0.53782124770899
H           15.01909265967639        1.60212333931021        0.43364945138918
H           14.85061312404013       -0.85152068411954        0.17280152621939
H           13.98359132796397       -3.43642002215931       -0.12487016704590
H           12.63893120535365       -5.49530279120911       -0.38898196099241
H           10.19573495821029       -5.38392285148881       -0.50936775332471
H            9.00944132458776       -3.23167822885625       -0.34364655447949
H            9.43946292705304        1.12933671090237       -1.50236304577750
H            7.11793531572306        1.93057714746128       -1.49917282539006
H            5.59347106444349        3.09345260158673       -0.10374571792684
H            3.25011211707855        3.88873767227195       -0.12502289760156
H           -3.21758931099995        3.92443821826615       -0.07137569900170
H           -5.56840825328786        3.15119246110532       -0.06811221316475
H           -7.13174348921000        2.10337640148967        1.37255243062528
H           -9.46888406842698        1.34665621047693        1.35782700828048

          :  Hamiltonian                  GFN2-xTB          :
         :: gradient norm              0.000037425336 Eh/a0 ::
         :: HOMO-LUMO gap              2.055187566289 eV    ::
         :: SCC energy              -141.763221703678 Eh    ::
         :: -> dispersion             -0.115900907605 Eh    ::
         :: repulsion energy           2.546028968311 Eh    ::

    * Orbital Energies and Occupations

         #    Occupation            Energy/Eh            Energy/eV
      -------------------------------------------------------------
         1        2.0000           -0.7664174             -20.8553
       ...           ...                  ...                  ...
       117        2.0000           -0.4187911             -11.3959
       118        2.0000           -0.4170381             -11.3482
       119        2.0000           -0.4169217             -11.3450
       120        2.0000           -0.4155317             -11.3072
       121        2.0000           -0.4055759             -11.0363
       122        2.0000           -0.4053137             -11.0291
       123        2.0000           -0.4037748             -10.9873
       124        2.0000           -0.3893795             -10.5956
       125        2.0000           -0.3846319             -10.4664
       126        2.0000           -0.3789894             -10.3128
       127        2.0000           -0.3787114             -10.3053
       128        2.0000           -0.3633311              -9.8867
       129        2.0000           -0.3628059              -9.8725 (HOMO)
       130                         -0.2872791              -7.8173 (LUMO)
       131                         -0.2685671              -7.3081
       132                         -0.2466104              -6.7106
       133                         -0.2453992              -6.6777
       134                         -0.2383342              -6.4854
       135                         -0.2372344              -6.4555
       136                         -0.2371463              -6.4531
       137                         -0.2370435              -6.4503
       138                         -0.2367152              -6.4413
       139                         -0.2315412              -6.3006
       140                         -0.2222319              -6.0472
       ...                                ...                  ...
       252                          0.7458587              20.2958
      -------------------------------------------------------------
                  HL-Gap            0.0755267 Eh            2.0552 eV

     #   Z          covCN         q      C6AA      α(0)
     1   6 C        2.920    -0.041    29.009     8.832
     2   6 C        2.924    -0.033    28.831     8.805
     3   6 C        2.910    -0.051    29.266     8.871
     4   6 C        3.075     0.046    26.881     8.501
     5   6 C        3.068    -0.017    28.355     8.732
     6   6 C        2.913    -0.033    28.814     8.802
     7   6 C        3.068    -0.017    28.356     8.732
     8   6 C        2.913    -0.033    28.814     8.802
     9   6 C        2.920    -0.041    29.009     8.832
    10   6 C        2.924    -0.033    28.830     8.805
    11   6 C        2.910    -0.051    29.265     8.871
    12   6 C        3.075     0.046    26.880     8.501
    13   7 N        2.802    -0.044    22.082     6.979
    14   6 C        2.913     0.065    26.551     8.449
    15   6 C        2.920    -0.043    29.068     8.841
    16   6 C        2.924    -0.033    28.813     8.803
    17   6 C        2.976     0.007    27.868     8.659
    18   6 C        2.977     0.016    27.642     8.624
    19   6 C        2.924    -0.033    28.816     8.803
    20   6 C        2.921    -0.027    28.672     8.781
    21   6 C        2.975    -0.006    28.163     8.705
    22   6 C        3.170     0.213    23.186     7.866
    23   7 N        2.048    -0.198    26.023     7.567
    24   7 N        2.048    -0.198    26.025     7.567
    25   6 C        3.170     0.213    23.185     7.866
    26   6 C        2.975    -0.006    28.165     8.705
    27   6 C        2.921    -0.027    28.672     8.781
    28   6 C        2.923    -0.033    28.816     8.803
    29   6 C        2.977     0.016    27.642     8.624
    30   6 C        2.976     0.006    27.872     8.660
    31   6 C        2.924    -0.033    28.813     8.803
    32   6 C        2.920    -0.043    29.072     8.842
    33   6 C        2.913     0.065    26.552     8.450
    34   7 N        2.802    -0.043    22.073     6.978
    35   6 C        3.075     0.046    26.881     8.501
    36   6 C        2.910    -0.051    29.262     8.870
    37   6 C        2.924    -0.033    28.828     8.805
    38   6 C        2.920    -0.040    29.005     8.832
    39   6 C        2.913    -0.033    28.813     8.802
    40   6 C        3.068    -0.017    28.354     8.731
    41   6 C        3.068    -0.017    28.352     8.731
    42   6 C        2.913    -0.033    28.813     8.802
    43   6 C        2.920    -0.041    29.008     8.832
    44   6 C        2.924    -0.033    28.832     8.806
    45   6 C        2.910    -0.051    29.265     8.871
    46   6 C        3.074     0.046    26.881     8.501
    47   6 C        2.920    -0.043    29.067     8.841
    48   6 C        2.924    -0.033    28.813     8.803
    49   6 C        2.924    -0.030    28.755     8.794
    50   6 C        2.923    -0.028    28.705     8.786
    51   8 O        1.722    -0.229    17.797     5.696
    52   6 C        2.923    -0.028    28.704     8.786
    53   6 C        2.924    -0.030    28.754     8.794
    54   6 C        2.924    -0.033    28.812     8.803
    55   6 C        2.920    -0.043    29.062     8.840
    56   1 H        0.926     0.028     2.610     2.526
    57   1 H        0.926     0.029     2.598     2.521
    58   1 H        0.926     0.027     2.632     2.537
    59   1 H        0.926     0.031     2.568     2.506
    60   1 H        0.926     0.031     2.568     2.506
    61   1 H        0.926     0.028     2.610     2.526
    62   1 H        0.926     0.029     2.598     2.520
    63   1 H        0.926     0.027     2.630     2.536
    64   1 H        0.926     0.043     2.412     2.429
    65   1 H        0.926     0.039     2.467     2.456
    66   1 H        0.926     0.040     2.450     2.448
    67   1 H        0.926     0.044     2.392     2.419
    68   1 H        0.926     0.044     2.394     2.419
    69   1 H        0.926     0.040     2.453     2.449
    70   1 H        0.926     0.039     2.468     2.457
    71   1 H        0.926     0.043     2.412     2.428
    72   1 H        0.926     0.027     2.625     2.533
    73   1 H        0.926     0.030     2.593     2.518
    74   1 H        0.926     0.029     2.607     2.525
    75   1 H        0.926     0.031     2.567     2.506
    76   1 H        0.926     0.031     2.567     2.505
    77   1 H        0.926     0.028     2.610     2.526
    78   1 H        0.926     0.029     2.601     2.522
    79   1 H        0.926     0.027     2.634     2.538
    80   1 H        0.926     0.043     2.406     2.426
    81   1 H        0.926     0.040     2.450     2.448
    82   1 H        0.926     0.043     2.403     2.424
    83   1 H        0.926     0.062     2.181     2.309
    84   1 H        0.926     0.062     2.181     2.309
    85   1 H        0.926     0.044     2.400     2.423
    86   1 H        0.926     0.040     2.450     2.447
    87   1 H        0.926     0.043     2.405     2.425

molecular dipole:
                 x           y           z       tot (Debye)
 q only:        0.025      -0.596       0.018
   full:        0.022      -1.159       0.037       2.948

 projected vibrational frequencies (cm⁻¹)
eigval :       -0.00    -0.00    -0.00     0.00     0.00     0.00
eigval :        5.82     7.46     8.04    16.15    19.49    30.17
eigval :       34.15    41.16    47.77    50.42    63.99    66.06
eigval :       77.14    89.26    92.06    97.91   100.59   103.93
eigval :      106.74   125.18   136.70   141.92   145.23   149.40
eigval :      183.04   200.52   209.72   230.42   232.96   248.30
eigval :      258.90   271.73   271.86   292.30   295.57   346.24
eigval :      353.49   363.64   369.77   370.09   372.57   383.00
eigval :      386.16   391.22   394.84   400.82   411.98   421.36
eigval :      422.88   427.01   435.27   437.04   440.75   470.67
eigval :      482.07   501.88   502.46   515.85   517.92   518.52
eigval :      528.85   531.70   537.00   539.48   541.15   541.16
eigval :      582.43   582.54   593.91   596.58   603.23   607.03
eigval :      616.76   617.67   627.14   643.54   672.99   673.85
eigval :      674.36   676.83   694.87   695.42   698.34   706.45
eigval :      709.62   713.37   718.62   724.11   755.52   756.33
eigval :      769.71   769.73   774.52   780.80   781.08   784.16
eigval :      810.39   811.48   835.37   836.79   866.06   866.40
eigval :      871.29   871.95   873.86   873.99   881.16   881.35
eigval :      897.90   898.13   902.61   902.70   903.05   903.10
eigval :      916.87   917.38   920.95   921.08   921.36   921.56
eigval :      926.21   926.97   927.76   928.34   929.89   930.17
eigval :      935.67   936.18   960.91   965.86   990.25  1002.29
eigval :     1012.09  1012.16  1015.77  1020.87  1070.55  1070.68
eigval :     1073.81  1073.99  1076.95  1077.28  1084.84  1100.22
eigval :     1118.12  1118.27  1131.04  1131.61  1139.62  1139.84
eigval :     1153.05  1153.07  1176.68  1176.79  1181.33  1181.38
eigval :     1182.95  1183.30  1184.99  1189.32  1192.88  1205.14
eigval :     1205.70  1236.54  1236.62  1244.54  1244.69  1262.79
eigval :     1263.91  1269.18  1269.94  1271.17  1285.37  1298.58
eigval :     1300.88  1302.31  1302.58  1307.80  1314.84  1316.06
eigval :     1319.05  1325.69  1327.92  1357.57  1357.73  1361.99
eigval :     1362.05  1370.55  1370.77  1395.46  1396.05  1413.79
eigval :     1414.23  1428.22  1428.26  1430.73  1431.18  1461.24
eigval :     1462.56  1476.19  1476.33  1488.21  1488.22  1500.84
eigval :     1501.22  1536.35  1538.28  1555.68  1556.84  1565.98
eigval :     1567.39  1575.49  1575.60  1585.56  1586.83  1589.50
eigval :     1589.58  1599.24  1599.27  1600.78  1601.31  1615.09
eigval :     1615.17  3076.29  3076.31  3076.65  3076.91  3080.34
eigval :     3080.50  3081.35  3081.57  3082.30  3082.51  3083.32
eigval :     3083.49  3084.13  3084.19  3088.21  3088.49  3088.71
eigval :     3088.78  3089.95  3090.18  3093.75  3094.26  3095.19
eigval :     3095.31  3095.60  3095.83  3096.29  3096.42  3097.14
eigval :     3097.24  3113.71  3113.85

   temp. (K)  partition function   enthalpy   heat capacity  entropy
                                   cal/mol     cal/K/mol   cal/K/mol   J/K/mol
 298.15  VIB  0.302E+21            24844.997    157.529    156.688
         ROT  0.277E+09              888.752      2.981     41.615
         INT  0.837E+29            25733.749    160.510    198.304
         TR   0.181E+29             1481.254      4.968     45.518
         TOT                       27215.0034   165.4781   243.8218  1020.1506

       T/K    H(0)-H(T)+PV         H(T)/Eh          T*S/Eh         G(T)/Eh
   ------------------------------------------------------------------------
    298.15    0.433699E-01    0.705607E+00    0.115848E+00    0.589759E+00
   ------------------------------------------------------------------------

         :::::::::::::::::::::::::::::::::::::::::::::::::::::
         ::                  THERMODYNAMIC                  ::
         :::::::::::::::::::::::::::::::::::::::::::::::::::::
         :: total free energy        -138.627433396981 Eh   ::
         ::.................................................::
         :: total energy             -139.217192735363 Eh   ::
         :: zero point energy           0.662237095382 Eh   ::
         :: G(RRHO) w/o ZPVE           -0.072477756999 Eh   ::
         :: G(RRHO) contrib.            0.589759338382 Eh   ::
         :::::::::::::::::::::::::::::::::::::::::::::::::::::

           -------------------------------------------------
          | TOTAL ENERGY             -139.217192735363 Eh   |
          | TOTAL ENTHALPY           -138.511585771486 Eh   |
          | TOTAL FREE ENERGY        -138.627433396981 Eh   |
          | GRADIENT NORM               0.000037430634 Eh/α |
          | HOMO-LUMO GAP               2.055187258993 eV   |
           -------------------------------------------------

 * finished run on 2025/08/22 at 14:21:42.644
