   * xtb version 6.7.1 (edcfbbe) compiled by 'albert@albert-system' on 2024-07-22

   ID    Z sym.   atoms
    1    6 C      1-12, 14-22, 25-33, 35-50, 52-55
    2    7 N      13, 23, 24, 34
    3    8 O      51
    4    1 H      56-87

          program call               : xtb data2507/gas/Oxd-bCZ/Oxd-bCZ_gas_T1_crest.xyz --gfn 2 --spinpol --tblite --uhf 2 --ohess vtight --parallel 40 --molden --ceasefiles --namespace data2507/gas/Oxd-bCZ/Oxd-bCZ_gas_T1_finalOpt
 * total energy  :  -139.1359527 Eh     change        0.7083378E-07 Eh
 * total energy  :  -139.1359662 Eh     change       -0.1351437E-04 Eh
 * total energy  :  -139.1359723 Eh     change       -0.6011303E-05 Eh
 * total energy  :  -139.1359744 Eh     change       -0.2102120E-05 Eh
 * total energy  :  -139.1359753 Eh     change       -0.9751887E-06 Eh
 * total energy  :  -139.1359767 Eh     change       -0.1390873E-05 Eh
 * total energy  :  -139.1359778 Eh     change       -0.1069801E-05 Eh
 * total energy  :  -139.1359788 Eh     change       -0.1007317E-05 Eh
 * total energy  :  -139.1359802 Eh     change       -0.1384561E-05 Eh
 * total energy  :  -139.1359819 Eh     change       -0.1676464E-05 Eh
 * total energy  :  -139.1359872 Eh     change       -0.3810266E-06 Eh
 * total energy  :  -139.1359876 Eh     change       -0.3989017E-06 Eh
 * total energy  :  -139.1359880 Eh     change       -0.4149446E-06 Eh
 * total energy  :  -139.1359886 Eh     change       -0.5592689E-06 Eh
 * total energy  :  -139.1359891 Eh     change       -0.5654611E-06 Eh
 * total energy  :  -139.1359891 Eh     change        0.2326618E-07 Eh
 * total energy  :  -139.1359894 Eh     change       -0.2497362E-06 Eh
 * total energy  :  -139.1359900 Eh     change       -0.5937850E-06 Eh
 * total energy  :  -139.1359900 Eh     change       -0.1086542E-07 Eh
   *** GEOMETRY OPTIMIZATION CONVERGED AFTER 25 ITERATIONS ***

 final structure:
================
87
 xtb: 6.7.1 (edcfbbe)
C          -14.03138016200045        1.29135905276942        0.83820160423528
C          -12.85969390913129        2.04283099303398        0.88247365932550
C          -11.62464063319429        1.46894898144528        0.64601112774360
C          -11.58626554890908        0.11341365244201        0.34971431064167
C          -12.76859333829499       -0.66259252074518        0.33143530362763
C          -13.99678997985357       -0.06457917092271        0.57286293929876
C          -12.36511189747872       -2.01449650358164        0.05491777401564
C          -13.06133545350573       -3.20367487459737       -0.10459775019107
C          -12.35065454142182       -4.35171881421811       -0.39974444854550
C          -10.96695109670386       -4.31800834787090       -0.55370513711354
C          -10.25192762466831       -3.14508124277319       -0.40014992513472
C          -10.95680597155597       -1.99449196146904       -0.07457485456352
N          -10.49931973000035       -0.70337743780665        0.10461027360176
C           -9.16636918404535       -0.29351755771326        0.04566960299959
C           -8.17661873437112       -0.99253769845065        0.74177550206730
C           -6.86495207823610       -0.58875832148414        0.67940755058124
C           -6.47580380271849        0.53426624933034       -0.07352274352280
C           -5.09757197357281        0.95996152883793       -0.13505530096748
C           -4.03678152511740        0.03930203957946        0.02655385656025
C           -2.73234598941315        0.43273866477218       -0.04207109668908
C           -2.40118956898236        1.79279803684630       -0.26280098706077
C           -1.06981394293196        2.22295236739351       -0.33324299466767
N           -0.64558553283334        3.47361222695591       -0.54559585259091
N            0.64951206204733        3.47225808667105       -0.54757876186707
C            1.07197503612670        2.22152496394927       -0.33563979456014
C            2.40366689419274        1.78944877346313       -0.26544062684035
C            2.73234517905836        0.43183293900572       -0.03065002738611
C            4.03683213250201        0.03690579315653        0.04006636890654
C            5.09717401969223        0.95380344277025       -0.13606407085822
C            6.47611076810658        0.52631310441935       -0.07371821947615
C            6.86839277866380       -0.57386398679608        0.70914161130545
C            8.18035573668774       -0.97766050483987        0.77350065388766
C            9.16477617709092       -0.30259276512930        0.04732065586118
N           10.49787298904804       -0.71243188017761        0.10764905033280
C           11.58795853109836        0.11086108488110        0.31440949440899
C           11.63092597818846        1.47569186107954        0.56371826697057
C           12.86897833792736        2.05570333053098        0.76720897880834
C           14.03943012699322        1.30164072775261        0.73657835726658
C           14.00059861090609       -0.06256796437813        0.51876995327442
C           12.76929147295445       -0.66680567512254        0.31081929597231
C           12.36188359775345       -2.02678008862075        0.08455820819381
C           13.05569146083327       -3.22148931656526       -0.04066568024310
C           12.34143359502009       -4.37813915210038       -0.28973233828655
C           10.95640372249642       -4.34801855613660       -0.43202103742831
C           10.24377174471030       -3.16974143852138       -0.31195687902644
C           10.95244291545997       -2.00946022444958       -0.03221842280220
C            8.79327312497497        0.78985010061031       -0.74065197951574
C            7.48144993524167        1.19496214130060       -0.79457509721424
C            4.75923974227987        2.30563328080696       -0.37737848616914
C            3.46081472308434        2.71874427856985       -0.43199949489598
O            0.00088003817208        1.37465474907394       -0.18999758324611
C           -3.45805385107398        2.72573639238040       -0.41597709753899
C           -4.75654636064484        2.31468539205819       -0.36113805941686
C           -7.48731976140432        1.22608990099965       -0.76490349118114
C           -8.79932640348621        0.82268134040272       -0.71087903579597
H          -14.97731017737816        1.77686417654700        1.02580355269827
H          -12.91621996699110        3.09657281856776        1.11140699062358
H          -10.72090732509062        2.05585563422595        0.70504386024606
H          -14.90313834321107       -0.65064073996105        0.55830976981188
H          -14.13592100271045       -3.22627438682923       -0.00515203299385
H          -12.87309493002317       -5.28822510219244       -0.52511869041394
H          -10.44088919538286       -5.22732276335698       -0.80360773212975
H           -9.18252838808429       -3.12554440901440       -0.54408758026700
H           -8.45800624069010       -1.83357898521188        1.35819753814528
H           -6.12749327147198       -1.12119717180609        1.25992628154748
H           -4.26398156824358       -1.00684324802958        0.16813994121770
H           -1.93241440297074       -0.28461118455396        0.06380499674990
H            1.93147938723067       -0.28279610673920        0.08590944747253
H            4.26367347397432       -1.00753778724802        0.19477184369797
H            6.13391542692426       -1.08700232586851        1.31060702736496
H            8.46555683616333       -1.79962890340956        1.41340499485120
H           10.72860782329707        2.06572820167388        0.61218372637942
H           12.92890594958421        3.11666331127942        0.95893557644967
H           14.98776965108243        1.79209733004530        0.89719800034566
H           14.90607959938569       -0.65013904617421        0.51499129046649
H           14.13113724346036       -3.24176379083227        0.04957016063055
H           12.86189025890415       -5.31899828852530       -0.38779782911923
H           10.42728644906402       -5.26472413919566       -0.64589562649214
H            9.17311028039269       -3.15414963743510       -0.44668041240300
H            9.54244680256824        1.29272827551745       -1.33412410756722
H            7.21412567926176        2.01629981972321       -1.44127835363542
H            5.54918083064494        3.03403913396103       -0.48203157448130
H            3.20356860608257        3.75268720185589       -0.59792581122945
H           -3.19935083093054        3.76099030372554       -0.57112743132138
H           -5.54467057261524        3.04655237121722       -0.45389567023000
H           -7.22491016030514        2.06566593507095       -1.38969476377347
H           -9.55282203377717        1.34533335245540       -1.28140600163407

 projected vibrational frequencies (cm⁻¹)
eigval :       -0.00    -0.00    -0.00    -0.00     0.00     0.00
eigval :        5.63     7.72     8.67    14.15    24.71    26.24
eigval :       36.78    41.25    45.33    63.04    69.25    71.26
eigval :       76.04    83.48    93.68   101.63   104.40   111.69
eigval :      116.06   122.07   137.39   145.88   149.71   154.42
eigval :      158.78   200.86   202.02   231.13   235.26   250.34
eigval :      258.77   271.43   271.67   282.24   293.85   327.48
eigval :      352.70   352.91   358.40   368.78   371.23   384.66
eigval :      387.23   387.51   388.55   399.46   401.90   412.58
eigval :      417.63   421.24   421.47   436.06   436.81   462.35
eigval :      466.20   477.21   497.92   504.18   509.18   517.46
eigval :      517.82   522.76   538.97   539.03   539.21   539.34
eigval :      572.34   580.06   580.66   591.41   591.85   596.05
eigval :      596.17   614.99   615.24   620.01   642.62   658.96
eigval :      664.65   674.44   674.49   684.84   689.46   691.39
eigval :      697.82   699.38   709.88   710.12   735.11   753.31
eigval :      756.56   764.32   769.75   769.77   779.69   779.98
eigval :      801.54   801.95   822.36   823.41   829.60   831.63
eigval :      847.57   855.80   872.43   872.88   872.97   873.49
eigval :      896.22   896.84   896.88   898.97   902.98   903.02
eigval :      903.26   903.31   909.78   910.30   915.89   916.42
eigval :      917.93   918.30   919.45   919.69   922.42   925.43
eigval :      926.09   926.39   931.18   932.38   964.33   965.94
eigval :      996.76  1002.88  1011.70  1011.71  1017.36  1048.78
eigval :     1051.63  1060.34  1069.95  1070.02  1073.02  1073.31
eigval :     1099.11  1116.66  1122.27  1130.44  1130.82  1145.32
eigval :     1145.73  1150.48  1150.61  1174.72  1176.49  1179.40
eigval :     1180.02  1180.08  1181.55  1194.69  1198.40  1206.67
eigval :     1209.50  1219.53  1233.48  1233.58  1242.97  1243.53
eigval :     1256.27  1258.75  1266.32  1270.69  1275.39  1279.46
eigval :     1292.41  1292.65  1296.00  1296.60  1310.33  1316.10
eigval :     1320.45  1332.56  1335.70  1337.29  1353.72  1353.93
eigval :     1357.70  1358.24  1363.56  1365.80  1414.42  1414.81
eigval :     1416.86  1419.22  1420.71  1420.97  1430.49  1438.10
eigval :     1440.12  1449.19  1465.27  1465.45  1469.67  1469.77
eigval :     1484.13  1484.95  1485.95  1489.68  1508.85  1511.64
eigval :     1514.25  1520.51  1571.38  1571.48  1574.02  1581.09
eigval :     1584.96  1585.34  1585.88  1588.70  1588.95  1606.32
eigval :     1607.99  3079.35  3079.76  3080.41  3080.47  3080.93
eigval :     3080.97  3083.23  3083.27  3084.24  3084.27  3085.67
eigval :     3085.72  3086.61  3086.84  3087.39  3087.48  3093.07
eigval :     3093.10  3094.10  3094.54  3094.64  3094.69  3098.30
eigval :     3098.70  3098.87  3099.28  3099.73  3100.10  3100.32
eigval :     3100.71  3111.02  3111.10

   temp. (K)  partition function   enthalpy   heat capacity  entropy
                                   cal/mol     cal/K/mol   cal/K/mol   J/K/mol
 298.15  VIB  0.248E+21            25110.110    160.057    157.724
         ROT  0.271E+09              888.752      2.981     41.571
         INT  0.673E+29            25998.862    163.038    199.295
         TR   0.181E+29             1481.254      4.968     45.518
         TOT                       27480.1162   168.0063   244.8129  1024.2972

       T/K    H(0)-H(T)+PV         H(T)/Eh          T*S/Eh         G(T)/Eh
   ------------------------------------------------------------------------
    298.15    0.437924E-01    0.701369E+00    0.116319E+00    0.585050E+00
   ------------------------------------------------------------------------

         :::::::::::::::::::::::::::::::::::::::::::::::::::::
         ::                  THERMODYNAMIC                  ::
         :::::::::::::::::::::::::::::::::::::::::::::::::::::
         :: total free energy        -138.550939610736 Eh   ::
         ::.................................................::
         :: total energy             -139.135990088966 Eh   ::
         :: zero point energy           0.657576635081 Eh   ::
         :: G(RRHO) w/o ZPVE           -0.072526156851 Eh   ::
         :: G(RRHO) contrib.            0.585050478230 Eh   ::
         :::::::::::::::::::::::::::::::::::::::::::::::::::::

           -------------------------------------------------
          | TOTAL ENERGY             -139.135990088966 Eh   |
          | TOTAL ENTHALPY           -138.434621101206 Eh   |
          | TOTAL FREE ENERGY        -138.550939610736 Eh   |
          | GRADIENT NORM               0.000075347003 Eh/α |
           -------------------------------------------------

 * finished run on 2025/08/22 at 14:29:29.837
