   * xtb version 6.7.1 (edcfbbe) compiled by 'albert@albert-system' on 2024-07-22

   ID    Z sym.   atoms
    1    6 C      1-12, 14-22, 25-33, 35-50, 52-55
    2    7 N      13, 23, 24, 34
    3    8 O      51
    4    1 H      56-87

          program call               : xtb data2507/gas/Oxd-bCZ/Oxd-bCZ_gas_S0_finalOpt.xtbopt.xyz --gfn 2 --spinpol --tblite --uhf 2 --ohess vtight --parallel 40 --molden --ceasefiles --namespace data2507/gas/Oxd-bCZ/Oxd-bCZ_gas_T1_preOpt
 * total energy  :  -139.1266760 Eh     change       -0.5849208E-07 Eh
 * total energy  :  -139.1321023 Eh     change       -0.5426249E-02 Eh
 * total energy  :  -139.1344240 Eh     change       -0.2321750E-02 Eh
 * total energy  :  -139.1346397 Eh     change       -0.2156323E-03 Eh
 * total energy  :  -139.1348566 Eh     change       -0.2169377E-03 Eh
 * total energy  :  -139.1349459 Eh     change       -0.8925758E-04 Eh
 * total energy  :  -139.1350293 Eh     change       -0.8344394E-04 Eh
 * total energy  :  -139.1350997 Eh     change       -0.7033944E-04 Eh
 * total energy  :  -139.1351357 Eh     change       -0.3605146E-04 Eh
 * total energy  :  -139.1351590 Eh     change       -0.2331260E-04 Eh
 * total energy  :  -139.1356684 Eh     change       -0.9270439E-06 Eh
 * total energy  :  -139.1356694 Eh     change       -0.9426534E-06 Eh
 * total energy  :  -139.1356703 Eh     change       -0.9049899E-06 Eh
 * total energy  :  -139.1356712 Eh     change       -0.9048541E-06 Eh
 * total energy  :  -139.1356721 Eh     change       -0.8742877E-06 Eh
 * total energy  :  -139.1356729 Eh     change       -0.8541457E-06 Eh
 * total energy  :  -139.1356736 Eh     change       -0.7054050E-06 Eh
 * total energy  :  -139.1356746 Eh     change       -0.9617788E-06 Eh
 * total energy  :  -139.1356746 Eh     change       -0.9335224E-08 Eh
   *** GEOMETRY OPTIMIZATION CONVERGED AFTER 152 ITERATIONS ***

 final structure:
================
87
 xtb: 6.7.1 (edcfbbe)
C          -13.26139559498953       -1.26257029813016        3.00902116099873
C          -11.99347292706338       -0.83756063970285        3.39832976408745
C          -10.99254168335186       -0.61066705363894        2.47260762694779
C          -11.29288791433672       -0.81097370585397        1.13236130528496
C          -12.56991632465415       -1.26734125604576        0.73053201087050
C          -13.55847034691389       -1.48867957279419        1.67835792519191
C          -12.51777126225818       -1.41897994383666       -0.69815653435006
C          -13.44840964812364       -1.80556702049238       -1.65162997562478
C          -13.06824140882021       -1.81719622611667       -2.98030719008435
C          -11.78487395043536       -1.43381668047193       -3.36216751584431
C          -10.84081846197114       -1.04464561298768       -2.43072794950032
C          -11.20875745763592       -1.05637207577740       -1.09240014112478
N          -10.48064610511721       -0.68996610344958        0.02225559470260
C           -9.14750652092595       -0.27041153705405        0.02553137733050
C           -8.17045727356817       -1.01559956114182       -0.63768075252188
C           -6.85826046213874       -0.60525332036769       -0.62697279107744
C           -6.46611136119888        0.57396335321006        0.02773340924660
C           -5.08587092699624        1.00965904673040        0.02542862382437
C           -4.02703141574994        0.07727611936498       -0.02020644185583
C           -2.72248327415679        0.47985703880914       -0.01622737677166
C           -2.39589720850833        1.85748138611778        0.00618314117737
C           -1.06293606449516        2.29320127999011       -0.01177168754223
N           -0.63479196189540        3.55939961586897       -0.03021347152918
N            0.65998027976476        3.55471004057520       -0.05455571707709
C            1.07888768882666        2.28371464686295       -0.04743160249930
C            2.40598834292489        1.83775976893457       -0.05683795782458
C            2.72324779053510        0.45662491465937       -0.00719136480210
C            4.02308594706262        0.04454718998355        0.00659654679438
C            5.09247481712590        0.96768917880821       -0.05594108509480
C            6.46521919325571        0.52275014165157       -0.04705450612950
C            6.84564035295734       -0.66501208496587        0.60421456586372
C            8.15306659462393       -1.08559399708901        0.62391022225953
C            9.14581719730930       -0.34281856631475       -0.02163056761279
N           10.47386618254141       -0.77067686124326       -0.00652813508602
C           11.57360556201590        0.01525030933295        0.28088363645519
C           11.63316373045548        1.34808737082560        0.66421947079145
C           12.87804998388250        1.89031013738529        0.92300264996823
C           14.03936929868038        1.12905294629636        0.81741382075048
C           13.98395558007035       -0.20681418166217        0.46733419106321
C           12.74557780064500       -0.77254450966695        0.20163673765632
C           12.32230861558333       -2.09928398458040       -0.15528096119404
C           13.00232103202325       -3.28480208351623       -0.39257668717041
C           12.27513737885732       -4.40398728683536       -0.75148548205493
C           10.89117324175520       -4.34324591732187       -0.89382901734547
C           10.19232734340224       -3.17302382887243       -0.66383132826198
C           10.91344806242063       -2.05360678646513       -0.27155321565836
C            8.78571789451270        0.83596983603306       -0.68115363602707
C            7.47907180448981        1.25960666833174       -0.68635863871327
C            4.76615426604302        2.34324596736805       -0.12429110020550
C            3.47243281183946        2.77177555065533       -0.11187589734493
O            0.00368332476872        1.42868625017590       -0.02161196269187
C           -3.45274732295452        2.80024177405228        0.04332992842647
C           -4.75127774043579        2.38177007543610        0.06572895261079
C           -7.46380337075388        1.31501441027375        0.68220968671518
C           -8.77441816754696        0.89924760690895        0.69079514432552
H          -14.01728155610794       -1.42682694303061        3.76227507872793
H          -11.78589846856698       -0.68634891340248        4.44718170251292
H          -10.00710687629428       -0.30106994727492        2.78569305360827
H          -14.53578283157809       -1.83574498273630        1.37904650713822
H          -14.44893333396380       -2.08486981153341       -1.35817033082687
H          -13.77681895310420       -2.11678211624374       -3.73787292437074
H          -11.52260890258679       -1.43578678553518       -4.40967074222512
H           -9.85539004383207       -0.72932129116320       -2.73807782036668
H           -8.45166935426682       -1.92897346100927       -1.14090180407071
H           -6.12155790709337       -1.18962276917549       -1.15677763825389
H           -4.25451323118494       -0.97850935905889       -0.01620768744191
H           -1.92087574079561       -0.24321434369058       -0.02883677623058
H            1.91561303401439       -0.25933941363741        0.01948938997571
H            4.24162031103360       -1.01292473404963        0.02442524570906
H            6.10487189800854       -1.23519702162821        1.14335358428645
H            8.42942890693626       -1.97576196810046        1.16940947552294
H           10.73837429643379        1.94149242558354        0.77255729494625
H           12.95048338622466        2.92639531169068        1.21835829097237
H           14.99351317755621        1.58990290005655        1.02449194723888
H           14.88212768238510       -0.80232103448806        0.40588243387425
H           14.07715227678006       -3.32656523529811       -0.30258267904820
H           12.78454872568408       -5.33773078771265       -0.93668647265313
H           10.35170314888616       -5.22875732716324       -1.19528032000061
H            9.12264218812452       -3.13191477838880       -0.80044734460264
H            9.53983556579333        1.39358130829601       -1.21656145128693
H            7.22035840618147        2.15253461157093       -1.23420276686913
H            5.56351417074747        3.07091273414276       -0.14375566444361
H            3.22409088025454        3.82072155880840       -0.14010231465226
H           -3.19674626312603        3.84771314984282        0.04941275609033
H           -5.54345240052170        3.11541518183104        0.07085076951728
H           -7.19514189489059        2.21608007246960        1.21198797997867
H           -9.52893691582822        1.48660732811868        1.19298609815172

 projected vibrational frequencies (cm⁻¹)
eigval :       -0.00    -0.00     0.00     0.00     0.00     0.00
eigval :        5.17     8.30    10.28    15.15    20.61    29.57
eigval :       35.37    37.83    46.74    62.96    68.69    71.03
eigval :       76.65    86.19    97.86   103.03   103.66   106.88
eigval :      116.72   127.39   137.41   139.27   144.78   150.16
eigval :      172.35   198.58   204.81   230.90   231.64   244.93
eigval :      255.21   271.24   271.51   286.88   293.37   334.15
eigval :      344.62   352.83   365.41   367.48   372.73   373.79
eigval :      377.43   387.77   390.29   393.27   404.97   410.50
eigval :      420.18   421.44   431.14   435.52   437.02   454.98
eigval :      471.51   477.29   497.02   504.53   509.23   517.42
eigval :      517.96   522.35   537.94   538.88   539.07   539.74
eigval :      569.61   580.09   580.68   590.37   591.41   595.55
eigval :      598.77   614.91   616.73   620.26   642.73   658.70
eigval :      664.37   674.23   674.52   684.74   689.44   691.46
eigval :      697.38   699.87   709.85   710.27   738.38   753.38
eigval :      756.83   764.69   769.71   769.77   779.83   779.97
eigval :      801.42   801.79   822.83   824.88   828.28   833.16
eigval :      850.43   859.56   872.82   872.89   873.02   873.71
eigval :      895.67   896.65   896.76   898.24   903.00   903.06
eigval :      903.24   903.49   910.05   910.99   915.94   916.93
eigval :      918.29   918.64   919.54   920.19   922.46   925.81
eigval :      926.13   926.88   931.20   932.49   963.68   966.79
eigval :      997.29  1003.58  1011.64  1011.72  1018.05  1048.94
eigval :     1052.69  1059.77  1069.62  1070.32  1072.80  1073.57
eigval :     1101.56  1116.61  1122.43  1130.16  1130.57  1144.72
eigval :     1144.87  1149.89  1150.60  1174.31  1176.05  1179.16
eigval :     1179.89  1180.11  1180.86  1194.45  1198.16  1205.93
eigval :     1209.10  1218.17  1233.28  1233.86  1242.16  1243.19
eigval :     1256.05  1258.53  1266.32  1269.68  1273.77  1278.03
eigval :     1291.72  1293.38  1295.77  1296.30  1310.03  1316.53
eigval :     1320.85  1332.57  1335.12  1336.21  1353.47  1353.95
eigval :     1357.49  1358.17  1364.10  1365.73  1412.90  1414.48
eigval :     1416.57  1419.05  1420.43  1420.90  1430.37  1436.23
eigval :     1438.97  1448.43  1465.51  1465.66  1469.80  1469.89
eigval :     1483.94  1485.12  1485.75  1489.58  1508.70  1510.01
eigval :     1519.73  1521.27  1571.35  1571.35  1574.26  1580.84
eigval :     1584.50  1585.13  1586.02  1588.39  1589.18  1606.05
eigval :     1608.01  3078.77  3079.13  3080.05  3080.46  3080.55
eigval :     3081.10  3082.54  3083.01  3083.68  3084.23  3085.08
eigval :     3085.81  3085.85  3086.28  3086.69  3087.48  3092.20
eigval :     3093.41  3093.77  3093.87  3094.61  3094.99  3097.10
eigval :     3097.83  3098.22  3098.36  3098.93  3099.23  3099.39
eigval :     3100.31  3110.75  3110.91

   temp. (K)  partition function   enthalpy   heat capacity  entropy
                                   cal/mol     cal/K/mol   cal/K/mol   J/K/mol
 298.15  VIB  0.228E+21            25116.969    160.030    157.587
         ROT  0.275E+09              888.752      2.981     41.598
         INT  0.626E+29            26005.722    163.011    199.185
         TR   0.181E+29             1481.254      4.968     45.518
         TOT                       27486.9757   167.9795   244.7026  1023.8359

       T/K    H(0)-H(T)+PV         H(T)/Eh          T*S/Eh         G(T)/Eh
   ------------------------------------------------------------------------
    298.15    0.438033E-01    0.701323E+00    0.116266E+00    0.585057E+00
   ------------------------------------------------------------------------

         :::::::::::::::::::::::::::::::::::::::::::::::::::::
         ::                  THERMODYNAMIC                  ::
         :::::::::::::::::::::::::::::::::::::::::::::::::::::
         :: total free energy        -138.550617828106 Eh   ::
         ::.................................................::
         :: total energy             -139.135674601205 Eh   ::
         :: zero point energy           0.657519610801 Eh   ::
         :: G(RRHO) w/o ZPVE           -0.072462837701 Eh   ::
         :: G(RRHO) contrib.            0.585056773099 Eh   ::
         :::::::::::::::::::::::::::::::::::::::::::::::::::::

           -------------------------------------------------
          | TOTAL ENERGY             -139.135674601205 Eh   |
          | TOTAL ENTHALPY           -138.434351706507 Eh   |
          | TOTAL FREE ENERGY        -138.550617828106 Eh   |
          | GRADIENT NORM               0.000069006152 Eh/α |
           -------------------------------------------------

 * finished run on 2025/08/22 at 14:22:05.728
