   * xtb version 6.7.1 (edcfbbe) compiled by 'albert@albert-system' on 2024-07-22

   ID    Z sym.   atoms
    1    6 C      1-12, 14-22, 25-33, 35-50, 52-55
    2    7 N      13, 23, 24, 34
    3    8 O      51
    4    1 H      56-87

          program call               : xtb data2507/gas/Oxd-bCZ/Oxd-bCZ.xyz --gfn 2 --ohess vtight --parallel 40 --molden --ceasefiles --namespace data2507/gas/Oxd-bCZ/Oxd-bCZ_gas_S0_preOpt
          :  Hamiltonian                  GFN2-xTB          :
 * total energy  :  -139.1921266 Eh     change       -0.1212669E-08 Eh
 * total energy  :  -139.2090841 Eh     change       -0.1695750E-01 Eh
 * total energy  :  -139.2129209 Eh     change       -0.3836798E-02 Eh
 * total energy  :  -139.2140535 Eh     change       -0.1132555E-02 Eh
 * total energy  :  -139.2152998 Eh     change       -0.1246354E-02 Eh
 * total energy  :  -139.2159886 Eh     change       -0.6887225E-03 Eh
 * total energy  :  -139.2163389 Eh     change       -0.3503527E-03 Eh
 * total energy  :  -139.2165153 Eh     change       -0.1763622E-03 Eh
 * total energy  :  -139.2166124 Eh     change       -0.9710207E-04 Eh
 * total energy  :  -139.2166969 Eh     change       -0.8453744E-04 Eh
 * total energy  :  -139.2169664 Eh     change       -0.1044832E-05 Eh
 * total energy  :  -139.2169675 Eh     change       -0.1105402E-05 Eh
 * total energy  :  -139.2169686 Eh     change       -0.1119380E-05 Eh
 * total energy  :  -139.2169697 Eh     change       -0.1104407E-05 Eh
 * total energy  :  -139.2169708 Eh     change       -0.1058704E-05 Eh
 * total energy  :  -139.2169717 Eh     change       -0.9150670E-06 Eh
 * total energy  :  -139.2169724 Eh     change       -0.7506655E-06 Eh
 * total energy  :  -139.2169730 Eh     change       -0.6126301E-06 Eh
 * total energy  :  -139.2169731 Eh     change       -0.1132238E-07 Eh
   *** GEOMETRY OPTIMIZATION CONVERGED AFTER 44 ITERATIONS ***

 final structure:
================
87
 xtb: 6.7.1 (edcfbbe)
C          -13.13494205252960        1.61668043652080        2.82106533206851
C          -11.93049253649233        2.27365288906948        2.57953612950440
C          -10.92345048920380        1.68569763002874        1.83825734612821
C          -11.14411322330412        0.40781111960598        1.34491605154481
C          -12.37294615022638       -0.25612044431346        1.56301787920039
C          -13.37009217499900        0.35558264299341        2.31114453867076
C          -12.28235328853137       -1.51735266546578        0.88196942724278
C          -13.14754593953247       -2.59544878313658        0.75018063979527
C          -12.72878461279933       -3.69535771045630        0.02872799464446
C          -11.45959149696410       -3.73498926015414       -0.54409097361601
C          -10.58117634029736       -2.67480383472329       -0.42689435103602
C          -11.00582810033390       -1.55640141240256        0.27585263531007
N          -10.32803582398827       -0.38717473723568        0.56352514346053
C           -9.02643143784066       -0.07553553373940        0.15467973171029
C           -8.08429015650897        0.36144406321061        1.08259102508026
C           -6.79737088144903        0.65235510550634        0.67948422977474
C           -6.41612296108668        0.51595634910198       -0.65447850229936
C           -5.03824769702799        0.80108020012664       -1.07330336622231
C           -3.96461139155445        0.39767708885978       -0.27929085887038
C           -2.66609083460401        0.64334129103664       -0.67054600939351
C           -2.41245367703015        1.30853132357220       -1.86973769298237
C           -1.05791447760325        1.56050123051523       -2.29450399328394
N           -0.66888492952114        2.16851177409807       -3.37853726553490
N            0.66883125299699        2.16829387155410       -3.37875168737738
C            1.05799159643056        1.56022893214159       -2.29478729091322
C            2.41258368575882        1.30806608067280       -1.87030216881208
C            2.66640143871938        0.64500297781478       -0.66997151782406
C            3.96496904640970        0.39935411513448       -0.27885992905767
C            5.03843598186324        0.80053195032706       -1.07421870459234
C            6.41633514421267        0.51544618750348       -0.65542581033571
C            6.79842381380659        0.65527010284755        0.67793546847842
C            8.08532702390813        0.36441241729268        1.08113740729067
C            9.02653191773267       -0.07606065756452        0.15393302579298
N           10.32806594405439       -0.38781648882889        0.56294378529004
C           11.14550055057164        0.40869183369828        1.34134629511672
C           10.92653641957195        1.68834658558601        1.83084244973829
C           11.93469169662138        2.27750752918328        2.56964649691162
C           13.13856842068876        1.61996210933326        2.81247710557632
C           13.37200732209826        0.35700927946468        2.30637405255069
C           12.37372290770833       -0.25593280951416        1.56078402136222
C           12.28128174456831       -1.51920975243979        0.88378429620561
C           13.14513049947766       -2.59873632655755        0.75491537177549
C           12.72463734907160       -3.70045529092116        0.03724033257119
C           11.45506173087345       -3.74042374020867       -0.53471138981865
C           10.57797188110530       -2.67882779172720       -0.42040135363549
C           11.00435185255314       -1.55870753912884        0.27855035565154
C            8.65681304531714       -0.20903229156898       -1.18219480120106
C            7.36773341910117        0.08386849259106       -1.57816396115189
C            4.77419842347114        1.46489915069532       -2.27337133697594
C            3.47930261680019        1.72122062987212       -2.66927133783464
O            0.00008589189199        1.14779037547354       -1.55586004023227
C           -3.47932152273448        1.72389822933823       -2.66735605441910
C           -4.77417479379400        1.46769944795979       -2.27125151272972
C           -7.36842439717920        0.08774650179963       -1.57786611018960
C           -8.65755463889514       -0.20507758139116       -1.18201976826207
H          -13.89594503736299        2.10907872324886        3.40797508852619
H          -11.78149768086576        3.26668318652075        2.97737521483634
H          -10.00121129850508        2.21134077541047        1.64108790306916
H          -14.30968666981395       -0.14720493670479        2.48382613849145
H          -14.12449182723030       -2.57104963788803        1.20890500180120
H          -13.38681173043801       -4.54358754580126       -0.08767487233397
H          -11.15320567094576       -4.61586384009371       -1.08886972972693
H           -9.59281253060755       -2.72409595798703       -0.85857634394533
H           -8.36388023714167        0.45357943657579        2.12142916454583
H           -6.07917264989316        1.00199060339616        1.40633099761858
H           -4.15365231599078       -0.13527841227817        0.64084694029905
H           -1.84016045143249        0.31917878907109       -0.05511921479041
H            1.84057762712421        0.32253870544376       -0.05351172384699
H            4.15418756300162       -0.13189094541408        0.64223197903241
H            6.08088949525368        1.00752270182523        1.40417627425071
H            8.36561363470965        0.45928380662614        2.11954243232809
H           10.00472275178100        2.21435177384178        1.63264447822528
H           11.78703340345820        3.27192967446760        2.96449603357596
H           13.90049071776921        2.11336449873503        3.39734759399060
H           14.31115695105760       -0.14626930809349        2.48004455992668
H           14.12239211832163       -2.57401199195755        1.21294815288065
H           13.38161774517417       -4.54980414183798       -0.07688852889533
H           11.14734139981449       -4.62265296304653       -1.07653733377001
H            9.58929788347584       -2.72830402885908       -0.85135505236745
H            9.38904411472903       -0.53240226300942       -1.90679500494146
H            7.08775611416188       -0.04043475727374       -2.61372476094306
H            5.59735761420422        1.79840654559009       -2.88755607515686
H            3.26520269384759        2.23772783388574       -3.59131338685830
H           -3.26537464559686        2.24197718856817       -3.58855208316755
H           -5.59741295856176        1.80298170169192       -2.88436105791125
H           -7.08914343646041       -0.03398206219485       -2.61391844386340
H           -9.39046927839190       -0.52571044552296       -1.90714312072783

          :  Hamiltonian                  GFN2-xTB          :
         :: gradient norm              0.000066563210 Eh/a0 ::
         :: HOMO-LUMO gap              2.053714178903 eV    ::
         :: SCC energy              -141.763236348571 Eh    ::
         :: -> dispersion             -0.115876958727 Eh    ::
         :: repulsion energy           2.546263288995 Eh    ::

    * Orbital Energies and Occupations

         #    Occupation            Energy/Eh            Energy/eV
      -------------------------------------------------------------
         1        2.0000           -0.7666215             -20.8608
       ...           ...                  ...                  ...
       117        2.0000           -0.4186950             -11.3933
       118        2.0000           -0.4170270             -11.3479
       119        2.0000           -0.4169874             -11.3468
       120        2.0000           -0.4161663             -11.3245
       121        2.0000           -0.4054014             -11.0315
       122        2.0000           -0.4053978             -11.0314
       123        2.0000           -0.4038478             -10.9893
       124        2.0000           -0.3895508             -10.6002
       125        2.0000           -0.3848185             -10.4714
       126        2.0000           -0.3788062             -10.3078
       127        2.0000           -0.3788024             -10.3077
       128        2.0000           -0.3632456              -9.8844
       129        2.0000           -0.3628187              -9.8728 (HOMO)
       130                         -0.2873461              -7.8191 (LUMO)
       131                         -0.2686869              -7.3113
       132                         -0.2465513              -6.7090
       133                         -0.2454080              -6.6779
       134                         -0.2383175              -6.4849
       135                         -0.2373574              -6.4588
       136                         -0.2373252              -6.4579
       137                         -0.2372673              -6.4564
       138                         -0.2370533              -6.4505
       139                         -0.2316979              -6.3048
       140                         -0.2220432              -6.0421
       ...                                ...                  ...
       252                          0.7457730              20.2935
      -------------------------------------------------------------
                  HL-Gap            0.0754726 Eh            2.0537 eV

     #   Z          covCN         q      C6AA      α(0)
     1   6 C        2.920    -0.041    29.009     8.832
     2   6 C        2.924    -0.033    28.831     8.805
     3   6 C        2.910    -0.051    29.265     8.871
     4   6 C        3.075     0.046    26.881     8.501
     5   6 C        3.068    -0.017    28.356     8.732
     6   6 C        2.913    -0.033    28.814     8.802
     7   6 C        3.068    -0.017    28.355     8.731
     8   6 C        2.913    -0.033    28.814     8.802
     9   6 C        2.920    -0.041    29.009     8.832
    10   6 C        2.924    -0.033    28.830     8.805
    11   6 C        2.910    -0.051    29.267     8.871
    12   6 C        3.075     0.046    26.880     8.501
    13   7 N        2.802    -0.044    22.081     6.979
    14   6 C        2.913     0.065    26.551     8.449
    15   6 C        2.920    -0.043    29.069     8.841
    16   6 C        2.925    -0.033    28.814     8.803
    17   6 C        2.976     0.007    27.869     8.659
    18   6 C        2.977     0.016    27.641     8.624
    19   6 C        2.924    -0.033    28.817     8.803
    20   6 C        2.922    -0.027    28.673     8.781
    21   6 C        2.975    -0.006    28.162     8.705
    22   6 C        3.170     0.213    23.188     7.867
    23   7 N        2.047    -0.198    26.021     7.567
    24   7 N        2.047    -0.198    26.021     7.567
    25   6 C        3.170     0.213    23.188     7.867
    26   6 C        2.975    -0.006    28.162     8.705
    27   6 C        2.922    -0.027    28.673     8.781
    28   6 C        2.924    -0.033    28.817     8.803
    29   6 C        2.977     0.016    27.641     8.624
    30   6 C        2.976     0.007    27.869     8.659
    31   6 C        2.925    -0.033    28.814     8.803
    32   6 C        2.920    -0.043    29.069     8.841
    33   6 C        2.913     0.065    26.551     8.449
    34   7 N        2.802    -0.044    22.081     6.979
    35   6 C        3.075     0.046    26.881     8.501
    36   6 C        2.910    -0.051    29.265     8.871
    37   6 C        2.924    -0.033    28.830     8.805
    38   6 C        2.920    -0.041    29.009     8.832
    39   6 C        2.913    -0.033    28.814     8.802
    40   6 C        3.068    -0.017    28.356     8.732
    41   6 C        3.068    -0.017    28.355     8.731
    42   6 C        2.913    -0.033    28.814     8.802
    43   6 C        2.920    -0.041    29.009     8.832
    44   6 C        2.924    -0.033    28.830     8.805
    45   6 C        2.910    -0.051    29.267     8.871
    46   6 C        3.075     0.046    26.880     8.501
    47   6 C        2.920    -0.043    29.062     8.840
    48   6 C        2.924    -0.033    28.811     8.802
    49   6 C        2.923    -0.030    28.753     8.793
    50   6 C        2.922    -0.028    28.700     8.785
    51   8 O        1.722    -0.229    17.797     5.696
    52   6 C        2.922    -0.028    28.700     8.785
    53   6 C        2.923    -0.030    28.753     8.793
    54   6 C        2.924    -0.033    28.811     8.802
    55   6 C        2.920    -0.043    29.062     8.840
    56   1 H        0.926     0.028     2.610     2.526
    57   1 H        0.926     0.029     2.598     2.520
    58   1 H        0.926     0.027     2.630     2.536
    59   1 H        0.926     0.031     2.568     2.506
    60   1 H        0.926     0.031     2.568     2.506
    61   1 H        0.926     0.028     2.609     2.526
    62   1 H        0.926     0.029     2.598     2.521
    63   1 H        0.926     0.027     2.631     2.537
    64   1 H        0.926     0.043     2.412     2.429
    65   1 H        0.926     0.039     2.467     2.456
    66   1 H        0.926     0.040     2.450     2.448
    67   1 H        0.926     0.044     2.390     2.418
    68   1 H        0.926     0.044     2.390     2.418
    69   1 H        0.926     0.040     2.450     2.448
    70   1 H        0.926     0.039     2.467     2.456
    71   1 H        0.926     0.043     2.412     2.429
    72   1 H        0.926     0.027     2.630     2.536
    73   1 H        0.926     0.029     2.598     2.520
    74   1 H        0.926     0.028     2.610     2.526
    75   1 H        0.926     0.031     2.568     2.506
    76   1 H        0.926     0.031     2.568     2.506
    77   1 H        0.926     0.028     2.609     2.526
    78   1 H        0.926     0.029     2.598     2.521
    79   1 H        0.926     0.027     2.631     2.537
    80   1 H        0.926     0.043     2.404     2.425
    81   1 H        0.926     0.040     2.451     2.448
    82   1 H        0.926     0.044     2.401     2.423
    83   1 H        0.926     0.061     2.186     2.312
    84   1 H        0.926     0.061     2.186     2.312
    85   1 H        0.926     0.044     2.401     2.423
    86   1 H        0.926     0.040     2.450     2.448
    87   1 H        0.926     0.043     2.404     2.425

molecular dipole:
                 x           y           z       tot (Debye)
 q only:       -0.000      -0.289       0.516
   full:       -0.000      -0.552       1.005       2.915

 projected vibrational frequencies (cm⁻¹)
eigval :       -0.00    -0.00     0.00     0.00     0.00     0.00
eigval :        5.31     7.65     8.42    13.88    23.79    26.05
eigval :       35.38    40.86    48.90    50.31    63.53    65.31
eigval :       77.83    90.35    92.86    98.23    98.90   102.98
eigval :      108.57   121.95   137.04   145.13   145.16   148.15
eigval :      180.60   203.09   217.89   225.32   230.74   238.22
eigval :      264.53   271.73   271.84   293.07   299.62   342.06
eigval :      353.25   357.33   369.78   369.79   380.26   383.01
eigval :      383.05   386.38   393.66   396.15   419.01   421.24
eigval :      422.77   434.08   434.88   436.99   437.08   470.95
eigval :      486.24   494.81   505.83   516.16   518.06   518.95
eigval :      528.56   531.44   536.53   538.65   541.15   541.16
eigval :      582.40   582.49   593.80   594.01   606.86   607.25
eigval :      617.68   617.71   627.29   643.40   673.18   673.86
eigval :      673.97   676.10   694.70   695.07   698.44   706.41
eigval :      709.58   713.34   718.47   724.12   755.42   756.22
eigval :      769.70   769.72   774.65   780.82   781.07   784.18
eigval :      810.14   810.98   836.41   837.05   866.34   866.40
eigval :      871.44   871.97   873.98   873.99   881.35   881.43
eigval :      897.91   897.91   902.68   902.69   903.09   903.10
eigval :      917.04   917.45   920.93   921.06   921.55   921.68
eigval :      926.32   927.03   927.69   927.81   929.89   930.01
eigval :      935.59   935.84   961.18   966.29   991.18  1002.55
eigval :     1012.13  1012.13  1015.99  1021.01  1070.58  1070.59
eigval :     1073.84  1073.87  1077.07  1077.36  1085.78  1100.20
eigval :     1118.02  1118.05  1130.95  1131.45  1139.59  1139.80
eigval :     1153.10  1153.11  1176.84  1176.84  1181.37  1181.38
eigval :     1181.86  1182.91  1183.23  1189.77  1193.32  1205.06
eigval :     1205.68  1236.71  1236.72  1244.75  1244.80  1262.75
eigval :     1264.07  1268.90  1269.92  1270.76  1285.29  1298.39
eigval :     1300.82  1302.63  1302.65  1307.33  1313.85  1316.37
eigval :     1318.11  1326.11  1328.91  1357.58  1357.60  1362.03
eigval :     1362.03  1370.68  1370.87  1395.45  1395.93  1413.85
eigval :     1414.15  1428.39  1428.39  1430.90  1431.25  1461.69
eigval :     1463.00  1476.32  1476.33  1488.32  1488.33  1501.01
eigval :     1501.41  1538.53  1540.40  1555.70  1556.84  1566.09
eigval :     1567.28  1575.52  1575.53  1586.73  1587.22  1589.53
eigval :     1589.60  1599.26  1599.27  1601.10  1601.52  1615.12
eigval :     1615.17  3076.32  3076.32  3076.66  3076.66  3080.62
eigval :     3080.72  3081.44  3081.49  3082.34  3082.36  3083.53
eigval :     3083.69  3084.35  3084.47  3088.08  3088.14  3088.47
eigval :     3088.51  3089.98  3090.00  3094.41  3094.81  3095.30
eigval :     3095.43  3095.70  3095.90  3096.33  3096.37  3097.23
eigval :     3097.23  3113.05  3113.19

   temp. (K)  partition function   enthalpy   heat capacity  entropy
                                   cal/mol     cal/K/mol   cal/K/mol   J/K/mol
 298.15  VIB  0.328E+21            24849.566    157.538    156.791
         ROT  0.289E+09              888.752      2.981     41.695
         INT  0.947E+29            25738.318    160.519    198.486
         TR   0.181E+29             1481.254      4.968     45.518
         TOT                       27219.5723   165.4867   244.0039  1020.9125

       T/K    H(0)-H(T)+PV         H(T)/Eh          T*S/Eh         G(T)/Eh
   ------------------------------------------------------------------------
    298.15    0.433771E-01    0.705622E+00    0.115934E+00    0.589688E+00
   ------------------------------------------------------------------------

         :::::::::::::::::::::::::::::::::::::::::::::::::::::
         ::                  THERMODYNAMIC                  ::
         :::::::::::::::::::::::::::::::::::::::::::::::::::::
         :: total free energy        -138.627284913850 Eh   ::
         ::.................................................::
         :: total energy             -139.216973059618 Eh   ::
         :: zero point energy           0.662245145092 Eh   ::
         :: G(RRHO) w/o ZPVE           -0.072556999324 Eh   ::
         :: G(RRHO) contrib.            0.589688145768 Eh   ::
         :::::::::::::::::::::::::::::::::::::::::::::::::::::

           -------------------------------------------------
          | TOTAL ENERGY             -139.216973059618 Eh   |
          | TOTAL ENTHALPY           -138.511350765025 Eh   |
          | TOTAL FREE ENERGY        -138.627284913850 Eh   |
          | GRADIENT NORM               0.000066561251 Eh/α |
          | HOMO-LUMO GAP               2.053714194546 eV   |
           -------------------------------------------------

 * finished run on 2025/08/22 at 14:16:39.611
