   * xtb version 6.7.1 (edcfbbe) compiled by 'albert@albert-system' on 2024-07-22

   ID    Z sym.   atoms
    1    6 C      1, 3-14, 16-21, 23-41
    2    8 O      2, 42
    3    7 N      15, 22
    4    1 H      43-68

          program call               : xtb data2507/gas/C-O/C-O_gas_S0_crest.xyz --gfn 2 --ohess vtight --parallel 40 --molden --ceasefiles --namespace data2507/gas/C-O/C-O_gas_S0_finalOpt
          :  Hamiltonian                  GFN2-xTB          :
 * total energy  :  -108.7148648 Eh     change       -0.7844250E-09 Eh
 * total energy  :  -108.7148657 Eh     change       -0.9276955E-06 Eh
 * total energy  :  -108.7148669 Eh     change       -0.1215950E-05 Eh
 * total energy  :  -108.7148694 Eh     change       -0.2466181E-05 Eh
 * total energy  :  -108.7148705 Eh     change       -0.1111571E-05 Eh
 * total energy  :  -108.7148716 Eh     change       -0.1092911E-05 Eh
 * total energy  :  -108.7148734 Eh     change       -0.1841394E-05 Eh
 * total energy  :  -108.7148753 Eh     change       -0.1807230E-05 Eh
 * total energy  :  -108.7148763 Eh     change       -0.1073376E-05 Eh
 * total energy  :  -108.7148774 Eh     change       -0.1099602E-05 Eh
 * total energy  :  -108.7148807 Eh     change       -0.4330900E-06 Eh
 * total energy  :  -108.7148811 Eh     change       -0.3563171E-06 Eh
 * total energy  :  -108.7148814 Eh     change       -0.3505746E-06 Eh
 * total energy  :  -108.7148817 Eh     change       -0.3464532E-06 Eh
 * total energy  :  -108.7148821 Eh     change       -0.3464773E-06 Eh
 * total energy  :  -108.7148824 Eh     change       -0.3507937E-06 Eh
 * total energy  :  -108.7148828 Eh     change       -0.3384669E-06 Eh
 * total energy  :  -108.7148831 Eh     change       -0.3197936E-06 Eh
 * total energy  :  -108.7148831 Eh     change       -0.7405745E-08 Eh
   *** GEOMETRY OPTIMIZATION CONVERGED AFTER 22 ITERATIONS ***

 final structure:
================
68
 xtb: 6.7.1 (edcfbbe)
C            5.20642026657073        4.97493807352408       -0.19927372272493
O            3.84332009193749        4.99493137139898       -0.53829790960665
C            3.07352635718774        3.91983560509392       -0.18631730948256
C            1.72532676906685        4.01141110295722       -0.56452951591667
C            0.82346856597529        3.00903084377348       -0.28304353857911
C            1.28400963916148        1.89162163949484        0.39810526683684
C            2.63754619639644        1.78326579367092        0.77498392860471
C            3.53887768786269        2.80143662648161        0.48487663391817
C            2.78431466105463        0.50847193326409        1.41874315906245
C            3.85666038361450       -0.16084917100483        1.99264428967129
C            3.63802111831214       -1.40266341701039        2.55472998839624
C            2.36335128920846       -1.96312051864398        2.58452808474068
C            1.28044152145892       -1.31419385012654        2.02506778994432
C            1.50732672078596       -0.09545520290736        1.40388818457595
N            0.60787308143340        0.74202445738738        0.77472597855194
C           -0.66504057117672        0.36955059369226        0.32449271095728
C           -1.76250309232480        1.16544514909375        0.61352639385026
C           -3.03613706361680        0.80787560391769        0.18607683761825
C           -3.23090155419964       -0.36491968594538       -0.54070669763419
C           -2.12902219740516       -1.15114317458175       -0.83600162515957
C           -0.84803685645315       -0.80328360047241       -0.43014954244611
N            0.24269318750643       -1.61756459703252       -0.76995982271305
C            1.42905480759591       -1.16987241709420       -1.31919631708299
C            1.70568317769594        0.04092806744596       -1.93502864656686
C            2.98962310734875        0.24654191732588       -2.40067401002180
C            3.96868401925713       -0.73683950735271       -2.28400287300591
C            3.68017610024288       -1.96677465334885       -1.72656926394965
C            2.39802963141395       -2.19440014421186       -1.24641025376974
C            1.75198017155299       -3.32205015905095       -0.63510855221237
C            2.17779581998357       -4.59778915584125       -0.29227567465161
C            1.28278291253210       -5.45320892981226        0.31907716928859
C           -0.02021587156462       -5.04803994582473        0.59742064614275
C           -0.46698100474847       -3.78265756230327        0.26741835680891
C            0.42445837743735       -2.92441233668441       -0.35818974865281
C           -4.60067493308806       -0.75245104990568       -1.02296664412548
C           -5.67060489442648        0.13522721256152       -0.44875427304975
C           -7.01317317962656       -0.15899211704125       -0.64152430401531
C           -8.00597970386821        0.66385965369941       -0.14279848919277
C           -7.66223909364025        1.80478622304160        0.56394303877944
C           -6.33274614988708        2.11121144058384        0.77412361592217
C           -5.33771387958988        1.27873869873940        0.27115768600357
O           -4.04727883472299        1.65236389968945        0.53283214280662
H            5.61754308554028        5.91244592025720       -0.57084607151158
H            5.35132694355969        4.92186047527137        0.88512450390895
H            5.72805283321388        4.13782564506720       -0.67559251770247
H            1.41402477923368        4.89923688902351       -1.09156657973852
H           -0.20639911410247        3.09332315657535       -0.59535174097673
H            4.57016784541245        2.69584609984417        0.77963728991381
H            4.83998965739250        0.28474873756382        1.99875860977637
H            4.46172146972575       -1.94406898921546        2.99569552378957
H            2.21612371944262       -2.92384321899401        3.05500528801513
H            0.29049133428025       -1.74171185707889        2.07479875030654
H           -1.64136209588909        2.06390362536378        1.19758547543412
H           -2.26264780721779       -2.04878734362938       -1.42209509811194
H            0.94539739233558        0.79828586681626       -2.05111211547981
H            3.23522379799619        1.18962959019553       -2.86578666676085
H            4.96353135138589       -0.53651582726430       -2.65344044398558
H            4.43231380039018       -2.73866386090976       -1.66448804555134
H            3.19096894033795       -4.90858755496154       -0.49758855668646
H            1.59429496332699       -6.45039285855906        0.59274340404123
H           -0.69529166036940       -5.73625888057813        1.08483266559984
H           -1.47427935450192       -3.47061263132155        0.50166429461872
H           -4.80565011441267       -1.79696207853110       -0.76415005843025
H           -4.62890856699745       -0.69012344444575       -2.11865392155962
H           -7.27578565461992       -1.04804278528481       -1.19691769853928
H           -9.04379160225538        0.41736944393137       -0.30653832355133
H           -8.43001259295809        2.45487510746433        0.95465907833392
H           -6.03765033300192        2.99003885346025        1.32535893082632

          :  Hamiltonian                  GFN2-xTB          :
         :: gradient norm              0.000052170880 Eh/a0 ::
         :: HOMO-LUMO gap              2.858931986413 eV    ::
         :: SCC energy              -110.616908288024 Eh    ::
         :: -> dispersion             -0.105916268402 Eh    ::
         :: repulsion energy           1.902025177341 Eh    ::

    * Orbital Energies and Occupations

         #    Occupation            Energy/Eh            Energy/eV
      -------------------------------------------------------------
         1        2.0000           -0.7334955             -19.9594
       ...           ...                  ...                  ...
        88        2.0000           -0.4168048             -11.3418
        89        2.0000           -0.4165598             -11.3352
        90        2.0000           -0.4140073             -11.2657
        91        2.0000           -0.4135942             -11.2545
        92        2.0000           -0.4126693             -11.2293
        93        2.0000           -0.4062251             -11.0539
        94        2.0000           -0.4010283             -10.9125
        95        2.0000           -0.3915068             -10.6534
        96        2.0000           -0.3798121             -10.3352
        97        2.0000           -0.3765972             -10.2477
        98        2.0000           -0.3708413             -10.0911
        99        2.0000           -0.3600322              -9.7970
       100        2.0000           -0.3529333              -9.6038 (HOMO)
       101                         -0.2478695              -6.7449 (LUMO)
       102                         -0.2436276              -6.6294
       103                         -0.2394546              -6.5159
       104                         -0.2383132              -6.4848
       105                         -0.2316564              -6.3037
       106                         -0.2210887              -6.0161
       107                         -0.2143685              -5.8333
       108                         -0.2111462              -5.7456
       109                         -0.1900599              -5.1718
       110                         -0.1855457              -5.0490
       111                         -0.1825246              -4.9667
       ...                                ...                  ...
       194                          0.7514224              20.4472
      -------------------------------------------------------------
                  HL-Gap            0.1050638 Eh            2.8589 eV

     #   Z          covCN         q      C6AA      α(0)
     1   6 C        3.644     0.040    20.229     6.465
     2   8 O        1.705    -0.276    18.580     5.820
     3   6 C        2.867     0.134    25.078     8.209
     4   6 C        2.925    -0.056    29.400     8.892
     5   6 C        2.909    -0.049    29.227     8.865
     6   6 C        3.078     0.039    27.032     8.524
     7   6 C        3.070    -0.016    28.340     8.729
     8   6 C        2.911    -0.070    29.751     8.944
     9   6 C        3.069    -0.016    28.348     8.730
    10   6 C        2.913    -0.032    28.810     8.802
    11   6 C        2.920    -0.040    28.998     8.831
    12   6 C        2.925    -0.032    28.796     8.800
    13   6 C        2.910    -0.048    29.180     8.858
    14   6 C        3.081     0.048    26.826     8.491
    15   7 N        2.801    -0.044    22.098     6.982
    16   6 C        2.913     0.052    26.842     8.496
    17   6 C        2.922    -0.070    29.753     8.945
    18   6 C        2.880     0.134    25.064     8.207
    19   6 C        2.968    -0.018    28.447     8.749
    20   6 C        2.928    -0.056    29.397     8.892
    21   6 C        2.911     0.043    27.031     8.525
    22   7 N        2.801    -0.046    22.132     6.987
    23   6 C        3.080     0.048    26.826     8.491
    24   6 C        2.910    -0.048    29.191     8.859
    25   6 C        2.925    -0.032    28.800     8.801
    26   6 C        2.921    -0.040    28.992     8.830
    27   6 C        2.913    -0.033    28.812     8.802
    28   6 C        3.067    -0.017    28.354     8.731
    29   6 C        3.069    -0.015    28.325     8.727
    30   6 C        2.913    -0.032    28.795     8.799
    31   6 C        2.920    -0.041    29.017     8.834
    32   6 C        2.924    -0.034    28.841     8.807
    33   6 C        2.910    -0.051    29.263     8.870
    34   6 C        3.077     0.049    26.817     8.490
    35   6 C        3.813    -0.054    21.537     6.605
    36   6 C        2.969    -0.014    28.366     8.736
    37   6 C        2.927    -0.041    29.022     8.835
    38   6 C        2.918    -0.039    28.967     8.826
    39   6 C        2.921    -0.032    28.797     8.800
    40   6 C        2.919    -0.053    29.319     8.879
    41   6 C        2.883     0.135    25.056     8.206
    42   8 O        1.710    -0.240    17.980     5.725
    43   1 H        0.925     0.059     2.215     2.327
    44   1 H        0.924     0.037     2.484     2.465
    45   1 H        0.924     0.038     2.482     2.464
    46   1 H        0.926     0.048     2.339     2.392
    47   1 H        0.926     0.034     2.528     2.486
    48   1 H        0.926     0.036     2.500     2.472
    49   1 H        0.926     0.030     2.588     2.516
    50   1 H        0.926     0.029     2.606     2.524
    51   1 H        0.926     0.029     2.601     2.522
    52   1 H        0.926     0.024     2.680     2.560
    53   1 H        0.926     0.064     2.153     2.294
    54   1 H        0.926     0.049     2.326     2.385
    55   1 H        0.926     0.024     2.676     2.558
    56   1 H        0.926     0.029     2.604     2.523
    57   1 H        0.926     0.028     2.617     2.530
    58   1 H        0.926     0.031     2.572     2.508
    59   1 H        0.926     0.031     2.571     2.507
    60   1 H        0.926     0.028     2.617     2.530
    61   1 H        0.926     0.028     2.612     2.528
    62   1 H        0.926     0.023     2.683     2.561
    63   1 H        0.924     0.050     2.321     2.383
    64   1 H        0.924     0.052     2.294     2.368
    65   1 H        0.926     0.036     2.508     2.476
    66   1 H        0.926     0.037     2.486     2.465
    67   1 H        0.926     0.040     2.448     2.447
    68   1 H        0.926     0.051     2.311     2.377

molecular dipole:
                 x           y           z       tot (Debye)
 q only:       -0.610      -0.167      -0.101
   full:       -0.608      -0.275      -0.105       1.716

 projected vibrational frequencies (cm⁻¹)
eigval :       -0.00    -0.00    -0.00     0.00     0.00     0.00
eigval :       10.76    16.95    27.85    37.74    40.92    43.97
eigval :       48.43    73.26    85.65   104.72   109.57   116.50
eigval :      136.09   148.62   154.72   160.75   174.30   186.78
eigval :      191.64   193.73   213.64   239.29   256.62   261.79
eigval :      276.07   279.72   283.19   292.21   331.22   367.20
eigval :      383.32   397.28   398.72   402.72   405.48   417.03
eigval :      424.69   428.58   438.45   440.76   463.00   482.70
eigval :      484.63   498.57   504.62   518.73   527.35   529.12
eigval :      542.44   547.72   552.24   562.98   586.19   586.75
eigval :      594.01   602.55   617.14   627.32   639.37   660.71
eigval :      669.39   673.06   681.77   699.30   704.45   707.78
eigval :      718.26   731.79   756.47   760.61   770.15   776.49
eigval :      779.46   781.89   806.84   842.22   845.56   850.10
eigval :      859.00   864.24   870.65   871.40   876.46   876.90
eigval :      878.28   888.00   898.51   902.37   903.56   904.52
eigval :      906.21   910.49   921.91   923.28   923.82   924.20
eigval :      926.64   948.61   962.35  1012.79  1023.83  1064.98
eigval :     1069.60  1070.83  1073.01  1077.45  1087.35  1115.88
eigval :     1120.36  1124.34  1142.59  1147.90  1151.38  1158.80
eigval :     1165.46  1169.35  1174.17  1176.29  1179.91  1180.90
eigval :     1182.36  1190.63  1200.28  1215.85  1222.34  1235.09
eigval :     1236.85  1243.96  1246.69  1249.06  1262.40  1282.95
eigval :     1299.33  1300.70  1306.32  1317.71  1319.34  1329.60
eigval :     1348.53  1356.02  1360.67  1363.62  1364.13  1391.18
eigval :     1402.83  1416.14  1424.52  1429.57  1436.59  1438.13
eigval :     1442.46  1455.75  1472.85  1475.91  1477.68  1482.98
eigval :     1486.20  1489.23  1492.59  1496.95  1556.80  1572.89
eigval :     1576.52  1588.15  1589.52  1592.04  1593.23  1600.90
eigval :     1604.68  1605.21  1616.95  1620.01  2894.52  2923.09
eigval :     2938.73  2939.31  3024.34  3072.84  3076.76  3076.83
eigval :     3077.46  3078.89  3082.44  3083.03  3086.33  3086.76
eigval :     3088.05  3088.17  3089.39  3090.47  3094.88  3097.20
eigval :     3097.41  3098.72  3108.81  3109.59  3111.05  3112.63

   temp. (K)  partition function   enthalpy   heat capacity  entropy
                                   cal/mol     cal/K/mol   cal/K/mol   J/K/mol
 298.15  VIB  0.292E+14            18630.207    121.960    113.241
         ROT  0.439E+08              888.752      2.981     37.953
         INT  0.128E+22            19518.959    124.940    151.193
         TR   0.122E+29             1481.254      4.968     44.739
         TOT                       21000.2129   129.9086   195.9324   819.7810

       T/K    H(0)-H(T)+PV         H(T)/Eh          T*S/Eh         G(T)/Eh
   ------------------------------------------------------------------------
    298.15    0.334660E-01    0.555175E+00    0.930938E-01    0.462081E+00
   ------------------------------------------------------------------------

         :::::::::::::::::::::::::::::::::::::::::::::::::::::
         ::                  THERMODYNAMIC                  ::
         :::::::::::::::::::::::::::::::::::::::::::::::::::::
         :: total free energy        -108.252801894518 Eh   ::
         ::.................................................::
         :: total energy             -108.714883110681 Eh   ::
         :: zero point energy           0.521709030520 Eh   ::
         :: G(RRHO) w/o ZPVE           -0.059627814357 Eh   ::
         :: G(RRHO) contrib.            0.462081216163 Eh   ::
         :::::::::::::::::::::::::::::::::::::::::::::::::::::

           -------------------------------------------------
          | TOTAL ENERGY             -108.714883110681 Eh   |
          | TOTAL ENTHALPY           -108.159708110761 Eh   |
          | TOTAL FREE ENERGY        -108.252801894518 Eh   |
          | GRADIENT NORM               0.000052138779 Eh/α |
          | HOMO-LUMO GAP               2.858931635336 eV   |
           -------------------------------------------------

 * finished run on 2025/09/11 at 03:33:59.340
