   * xtb version 6.7.1 (edcfbbe) compiled by 'albert@albert-system' on 2024-07-22

   ID    Z sym.   atoms
    1    6 C      1, 3-14, 16-21, 23-41
    2    8 O      2, 42
    3    7 N      15, 22
    4    1 H      43-68

          program call               : xtb data2507/gas/C-O/C-O.xyz --gfn 2 --ohess vtight --parallel 40 --molden --ceasefiles --namespace data2507/gas/C-O/C-O_gas_S0_preOpt
          :  Hamiltonian                  GFN2-xTB          :
 * total energy  :  -108.6941957 Eh     change       -0.1482846E-08 Eh
 * total energy  :  -108.7077484 Eh     change       -0.1355268E-01 Eh
 * total energy  :  -108.7108803 Eh     change       -0.3131915E-02 Eh
 * total energy  :  -108.7116270 Eh     change       -0.7467072E-03 Eh
 * total energy  :  -108.7121019 Eh     change       -0.4748523E-03 Eh
 * total energy  :  -108.7122722 Eh     change       -0.1703364E-03 Eh
 * total energy  :  -108.7124043 Eh     change       -0.1321438E-03 Eh
 * total energy  :  -108.7125228 Eh     change       -0.1184772E-03 Eh
 * total energy  :  -108.7126390 Eh     change       -0.1161610E-03 Eh
 * total energy  :  -108.7127586 Eh     change       -0.1195878E-03 Eh
 * total energy  :  -108.7148595 Eh     change       -0.7202350E-05 Eh
 * total energy  :  -108.7148631 Eh     change       -0.3653246E-05 Eh
 * total energy  :  -108.7148640 Eh     change       -0.8428917E-06 Eh
 * total energy  :  -108.7148646 Eh     change       -0.6541654E-06 Eh
 * total energy  :  -108.7148650 Eh     change       -0.3299207E-06 Eh
 * total energy  :  -108.7148651 Eh     change       -0.1401276E-06 Eh
 * total energy  :  -108.7148652 Eh     change       -0.1219908E-06 Eh
 * total energy  :  -108.7148653 Eh     change       -0.1048313E-06 Eh
 * total energy  :  -108.7148654 Eh     change       -0.7862214E-07 Eh
   *** GEOMETRY OPTIMIZATION CONVERGED AFTER 50 ITERATIONS ***

 final structure:
================
68
 xtb: 6.7.1 (edcfbbe)
C            6.30836851542529       -0.00645444472168        2.06778281991640
O            5.10272815703923        0.64761248394450        2.37122083928297
C            3.93886049883387        0.11147065957152        1.89330966734553
C            2.78051559604144        0.83478621897162        2.21532563066631
C            1.53609063982373        0.43665507509948        1.78207762575376
C            1.45711346696775       -0.69758048813883        0.98729776357510
C            2.60187307901106       -1.47155100039601        0.71775224938648
C            3.85350616175670       -1.06292463057376        1.16378578513873
C            2.15516618805507       -2.60974768821943       -0.03464698813177
C            2.80526328023870       -3.70448002039417       -0.58805348560751
C            2.06253505361591       -4.63099424580272       -1.29197726711525
C            0.68860685829953       -4.47174569333179       -1.45620764356679
C            0.01891228296702       -3.39004625227056       -0.91698733207054
C            0.75802946043951       -2.46404504989557       -0.19629294380500
N            0.34542961570506       -1.29715725801870        0.41911769316939
C           -0.89074853814759       -0.67014690557806        0.21767339268012
C           -2.06313953959151       -1.32316981148190        0.56505414447193
C           -3.30105829150069       -0.71790792126504        0.37982476422481
C           -3.38301029222818        0.56611561943130       -0.15429691841878
C           -2.20894732911439        1.20864830180241       -0.51314717238604
C           -0.96503809278283        0.61476236558445       -0.35063568465362
N            0.19518593210381        1.29845340217700       -0.74422397617304
C            0.64526544530268        2.48664708928726       -0.19867077594654
C           -0.00410706435271        3.36576796613296        0.65446090707824
C            0.68846855294422        4.48471921598945        1.07651824827224
C            1.99773908820609        4.72518191136534        0.66761783387528
C            2.65287600074017        3.84615165165322       -0.17165993453809
C            1.97714471736767        2.71630221920124       -0.61099997990928
C            2.34306501132852        1.60858799267446       -1.44849659673242
C            3.50040721269321        1.26408502102183       -2.13255212506723
C            3.50640297072302        0.10218124889456       -2.87873992011142
C            2.36745617885107       -0.69271528976951       -2.97943457288245
C            1.20296728136813       -0.36745294169948       -2.31175264053904
C            1.21265493480088        0.76464636588627       -1.51166306640223
C           -4.71271189308565        1.23842949918020       -0.35216396790440
C           -5.85742933528799        0.37469047860183        0.10219772487506
C           -7.16466222711483        0.83255554899464        0.01126094114789
C           -8.22868989302645        0.05112513441146        0.42160287337410
C           -7.99396282337249       -1.21419334293722        0.93475349675928
C           -6.70147024059231       -1.68825264722490        1.03487565278183
C           -5.63414005342560       -0.89722530650641        0.62050529545337
O           -4.38837683008236       -1.44667060190205        0.75679474650333
H            6.46745808665589       -0.07471255085773        0.98627906380640
H            7.09523525417888        0.60292185480748        2.51003861540754
H            6.34363102622078       -1.01106812744655        2.50312741381190
H            2.89384907866080        1.72320047048511        2.81539280330537
H            0.65407416536346        0.99362563630859        2.05783007128426
H            4.72004683585450       -1.66161934868705        0.93515997799743
H            3.87203047176812       -3.82236704839127       -0.47146969914650
H            2.54966170455240       -5.49030715846136       -1.72857807714914
H            0.13480528809057       -5.20825238587513       -2.01980892693512
H           -1.04403784531025       -3.26733635959293       -1.06274951592195
H           -2.02535820517328       -2.30562635175066        1.00824040008112
H           -2.26037218775782        2.19316163268035       -0.95500269558923
H           -1.01344040070190        3.17791675349764        0.99033400852038
H            0.20487144748165        5.18566271162037        1.74114741127376
H            2.50578040535698        5.61039119126753        1.02036815571736
H            3.67190539816984        4.02671607538332       -0.47825027134790
H            4.37434101324015        1.89589737050948       -2.08053182704855
H            4.40047210159335       -0.18957297452129       -3.40974228418164
H            2.39231160260334       -1.58177333573843       -3.59180713681536
H            0.31649724491219       -0.97510717471040       -2.41331802900999
H           -4.84159293718065        1.48942992091861       -1.41203475284576
H           -4.72998951765978        2.18737525491813        0.19729503339932
H           -7.34207312591829        1.82007693142309       -0.39023307737225
H           -9.23700282907493        0.42725638745237        0.34131027296083
H           -8.81782185970460       -1.83209615647271        1.25757096687750
H           -6.49042095313480       -2.66890814849399        1.43122399512229

          :  Hamiltonian                  GFN2-xTB          :
         :: gradient norm              0.000043591527 Eh/a0 ::
         :: HOMO-LUMO gap              2.867306088748 eV    ::
         :: SCC energy              -110.616747563109 Eh    ::
         :: -> dispersion             -0.106411831274 Eh    ::
         :: repulsion energy           1.901882155463 Eh    ::

    * Orbital Energies and Occupations

         #    Occupation            Energy/Eh            Energy/eV
      -------------------------------------------------------------
         1        2.0000           -0.7335449             -19.9608
       ...           ...                  ...                  ...
        88        2.0000           -0.4163550             -11.3296
        89        2.0000           -0.4146446             -11.2831
        90        2.0000           -0.4142347             -11.2719
        91        2.0000           -0.4133899             -11.2489
        92        2.0000           -0.4121634             -11.2155
        93        2.0000           -0.4058989             -11.0451
        94        2.0000           -0.3999099             -10.8821
        95        2.0000           -0.3920322             -10.6677
        96        2.0000           -0.3791999             -10.3186
        97        2.0000           -0.3774425             -10.2707
        98        2.0000           -0.3695858             -10.0569
        99        2.0000           -0.3587299              -9.7615
       100        2.0000           -0.3530619              -9.6073 (HOMO)
       101                         -0.2476903              -6.7400 (LUMO)
       102                         -0.2433086              -6.6208
       103                         -0.2390133              -6.5039
       104                         -0.2378793              -6.4730
       105                         -0.2316279              -6.3029
       106                         -0.2207368              -6.0066
       107                         -0.2138442              -5.8190
       108                         -0.2112745              -5.7491
       109                         -0.1897333              -5.1629
       110                         -0.1853746              -5.0443
       111                         -0.1815982              -4.9415
       ...                                ...                  ...
       194                          0.7521902              20.4681
      -------------------------------------------------------------
                  HL-Gap            0.1053716 Eh            2.8673 eV

     #   Z          covCN         q      C6AA      α(0)
     1   6 C        3.645     0.040    20.228     6.464
     2   8 O        1.705    -0.275    18.558     5.816
     3   6 C        2.868     0.134    25.059     8.206
     4   6 C        2.926    -0.055    29.366     8.887
     5   6 C        2.910    -0.046    29.152     8.853
     6   6 C        3.082     0.039    27.040     8.525
     7   6 C        3.067    -0.017    28.370     8.734
     8   6 C        2.911    -0.071    29.766     8.946
     9   6 C        3.071    -0.015    28.314     8.725
    10   6 C        2.913    -0.032    28.798     8.800
    11   6 C        2.920    -0.041    29.022     8.834
    12   6 C        2.924    -0.033    28.833     8.806
    13   6 C        2.910    -0.051    29.257     8.869
    14   6 C        3.077     0.049    26.814     8.490
    15   7 N        2.800    -0.045    22.103     6.983
    16   6 C        2.913     0.052    26.843     8.496
    17   6 C        2.922    -0.070    29.755     8.945
    18   6 C        2.880     0.134    25.065     8.208
    19   6 C        2.967    -0.018    28.453     8.750
    20   6 C        2.929    -0.056    29.400     8.892
    21   6 C        2.911     0.043    27.035     8.526
    22   7 N        2.800    -0.047    22.138     6.988
    23   6 C        3.078     0.049    26.829     8.492
    24   6 C        2.910    -0.051    29.270     8.871
    25   6 C        2.924    -0.034    28.835     8.806
    26   6 C        2.920    -0.040    29.001     8.831
    27   6 C        2.913    -0.031    28.770     8.795
    28   6 C        3.069    -0.015    28.321     8.726
    29   6 C        3.067    -0.017    28.357     8.732
    30   6 C        2.913    -0.033    28.817     8.803
    31   6 C        2.921    -0.040    29.003     8.831
    32   6 C        2.925    -0.032    28.800     8.801
    33   6 C        2.910    -0.048    29.184     8.858
    34   6 C        3.080     0.048    26.831     8.492
    35   6 C        3.813    -0.054    21.538     6.606
    36   6 C        2.969    -0.014    28.369     8.737
    37   6 C        2.927    -0.041    29.024     8.835
    38   6 C        2.918    -0.039    28.968     8.826
    39   6 C        2.921    -0.032    28.798     8.800
    40   6 C        2.919    -0.053    29.321     8.880
    41   6 C        2.882     0.135    25.054     8.206
    42   8 O        1.710    -0.240    17.977     5.725
    43   1 H        0.924     0.038     2.474     2.460
    44   1 H        0.925     0.059     2.211     2.326
    45   1 H        0.924     0.037     2.488     2.467
    46   1 H        0.926     0.048     2.345     2.395
    47   1 H        0.926     0.031     2.568     2.506
    48   1 H        0.926     0.036     2.500     2.472
    49   1 H        0.926     0.030     2.589     2.516
    50   1 H        0.926     0.028     2.616     2.529
    51   1 H        0.926     0.029     2.598     2.520
    52   1 H        0.926     0.027     2.632     2.537
    53   1 H        0.926     0.064     2.156     2.296
    54   1 H        0.926     0.049     2.326     2.385
    55   1 H        0.926     0.023     2.684     2.562
    56   1 H        0.926     0.028     2.608     2.525
    57   1 H        0.926     0.029     2.605     2.524
    58   1 H        0.926     0.032     2.556     2.500
    59   1 H        0.926     0.030     2.580     2.512
    60   1 H        0.926     0.027     2.622     2.532
    61   1 H        0.926     0.029     2.605     2.524
    62   1 H        0.926     0.023     2.687     2.563
    63   1 H        0.924     0.051     2.303     2.373
    64   1 H        0.924     0.051     2.310     2.377
    65   1 H        0.926     0.036     2.509     2.477
    66   1 H        0.926     0.037     2.487     2.466
    67   1 H        0.926     0.040     2.450     2.447
    68   1 H        0.926     0.050     2.314     2.379

molecular dipole:
                 x           y           z       tot (Debye)
 q only:       -0.628       0.112      -0.158
   full:       -0.663       0.086      -0.239       1.804

 projected vibrational frequencies (cm⁻¹)
eigval :       -0.00    -0.00    -0.00     0.00     0.00     0.00
eigval :        5.69    18.45    21.31    38.11    40.89    46.10
eigval :       52.19    74.65    87.32    98.70   107.07   112.00
eigval :      143.16   149.46   159.95   165.56   167.32   183.12
eigval :      190.42   193.26   216.15   238.74   257.67   263.66
eigval :      274.25   276.66   282.48   289.56   336.13   374.07
eigval :      378.92   395.96   400.75   402.45   406.57   417.90
eigval :      424.64   432.88   434.81   440.56   468.46   474.26
eigval :      486.86   500.50   504.27   518.66   528.52   528.83
eigval :      542.42   550.66   551.83   561.58   583.96   585.84
eigval :      591.73   601.03   612.51   625.03   654.46   660.51
eigval :      670.15   674.28   685.11   687.99   704.84   707.49
eigval :      715.99   734.08   756.50   760.00   769.95   774.56
eigval :      779.25   781.73   807.65   842.33   847.00   853.49
eigval :      853.97   862.28   868.46   873.76   876.66   877.03
eigval :      878.56   889.14   898.14   901.90   902.59   904.55
eigval :      910.57   911.60   921.51   921.84   923.37   924.18
eigval :      924.39   948.84   962.52  1012.79  1023.98  1064.75
eigval :     1069.48  1071.95  1073.00  1077.51  1087.52  1115.93
eigval :     1120.36  1123.97  1142.34  1147.16  1151.43  1158.65
eigval :     1168.51  1168.87  1174.28  1176.31  1180.29  1181.19
eigval :     1183.02  1191.73  1200.42  1216.51  1222.32  1235.29
eigval :     1237.24  1243.23  1245.53  1249.29  1263.12  1279.37
eigval :     1299.47  1300.74  1308.13  1318.26  1320.30  1328.47
eigval :     1346.81  1357.32  1360.71  1363.77  1364.20  1391.08
eigval :     1402.37  1416.08  1426.15  1429.58  1434.40  1437.84
eigval :     1442.10  1455.63  1472.93  1475.91  1477.83  1483.42
eigval :     1486.40  1489.28  1492.65  1496.80  1557.29  1574.05
eigval :     1576.61  1587.04  1589.27  1592.12  1593.50  1600.96
eigval :     1603.42  1605.78  1617.11  1620.56  2899.00  2922.15
eigval :     2932.23  2938.10  3023.84  3072.99  3074.82  3076.26
eigval :     3076.81  3079.64  3080.00  3082.04  3086.78  3087.20
eigval :     3088.08  3088.16  3089.19  3092.10  3094.64  3095.51
eigval :     3097.08  3098.65  3108.70  3109.54  3112.35  3114.74

   temp. (K)  partition function   enthalpy   heat capacity  entropy
                                   cal/mol     cal/K/mol   cal/K/mol   J/K/mol
 298.15  VIB  0.586E+14            18637.052    122.028    113.987
         ROT  0.408E+08              888.752      2.981     37.804
         INT  0.239E+22            19525.805    125.009    151.791
         TR   0.122E+29             1481.254      4.968     44.739
         TOT                       21007.0587   129.9772   196.5298   822.2808

       T/K    H(0)-H(T)+PV         H(T)/Eh          T*S/Eh         G(T)/Eh
   ------------------------------------------------------------------------
    298.15    0.334769E-01    0.555164E+00    0.933777E-01    0.461786E+00
   ------------------------------------------------------------------------

         :::::::::::::::::::::::::::::::::::::::::::::::::::::
         ::                  THERMODYNAMIC                  ::
         :::::::::::::::::::::::::::::::::::::::::::::::::::::
         :: total free energy        -108.253079540692 Eh   ::
         ::.................................................::
         :: total energy             -108.714865407643 Eh   ::
         :: zero point energy           0.521686648497 Eh   ::
         :: G(RRHO) w/o ZPVE           -0.059900781546 Eh   ::
         :: G(RRHO) contrib.            0.461785866951 Eh   ::
         :::::::::::::::::::::::::::::::::::::::::::::::::::::

           -------------------------------------------------
          | TOTAL ENERGY             -108.714865407643 Eh   |
          | TOTAL ENTHALPY           -108.159701880190 Eh   |
          | TOTAL FREE ENERGY        -108.253079540692 Eh   |
          | GRADIENT NORM               0.000043560245 Eh/α |
          | HOMO-LUMO GAP               2.867306117661 eV   |
           -------------------------------------------------

 * finished run on 2025/09/11 at 03:30:15.828
