   * xtb version 6.7.1 (edcfbbe) compiled by 'albert@albert-system' on 2024-07-22

   ID    Z sym.   atoms
    1    6 C      1, 3-14, 16-21, 23-41
    2    8 O      2, 42
    3    7 N      15, 22
    4    1 H      43-68

          program call               : xtb data2507/gas/C-O/C-O_gas_T1_crest.xyz --gfn 2 --spinpol --tblite --uhf 2 --ohess vtight --parallel 40 --molden --ceasefiles --namespace data2507/gas/C-O/C-O_gas_T1_finalOpt
 * total energy  :  -108.6112818 Eh     change       -0.7947392E-08 Eh
 * total energy  :  -108.6112956 Eh     change       -0.1378191E-04 Eh
 * total energy  :  -108.6113040 Eh     change       -0.8424148E-05 Eh
 * total energy  :  -108.6113053 Eh     change       -0.1272017E-05 Eh
 * total energy  :  -108.6113063 Eh     change       -0.1010858E-05 Eh
 * total energy  :  -108.6113071 Eh     change       -0.8103437E-06 Eh
 * total energy  :  -108.6113082 Eh     change       -0.1103811E-05 Eh
 * total energy  :  -108.6113092 Eh     change       -0.9927100E-06 Eh
 * total energy  :  -108.6113099 Eh     change       -0.7117053E-06 Eh
 * total energy  :  -108.6113106 Eh     change       -0.6850956E-06 Eh
 * total energy  :  -108.6113111 Eh     change       -0.5120266E-06 Eh
 * total energy  :  -108.6113112 Eh     change       -0.6382503E-07 Eh
 * total energy  :  -108.6113114 Eh     change       -0.2319235E-06 Eh
 * total energy  :  -108.6113116 Eh     change       -0.2428264E-06 Eh
 * total energy  :  -108.6113118 Eh     change       -0.1921404E-06 Eh
 * total energy  :  -108.6113119 Eh     change       -0.9876736E-07 Eh
   *** GEOMETRY OPTIMIZATION CONVERGED AFTER 16 ITERATIONS ***

 final structure:
================
68
 xtb: 6.7.1 (edcfbbe)
C            5.11144376970086        5.10981260105702       -0.14543547135885
O            3.74064128743253        5.09882409751093       -0.45918700569050
C            3.00310961639966        4.00623481001138       -0.13405794847809
C            1.63676864261361        4.09772531185625       -0.48859953538566
C            0.75532214624370        3.07071488857507       -0.21459576323993
C            1.24162827562726        1.93451161957022        0.41494212210456
C            2.62830414548496        1.81690377656848        0.74990429852455
C            3.50479526097775        2.87005078190802        0.48086499491198
C            2.81072031143487        0.52432018189788        1.30955183626726
C            3.91267748032277       -0.17382361449197        1.80694370599882
C            3.71366666717664       -1.43145844381705        2.34413731898994
C            2.44230005633353       -1.99069864841402        2.43111363088791
C            1.32946162814629       -1.31629452808139        1.93292554585797
C            1.53411836992092       -0.09830343073976        1.32116540848769
N            0.60068690254327        0.75962063049090        0.73649593842930
C           -0.66361526359792        0.37711915473661        0.32336190828464
C           -1.77430075996165        1.18475476519901        0.55419193846848
C           -3.04637250677383        0.76425975762256        0.22305126475220
C           -3.25327370773472       -0.51351741118028       -0.38047543463208
C           -2.15114860024219       -1.30005699377139       -0.64226259359167
C           -0.85683538472596       -0.89182988760847       -0.34101675122012
N            0.23970435528132       -1.65212698924932       -0.72416436179956
C            1.41132560521396       -1.14065217486362       -1.26643408570111
C            1.63143609425670        0.08577316912184       -1.87059450953366
C            2.91020760543476        0.36256581916218       -2.32531118715796
C            3.93353929314536       -0.57630326204987       -2.21506244850634
C            3.69805823019064       -1.83162244881430       -1.68911012017731
C            2.42240241969891       -2.13152776738494       -1.22560980610830
C            1.82240570607938       -3.30195297973285       -0.66370954348535
C            2.30036590678080       -4.57393710853939       -0.36740196421403
C            1.44661072659039       -5.48256930335723        0.22417354397386
C            0.13095113607077       -5.13869947885469        0.53591607905440
C           -0.37066541880149       -3.88224028468802        0.24321922106793
C            0.47281100915066       -2.97068963302950       -0.37177219072791
C           -4.63354138965017       -0.95960737860360       -0.75345043152669
C           -5.69411173766572        0.02120161098019       -0.34395922666471
C           -7.03542831143224       -0.25378323022360       -0.56412481156713
C           -8.02272224750516        0.64310825427482       -0.19892966335931
C           -7.67177572213133        1.84699687523521        0.40024534623625
C           -6.34654732642650        2.14205944417446        0.63017893742106
C           -5.35188937579491        1.23408013102857        0.26079131468317
O           -4.06931485694128        1.60688002979318        0.51991289742607
H            5.48621125104744        6.07338271930390       -0.48734186391486
H            5.27660679490761        5.01799081530829        0.93273384635182
H            5.64712278443254        4.30782160443788       -0.66339567892917
H            1.30650537798768        4.99606129068201       -0.98244073630777
H           -0.28053804969927        3.15543864583311       -0.50317412731539
H            4.54565269198893        2.76933059080014        0.74022002562372
H            4.89826845921162        0.26425221423489        1.77010157367341
H            4.55819712513486       -1.98809484747294        2.72319806311703
H            2.30995173909795       -2.95861202962162        2.88859762727999
H            0.34136799992529       -1.74117598123939        2.02823937139787
H           -1.65739864298710        2.13199256548040        1.05641467315127
H           -2.29151664984799       -2.24364147876204       -1.14987569749629
H            0.83508050893019        0.80502871286886       -1.99028362407663
H            3.11107786774437        1.32241364094147       -2.77648599688365
H            4.92174402851069       -0.32135191605486       -2.56846545091824
H            4.48455692151741       -2.56903730463294       -1.63827873592644
H            3.32358702887767       -4.83572774520041       -0.58954072184944
H            1.80051185887264       -6.47498762671615        0.46193045672657
H           -0.50708392331131       -5.86447591088410        1.01739753609248
H           -1.38544269100580       -3.62233713591981        0.50420930974108
H           -4.84276776921817       -1.93430359349353       -0.29550957497425
H           -4.68823287763797       -1.11468683039532       -1.83904940563494
H           -7.30355350317740       -1.19084364586396       -1.03147435075286
H           -9.06027569497832        0.40810527383482       -0.37907689681722
H           -8.43656591306250        2.55258701017865        0.68688590454513
H           -6.04685985382956        3.06877965457218        1.09379426919534

 projected vibrational frequencies (cm⁻¹)
eigval :       -0.00    -0.00    -0.00     0.00     0.00     0.00
eigval :       15.01    18.02    26.81    36.73    42.38    46.64
eigval :       54.20    74.77    85.28   104.79   108.44   118.71
eigval :      136.54   149.71   155.04   158.25   170.93   184.06
eigval :      190.01   195.27   208.14   223.40   247.18   258.05
eigval :      267.21   272.73   282.50   296.44   322.25   350.80
eigval :      370.32   374.59   385.94   390.45   398.93   403.19
eigval :      408.56   417.07   421.04   436.55   461.17   462.77
eigval :      471.71   486.76   492.23   514.16   518.80   519.78
eigval :      529.51   540.65   545.59   553.98   573.23   576.84
eigval :      580.56   584.57   596.42   613.74   626.86   638.07
eigval :      648.88   650.58   652.33   669.24   679.08   692.54
eigval :      696.47   714.19   726.31   752.95   754.06   762.08
eigval :      770.43   771.00   781.01   799.50   802.25   830.75
eigval :      842.37   846.98   855.34   858.62   861.34   866.41
eigval :      870.29   877.41   886.04   890.95   894.35   897.00
eigval :      900.60   902.27   903.81   907.85   911.75   913.81
eigval :      915.85   924.01   928.27   999.07  1006.73  1012.26
eigval :     1056.22  1065.57  1066.42  1071.13  1072.05  1082.57
eigval :     1103.25  1118.00  1120.59  1135.58  1140.98  1146.21
eigval :     1153.10  1154.45  1158.52  1170.09  1171.62  1174.19
eigval :     1177.09  1179.81  1187.76  1193.01  1203.26  1217.19
eigval :     1224.99  1227.43  1232.70  1236.05  1252.28  1254.65
eigval :     1258.94  1275.59  1287.69  1290.70  1310.54  1320.64
eigval :     1336.99  1339.22  1346.26  1349.94  1354.53  1368.63
eigval :     1372.81  1392.64  1399.13  1403.32  1414.26  1420.11
eigval :     1427.42  1437.13  1440.08  1446.25  1447.52  1456.70
eigval :     1460.53  1467.83  1473.55  1476.72  1481.05  1482.50
eigval :     1496.63  1511.92  1532.94  1539.01  1539.81  1563.34
eigval :     1565.45  1571.16  1573.87  1583.22  2883.95  2921.93
eigval :     2933.91  2948.08  3026.93  3073.77  3076.60  3076.74
eigval :     3077.15  3080.91  3081.08  3081.35  3083.61  3086.96
eigval :     3089.40  3090.09  3091.88  3096.19  3096.65  3097.32
eigval :     3098.51  3100.69  3106.67  3108.66  3112.16  3121.47

   temp. (K)  partition function   enthalpy   heat capacity  entropy
                                   cal/mol     cal/K/mol   cal/K/mol   J/K/mol
 298.15  VIB  0.267E+14            19020.890    124.934    115.067
         ROT  0.440E+08              888.752      2.981     37.957
         INT  0.118E+22            19909.642    127.915    153.023
         TR   0.122E+29             1481.254      4.968     44.739
         TOT                       21390.8961   132.8832   197.7622   827.4369

       T/K    H(0)-H(T)+PV         H(T)/Eh          T*S/Eh         G(T)/Eh
   ------------------------------------------------------------------------
    298.15    0.340886E-01    0.549245E+00    0.939632E-01    0.455281E+00
   ------------------------------------------------------------------------

         :::::::::::::::::::::::::::::::::::::::::::::::::::::
         ::                  THERMODYNAMIC                  ::
         :::::::::::::::::::::::::::::::::::::::::::::::::::::
         :: total free energy        -108.156030561967 Eh   ::
         ::.................................................::
         :: total energy             -108.611312005942 Eh   ::
         :: zero point energy           0.515156072847 Eh   ::
         :: G(RRHO) w/o ZPVE           -0.059874628872 Eh   ::
         :: G(RRHO) contrib.            0.455281443975 Eh   ::
         :::::::::::::::::::::::::::::::::::::::::::::::::::::

           -------------------------------------------------
          | TOTAL ENERGY             -108.611312005942 Eh   |
          | TOTAL ENTHALPY           -108.062067370369 Eh   |
          | TOTAL FREE ENERGY        -108.156030561967 Eh   |
          | GRADIENT NORM               0.000143261819 Eh/α |
           -------------------------------------------------

 * finished run on 2025/09/11 at 03:38:10.838
