   * xtb version 6.7.1 (edcfbbe) compiled by 'albert@albert-system' on 2024-07-22

   ID    Z sym.   atoms
    1    6 C      1, 3-14, 16-21, 23-41
    2    8 O      2, 42
    3    7 N      15, 22
    4    1 H      43-68

          program call               : xtb data2507/gas/C-O/C-O_gas_S0_finalOpt.xtbopt.xyz --gfn 2 --spinpol --tblite --uhf 2 --ohess vtight --parallel 40 --molden --ceasefiles --namespace data2507/gas/C-O/C-O_gas_T1_preOpt
 * total energy  :  -108.6071595 Eh     change       -0.1279982E-07 Eh
 * total energy  :  -108.6095843 Eh     change       -0.2424758E-02 Eh
 * total energy  :  -108.6105719 Eh     change       -0.9876362E-03 Eh
 * total energy  :  -108.6107387 Eh     change       -0.1668147E-03 Eh
 * total energy  :  -108.6108915 Eh     change       -0.1527650E-03 Eh
 * total energy  :  -108.6109529 Eh     change       -0.6143164E-04 Eh
 * total energy  :  -108.6110142 Eh     change       -0.6130434E-04 Eh
 * total energy  :  -108.6110616 Eh     change       -0.4734404E-04 Eh
 * total energy  :  -108.6110973 Eh     change       -0.3571149E-04 Eh
 * total energy  :  -108.6111306 Eh     change       -0.3332224E-04 Eh
 * total energy  :  -108.6113096 Eh     change       -0.7544524E-06 Eh
 * total energy  :  -108.6113102 Eh     change       -0.5951127E-06 Eh
 * total energy  :  -108.6113107 Eh     change       -0.5505119E-06 Eh
 * total energy  :  -108.6113120 Eh     change       -0.1290853E-05 Eh
 * total energy  :  -108.6113124 Eh     change       -0.3608922E-06 Eh
 * total energy  :  -108.6113126 Eh     change       -0.2569904E-06 Eh
 * total energy  :  -108.6113128 Eh     change       -0.1954906E-06 Eh
 * total energy  :  -108.6113130 Eh     change       -0.1865100E-06 Eh
 * total energy  :  -108.6113130 Eh     change       -0.5404999E-08 Eh
   *** GEOMETRY OPTIMIZATION CONVERGED AFTER 44 ITERATIONS ***

 final structure:
================
68
 xtb: 6.7.1 (edcfbbe)
C            5.19864038785302        5.03959650266490       -0.12970763878020
O            3.83361254034134        5.04551274303425       -0.46783858439565
C            3.07479719053492        3.96616597744014       -0.14747727995886
C            1.71597470048733        4.07516067612606       -0.52478408320353
C            0.81476267267516        3.06382718541719       -0.25659109415332
C            1.27374006263438        1.92579402890850        0.38987449939568
C            2.65311224845522        1.78942230684557        0.74654410750122
C            3.54958641849082        2.82705936735904        0.48341972838574
C            2.80676394133699        0.49877262977170        1.31945204811883
C            3.89006603542339       -0.21264229214190        1.83821962028961
C            3.66325274519476       -1.46240356118444        2.38271376511043
C            2.38181659735028       -2.00032713407637        2.45649202578749
C            1.28722259849740       -1.31238904504152        1.93726436985598
C            1.52024512450064       -0.10341592294743        1.31765322155575
N            0.60952260811355        0.76394013068327        0.71186701194050
C           -0.65581239215890        0.39977278733417        0.28569061025039
C           -1.75459227030753        1.22848398684627        0.49912346653573
C           -3.03046330223105        0.82795877620309        0.15869398109584
C           -3.25294995751527       -0.44804636163567       -0.44349463598084
C           -2.16257997962692       -1.25631274354656       -0.68649455105963
C           -0.86456919363186       -0.87153157701478       -0.36972357026509
N            0.22028263040014       -1.66044978246834       -0.72672210340548
C            1.41426281467552       -1.18356360409815       -1.25141536460995
C            1.67658605275722        0.03077186163304       -1.86325829026427
C            2.97051859621682        0.27152287293457       -2.29468827927248
C            3.96808066661414       -0.69099924710654       -2.15482890303496
C            3.69106368950556       -1.93493208239030       -1.62224674307900
C            2.39946407808646       -2.19879198204291       -1.18172928187115
C            1.75990282507017       -3.34858930389228       -0.62090323105131
C            2.20023580982603       -4.62927008960047       -0.30431291200523
C            1.31314260232290       -5.51084630678100        0.27914361577983
C            0.00120497058088       -5.13118762898182        0.56350958269236
C           -0.46312686142394       -3.86531127056953        0.25031917964117
C            0.41386531744930       -2.98118577148581       -0.35770137157623
C           -4.63549900431170       -0.86428080218776       -0.84146976029801
C           -5.68755851931098        0.10863093542025       -0.39303601883605
C           -7.03354426876274       -0.16535102767697       -0.58343086915354
C           -8.01202623843732        0.72887254602037       -0.18896454900693
C           -7.64713685978371        1.92938401991418        0.40855207175371
C           -6.31690138462028        2.22296261359614        0.61000027661047
C           -5.33129391864442        1.31694919441122        0.21280215830618
O           -4.04290250594618        1.68579848191650        0.44810484021136
H            5.59303289141357        5.99525337469323       -0.47175273700125
H            5.34321604291752        4.95351134601014        0.95189703781304
H            5.73213858054250        4.22638456994005       -0.63217619116933
H            1.40721697432343        4.97436684361045       -1.03081305852964
H           -0.21510419826109        3.16169780963797       -0.56204035429762
H            4.58460963368674        2.71279319709897        0.75997082365380
H            4.88300770941901        0.20930667002598        1.81202689933869
H            4.49330372423684       -2.02932452834351        2.77814883279645
H            2.22733564472788       -2.96190677623944        2.92035095681994
H            0.29116510646389       -1.72049225598466        2.02236961528622
H           -1.62597583414390        2.17613536606268        0.99772855845038
H           -2.31392686004607       -2.19974829825402       -1.19119880939182
H            0.90099636790934        0.76835477626400       -2.00560666666244
H            3.20400427207820        1.22146253550283       -2.75109842029834
H            4.96919458094069       -0.46383864156479       -2.49038269529942
H            4.45783819836921       -2.69099100771146       -1.54879878372016
H            3.22053389232600       -4.91851741807383       -0.50477950801589
H            1.63748379324380       -6.50956961908820        0.53214966088583
H           -0.66368019082719       -5.83604110008376        1.03971138816366
H           -1.47546676377383       -3.57768724526330        0.49079735303567
H           -4.85623248912060       -1.85758615243767       -0.43280975673986
H           -4.68622897831737       -0.96530071810289       -1.93406070777413
H           -7.31253160928580       -1.09918742617360       -1.05085990531774
H           -9.05354485790280        0.49441327223945       -0.34537251349284
H           -8.40502084085222        2.63309067755315        0.71731049706703
H           -6.00655937821188        3.14648970002166        1.07297043448901

 projected vibrational frequencies (cm⁻¹)
eigval :       -0.00    -0.00    -0.00    -0.00     0.00     0.00
eigval :       15.70    18.01    26.76    36.73    42.63    46.51
eigval :       54.75    74.72    85.14   104.83   108.24   118.54
eigval :      136.55   149.82   154.29   158.68   171.49   184.87
eigval :      190.27   195.89   208.35   223.44   247.37   257.98
eigval :      266.69   273.02   282.63   296.73   322.23   350.87
eigval :      370.70   374.68   386.03   390.27   398.91   403.62
eigval :      408.22   417.16   421.18   436.77   461.41   463.12
eigval :      471.95   486.92   492.40   514.15   518.62   520.15
eigval :      529.48   540.67   545.74   554.44   573.02   576.96
eigval :      580.91   584.81   596.39   613.58   626.97   638.65
eigval :      648.76   650.86   652.62   669.60   679.10   692.60
eigval :      696.41   714.08   726.46   752.95   754.21   762.11
eigval :      770.44   771.01   781.20   799.79   802.72   830.42
eigval :      842.67   847.23   855.17   858.55   861.24   866.44
eigval :      870.31   877.63   886.05   890.97   894.86   897.25
eigval :      900.71   902.32   904.10   907.96   911.82   913.82
eigval :      915.90   924.09   928.53  1000.61  1006.67  1012.27
eigval :     1056.33  1065.51  1066.70  1071.12  1072.17  1082.50
eigval :     1103.48  1118.02  1120.50  1135.60  1140.97  1146.36
eigval :     1151.33  1154.53  1158.92  1170.27  1171.84  1174.20
eigval :     1177.09  1179.85  1188.27  1193.19  1202.97  1217.23
eigval :     1224.93  1227.38  1232.49  1236.32  1252.40  1254.61
eigval :     1258.97  1275.57  1287.60  1290.70  1310.49  1321.06
eigval :     1336.82  1338.79  1346.00  1349.91  1354.25  1368.78
eigval :     1372.85  1392.62  1399.29  1403.51  1414.12  1420.34
eigval :     1427.75  1437.48  1440.15  1446.41  1447.81  1456.88
eigval :     1460.74  1467.98  1473.53  1476.80  1481.25  1482.53
eigval :     1496.78  1512.53  1533.10  1539.11  1539.99  1563.43
eigval :     1565.51  1571.23  1573.72  1583.30  2881.67  2925.45
eigval :     2933.90  2948.15  3026.99  3073.89  3076.70  3076.85
eigval :     3077.26  3081.07  3081.24  3081.51  3083.84  3087.03
eigval :     3089.47  3090.17  3091.99  3096.33  3096.57  3097.54
eigval :     3098.60  3100.81  3106.82  3108.43  3112.13  3121.50

   temp. (K)  partition function   enthalpy   heat capacity  entropy
                                   cal/mol     cal/K/mol   cal/K/mol   J/K/mol
 298.15  VIB  0.252E+14            19014.482    124.925    114.993
         ROT  0.441E+08              888.752      2.981     37.959
         INT  0.111E+22            19903.234    127.906    152.952
         TR   0.122E+29             1481.254      4.968     44.739
         TOT                       21384.4878   132.8745   197.6909   827.1389

       T/K    H(0)-H(T)+PV         H(T)/Eh          T*S/Eh         G(T)/Eh
   ------------------------------------------------------------------------
    298.15    0.340784E-01    0.549279E+00    0.939293E-01    0.455349E+00
   ------------------------------------------------------------------------

         :::::::::::::::::::::::::::::::::::::::::::::::::::::
         ::                  THERMODYNAMIC                  ::
         :::::::::::::::::::::::::::::::::::::::::::::::::::::
         :: total free energy        -108.155963653502 Eh   ::
         ::.................................................::
         :: total energy             -108.611313017173 Eh   ::
         :: zero point energy           0.515200357983 Eh   ::
         :: G(RRHO) w/o ZPVE           -0.059850994312 Eh   ::
         :: G(RRHO) contrib.            0.455349363672 Eh   ::
         :::::::::::::::::::::::::::::::::::::::::::::::::::::

           -------------------------------------------------
          | TOTAL ENERGY             -108.611313017173 Eh   |
          | TOTAL ENTHALPY           -108.062034308640 Eh   |
          | TOTAL FREE ENERGY        -108.155963653502 Eh   |
          | GRADIENT NORM               0.000044966209 Eh/α |
           -------------------------------------------------

 * finished run on 2025/09/11 at 03:34:07.875
