   * xtb version 6.7.1 (edcfbbe) compiled by 'albert@albert-system' on 2024-07-22

   ID    Z sym.   atoms
    1    6 C      1-6, 8-13, 15-19, 22-26, 28-33, 35-47, 49-54, 56-63, 65, 66
    2    8 O      7, 34, 55
    3    7 N      14, 20, 21, 27, 48, 64
    4    1 H      67-102

          program call               : xtb data2507/gas/TPXZ–as-TAZ/TPXZ–as-TAZ_gas_S0_crest.xyz --gfn 2 --ohess vtight --parallel 40 --molden --ceasefiles --namespace data2507/gas/TPXZ–as-TAZ/TPXZ–as-TAZ_gas_S0_finalOpt
          :  Hamiltonian                  GFN2-xTB          :
 * total energy  :  -170.2176784 Eh     change       -0.4229520E-08 Eh
 * total energy  :  -170.2176798 Eh     change       -0.1411778E-05 Eh
 * total energy  :  -170.2176815 Eh     change       -0.1623194E-05 Eh
 * total energy  :  -170.2176834 Eh     change       -0.1939926E-05 Eh
 * total energy  :  -170.2176843 Eh     change       -0.9329011E-06 Eh
 * total energy  :  -170.2176853 Eh     change       -0.9607118E-06 Eh
 * total energy  :  -170.2176861 Eh     change       -0.8396294E-06 Eh
 * total energy  :  -170.2176869 Eh     change       -0.7347606E-06 Eh
 * total energy  :  -170.2176879 Eh     change       -0.1023308E-05 Eh
 * total energy  :  -170.2176892 Eh     change       -0.1316172E-05 Eh
 * total energy  :  -170.2176934 Eh     change       -0.8911394E-06 Eh
 * total energy  :  -170.2176942 Eh     change       -0.8260380E-06 Eh
 * total energy  :  -170.2176949 Eh     change       -0.7144006E-06 Eh
 * total energy  :  -170.2176956 Eh     change       -0.7110470E-06 Eh
 * total energy  :  -170.2176965 Eh     change       -0.8203025E-06 Eh
 * total energy  :  -170.2176974 Eh     change       -0.9640769E-06 Eh
 * total energy  :  -170.2176984 Eh     change       -0.1019559E-05 Eh
 * total energy  :  -170.2176994 Eh     change       -0.9230450E-06 Eh
 * total energy  :  -170.2176994 Eh     change       -0.1105983E-07 Eh
   *** GEOMETRY OPTIMIZATION CONVERGED AFTER 22 ITERATIONS ***

 final structure:
================
102
 xtb: 6.7.1 (edcfbbe)
C           10.35886942020847       -2.88307749376163       -2.76303155940980
C            8.99543013501463       -3.04080534857904       -2.61990799497250
C            8.28364239975050       -2.23319367519291       -1.74597094435194
C            8.92719078184789       -1.26080991330681       -0.99062542695887
C           10.30548257835842       -1.08410365742627       -1.17156970600491
C           11.01099531399543       -1.89376729369847       -2.04216659358241
O           11.01459400774774       -0.10485065577051       -0.52214331636834
C           10.32402537646462        0.71252146736053        0.33731672167727
C           11.05213455480570        1.68929921657300        0.99078243170170
C           10.43349064951346        2.53286648958061        1.90143457267283
C            9.08804942154931        2.37725365543637        2.16563873445193
C            8.35272044887270        1.40054191833629        1.51137344052145
C            8.94969964339201        0.56985681875459        0.57126439952979
N            8.23976262690726       -0.42705527740946       -0.10411454024774
C            6.85812492198401       -0.59523278594276        0.11220153988586
C            6.37146345505810       -1.78893693637636        0.64377119202910
C            5.01970863441611       -1.95362112642440        0.85572306883775
C            4.12935742453104       -0.92538694110440        0.54331547043237
C            2.70332020260035       -1.09776500946395        0.77127966886443
N            2.27728477297176       -2.20165866153027        1.39873027836253
N            1.02291135715287       -2.48683575057915        1.33111869687145
C            0.13747316540571       -1.65711092424857        0.80457143335420
C           -1.23124122515955       -2.10992412331166        0.60128297736609
C           -1.80949041095637       -3.01509919070764        1.49062505297350
C           -3.14191204414581       -3.35421240851343        1.37443889761761
C           -3.91613590256231       -2.80242382966451        0.35717224490216
N           -5.29708916758855       -3.07128679175061        0.27142588710102
C           -5.77199532740671       -4.35729990886480        0.00775889227865
C           -4.92133498483565       -5.43962975544023       -0.17511800008113
C           -5.42855490824317       -6.70283160180664       -0.44019889868737
C           -6.79064203139666       -6.90201362001408       -0.53549225996451
C           -7.65205331973711       -5.82511655911606       -0.38315523660876
C           -7.15210223910031       -4.56334121284787       -0.12234299564112
O           -8.06361009937594       -3.54068450580718       -0.01973663935864
C           -7.58309929262403       -2.29200875374898        0.28710029271394
C           -8.51234472269971       -1.28155618275103        0.44998230657940
C           -8.10270737195587       -0.00194894446944        0.79567811616628
C           -6.76171207812110        0.25300753180690        0.99567513710983
C           -5.82471347787109       -0.75504156653001        0.82628884539211
C           -6.21551618679055       -2.03323842965919        0.44753158079643
C           -3.32358290513785       -1.95310725260947       -0.57533742813391
C           -1.99477701286351       -1.61116094429594       -0.45650059882153
C            0.57278478199254       -0.32484668026829        0.53840256895888
C           -0.34933269804934        0.79654618466493        0.40768222128021
C           -1.53437857879953        0.84367095247986        1.14526373160446
C           -2.45660616812186        1.83915981377867        0.91271740413807
C           -2.21603574807044        2.80833357557465       -0.06040627623037
N           -3.20721943715817        3.76678265615374       -0.34543800211138
C           -4.44271467931951        3.35518187396544       -0.85458643208912
C           -4.69576398381002        2.03605287865266       -1.20954471964936
C           -5.93116553051374        1.66112132316531       -1.71520216623160
C           -6.92975285810502        2.59870077986466       -1.88062374508417
C           -6.68130049802819        3.92623516503467       -1.56455256190569
C           -5.44862191127129        4.30671199899197       -1.06725676979053
O           -5.26237120189272        5.64273646094379       -0.81380248399327
C           -4.02322227754597        6.03808200390816       -0.37375231559903
C           -3.83548121650581        7.39125404510311       -0.16322984192668
C           -2.62278679401612        7.86391285136519        0.31669280733222
C           -1.60876810775715        6.97177268471679        0.59943625570468
C           -1.79019885424605        5.61350891520298        0.38667079126417
C           -2.98760736113465        5.12789941835859       -0.12244398959707
C           -1.00756741359580        2.80175916184653       -0.75239575668224
C           -0.08064755274780        1.80817047564958       -0.51357941841659
N            1.87023088717301       -0.11937011362005        0.42449268788189
C            4.61836043647134        0.26817819572540        0.01116349868802
C            5.96973511887853        0.43180645221769       -0.20346228433602
H           10.91815366594740       -3.51214101690172       -3.43729858934486
H            8.46941687543923       -3.79146179034085       -3.18944426792656
H            7.21568531107295       -2.35626011328731       -1.65762409226891
H           12.07156413284362       -1.72905845253313       -2.14565399881572
H           12.10590474494997        1.76868696679661        0.77650099559816
H           11.00899553819309        3.29390206584353        2.40422862150804
H            8.59605620909850        3.01123796022099        2.88715126645635
H            7.30633396480075        1.27828134646349        1.74270765363896
H            7.06493135265134       -2.57829672585618        0.89365997181909
H            4.63114427352494       -2.86909356818520        1.27310880101702
H           -1.20515312980340       -3.41679495519200        2.28908362307686
H           -3.59838445016456       -4.02735167962644        2.08478719298053
H           -3.85398477146461       -5.29314232755588       -0.12039142916124
H           -4.74514161389605       -7.52706969045911       -0.57458631817925
H           -7.19035715462488       -7.88307508459321       -0.73766982119794
H           -8.72022446510895       -5.94312204365368       -0.47111134896457
H           -9.55442657944032       -1.51871263865236        0.30685620637873
H           -8.83359588902804        0.78158593957876        0.91618486549358
H           -6.43251556407513        1.23948840756423        1.28289350132822
H           -4.77920353187464       -0.54651392627663        0.99171562080359
H           -3.92012675340727       -1.55753952098101       -1.38408549671456
H           -1.54039367202192       -0.96015880281070       -1.18903122004068
H           -1.72285563631809        0.10509601969149        1.91019035955951
H           -3.37823723413303        1.87243492702048        1.47457632493665
H           -3.92058485174430        1.29509235773118       -1.09153434081751
H           -6.10548901970504        0.62883705123951       -1.97554086132586
H           -7.89541066126260        2.30932838048849       -2.26314104513651
H           -7.43244824252767        4.68737722666266       -1.70264890933221
H           -4.65527855872368        8.05914946681619       -0.37398008224685
H           -2.48532868676120        8.92159401393067        0.47630180492708
H           -0.66676989620552        7.32199409139117        0.99246996920830
H           -0.99646176261375        4.92482891118128        0.63022539550546
H           -0.81430634206824        3.56280850906445       -1.49373643672859
H            0.84690400977309        1.77791041484792       -1.06437653969411
H            3.92270865703346        1.05673697285158       -0.22961313856675
H            6.35073695953888        1.35152883861644       -0.62261847339103

          :  Hamiltonian                  GFN2-xTB          :
         :: gradient norm              0.000068506413 Eh/a0 ::
         :: HOMO-LUMO gap              1.258900864780 eV    ::
         :: SCC energy              -173.141551752788 Eh    ::
         :: -> dispersion             -0.154307756232 Eh    ::
         :: repulsion energy           2.923852368541 Eh    ::

    * Orbital Energies and Occupations

         #    Occupation            Energy/Eh            Energy/eV
      -------------------------------------------------------------
         1        2.0000           -0.7297615             -19.8578
       ...           ...                  ...                  ...
       144        2.0000           -0.4154962             -11.3062
       145        2.0000           -0.4152775             -11.3003
       146        2.0000           -0.4143890             -11.2761
       147        2.0000           -0.4125920             -11.2272
       148        2.0000           -0.4121096             -11.2141
       149        2.0000           -0.4013625             -10.9216
       150        2.0000           -0.3928470             -10.6899
       151        2.0000           -0.3899511             -10.6111
       152        2.0000           -0.3892544             -10.5922
       153        2.0000           -0.3550803              -9.6622
       154        2.0000           -0.3457859              -9.4093
       155        2.0000           -0.3434569              -9.3459
       156        2.0000           -0.3428701              -9.3300 (HOMO)
       157                         -0.2966063              -8.0711 (LUMO)
       158                         -0.2939460              -7.9987
       159                         -0.2562571              -6.9731
       160                         -0.2486963              -6.7674
       161                         -0.2408611              -6.5542
       162                         -0.2406336              -6.5480
       163                         -0.2392618              -6.5106
       164                         -0.2380612              -6.4780
       165                         -0.2377351              -6.4691
       166                         -0.2375656              -6.4645
       167                         -0.2318602              -6.3092
       ...                                ...                  ...
       300                          0.6755557              18.3828
      -------------------------------------------------------------
                  HL-Gap            0.0462638 Eh            1.2589 eV

     #   Z          covCN         q      C6AA      α(0)
     1   6 C        2.919    -0.040    28.992     8.830
     2   6 C        2.919    -0.039    28.958     8.824
     3   6 C        2.924    -0.060    29.487     8.905
     4   6 C        2.922     0.042    27.053     8.530
     5   6 C        2.884     0.125    25.258     8.239
     6   6 C        2.920    -0.056    29.394     8.891
     7   8 O        1.709    -0.255    18.216     5.762
     8   6 C        2.884     0.125    25.259     8.239
     9   6 C        2.920    -0.056    29.394     8.891
    10   6 C        2.919    -0.040    28.994     8.830
    11   6 C        2.919    -0.039    28.959     8.825
    12   6 C        2.924    -0.060    29.489     8.905
    13   6 C        2.922     0.042    27.052     8.529
    14   7 N        2.751    -0.069    22.568     7.056
    15   6 C        2.921     0.070    26.443     8.433
    16   6 C        2.920    -0.039    28.974     8.827
    17   6 C        2.923    -0.027    28.686     8.783
    18   6 C        2.982    -0.002    28.077     8.692
    19   6 C        2.925     0.166    24.415     8.103
    20   7 N        1.932    -0.168    25.437     7.478
    21   7 N        1.955    -0.112    24.193     7.294
    22   6 C        2.926     0.066    26.531     8.447
    23   6 C        2.978     0.003    27.962     8.674
    24   6 C        2.924    -0.029    28.719     8.788
    25   6 C        2.920    -0.039    28.976     8.827
    26   6 C        2.922     0.067    26.490     8.440
    27   7 N        2.752    -0.071    22.621     7.064
    28   6 C        2.921     0.042    27.048     8.529
    29   6 C        2.923    -0.060    29.499     8.907
    30   6 C        2.919    -0.038    28.955     8.824
    31   6 C        2.919    -0.040    29.001     8.831
    32   6 C        2.920    -0.056    29.393     8.891
    33   6 C        2.883     0.124    25.273     8.242
    34   8 O        1.709    -0.255    18.229     5.765
    35   6 C        2.883     0.125    25.264     8.240
    36   6 C        2.920    -0.056    29.396     8.891
    37   6 C        2.919    -0.040    28.985     8.829
    38   6 C        2.919    -0.036    28.898     8.815
    39   6 C        2.924    -0.059    29.464     8.902
    40   6 C        2.924     0.042    27.057     8.530
    41   6 C        2.921    -0.039    28.979     8.828
    42   6 C        2.923    -0.031    28.784     8.798
    43   6 C        2.964     0.099    25.800     8.331
    44   6 C        2.978     0.001    28.001     8.680
    45   6 C        2.922    -0.030    28.741     8.792
    46   6 C        2.921    -0.039    28.968     8.826
    47   6 C        2.922     0.069    26.462     8.436
    48   7 N        2.752    -0.070    22.605     7.061
    49   6 C        2.924     0.042    27.064     8.531
    50   6 C        2.924    -0.058    29.450     8.899
    51   6 C        2.919    -0.036    28.887     8.814
    52   6 C        2.919    -0.039    28.969     8.826
    53   6 C        2.920    -0.056    29.387     8.890
    54   6 C        2.884     0.125    25.260     8.240
    55   8 O        1.709    -0.254    18.214     5.762
    56   6 C        2.884     0.125    25.264     8.240
    57   6 C        2.920    -0.056    29.388     8.890
    58   6 C        2.919    -0.040    28.992     8.830
    59   6 C        2.919    -0.038    28.957     8.824
    60   6 C        2.923    -0.060    29.498     8.907
    61   6 C        2.921     0.042    27.052     8.529
    62   6 C        2.920    -0.040    28.999     8.831
    63   6 C        2.924    -0.026    28.653     8.778
    64   7 N        1.852    -0.242    27.179     7.727
    65   6 C        2.923    -0.027    28.670     8.781
    66   6 C        2.920    -0.040    29.006     8.832
    67   1 H        0.926     0.038     2.470     2.458
    68   1 H        0.926     0.036     2.498     2.471
    69   1 H        0.926     0.035     2.512     2.478
    70   1 H        0.926     0.051     2.311     2.377
    71   1 H        0.926     0.051     2.312     2.378
    72   1 H        0.926     0.038     2.471     2.458
    73   1 H        0.926     0.036     2.499     2.472
    74   1 H        0.926     0.036     2.505     2.475
    75   1 H        0.926     0.047     2.359     2.402
    76   1 H        0.926     0.064     2.152     2.294
    77   1 H        0.926     0.058     2.227     2.333
    78   1 H        0.926     0.047     2.353     2.399
    79   1 H        0.926     0.035     2.510     2.477
    80   1 H        0.926     0.037     2.495     2.470
    81   1 H        0.926     0.038     2.472     2.459
    82   1 H        0.926     0.050     2.315     2.379
    83   1 H        0.926     0.051     2.307     2.375
    84   1 H        0.926     0.038     2.469     2.457
    85   1 H        0.926     0.031     2.566     2.505
    86   1 H        0.926     0.030     2.585     2.514
    87   1 H        0.926     0.042     2.418     2.432
    88   1 H        0.926     0.033     2.550     2.497
    89   1 H        0.926     0.036     2.505     2.475
    90   1 H        0.926     0.044     2.396     2.420
    91   1 H        0.926     0.031     2.572     2.508
    92   1 H        0.926     0.033     2.546     2.495
    93   1 H        0.926     0.039     2.456     2.451
    94   1 H        0.926     0.052     2.299     2.371
    95   1 H        0.926     0.051     2.307     2.375
    96   1 H        0.926     0.039     2.465     2.455
    97   1 H        0.926     0.037     2.495     2.470
    98   1 H        0.926     0.035     2.515     2.480
    99   1 H        0.926     0.047     2.356     2.400
   100   1 H        0.926     0.053     2.283     2.363
   101   1 H        0.926     0.057     2.231     2.336
   102   1 H        0.926     0.045     2.379     2.412

molecular dipole:
                 x           y           z       tot (Debye)
 q only:        0.124       0.200      -0.131
   full:       -0.068       0.373      -0.256       1.163

 projected vibrational frequencies (cm⁻¹)
eigval :       -0.00    -0.00    -0.00     0.00     0.00     0.00
eigval :        6.36     7.87     8.39    12.46    14.11    23.69
eigval :       24.70    26.47    35.60    37.13    40.52    48.67
eigval :       50.54    57.88    65.06    73.42    74.22    80.28
eigval :       89.47    97.30   108.28   114.73   119.07   123.53
eigval :      126.26   128.45   160.08   177.58   186.70   195.09
eigval :      198.59   203.04   232.71   241.51   247.69   251.58
eigval :      254.29   254.36   264.30   271.34   274.76   280.55
eigval :      286.62   320.50   338.73   349.13   356.25   368.89
eigval :      371.33   375.21   379.48   381.26   388.32   392.71
eigval :      399.46   403.97   406.03   417.74   420.25   425.80
eigval :      429.05   430.45   430.80   431.94   443.04   446.16
eigval :      448.64   456.04   473.65   483.56   498.32   505.68
eigval :      510.05   510.69   511.17   522.52   522.74   523.25
eigval :      536.91   544.45   553.60   568.10   578.68   582.36
eigval :      587.27   588.39   593.64   601.33   606.71   609.28
eigval :      613.33   629.93   640.25   646.09   659.28   660.25
eigval :      660.42   661.24   661.47   661.75   667.83   675.88
eigval :      687.83   691.85   697.09   705.26   726.59   735.95
eigval :      757.14   777.77   778.26   779.07   779.20   779.23
eigval :      779.37   797.43   803.26   804.42   819.64   821.24
eigval :      827.42   854.52   855.21   855.67   859.70   861.78
eigval :      864.00   864.01   864.91   866.68   866.74   873.92
eigval :      874.38   878.07   896.25   897.10   897.46   897.84
eigval :      898.22   898.45   913.21   913.66   914.07   914.27
eigval :      914.57   914.98   915.09   915.78   917.03   917.63
eigval :      917.72   923.62   925.39   928.58   930.79   931.81
eigval :      932.09   934.88   999.61  1006.53  1016.67  1047.72
eigval :     1086.38  1090.03  1090.40  1090.56  1091.46  1091.61
eigval :     1092.01  1108.16  1108.46  1108.54  1120.61  1120.77
eigval :     1121.59  1124.24  1130.75  1131.57  1145.46  1171.02
eigval :     1171.19  1171.79  1175.68  1175.98  1176.09  1176.97
eigval :     1182.71  1183.54  1187.61  1190.40  1192.23  1201.24
eigval :     1201.70  1202.06  1204.23  1221.86  1223.92  1226.56
eigval :     1242.91  1243.15  1243.36  1249.51  1259.16  1261.86
eigval :     1262.25  1262.51  1263.49  1263.87  1303.81  1308.59
eigval :     1309.87  1310.98  1311.11  1311.47  1316.77  1317.66
eigval :     1320.98  1337.77  1339.53  1340.68  1341.36  1353.19
eigval :     1354.83  1358.30  1372.50  1390.44  1395.89  1405.91
eigval :     1409.09  1421.08  1424.69  1425.04  1428.69  1443.13
eigval :     1443.39  1443.72  1474.31  1480.75  1485.12  1486.88
eigval :     1487.99  1489.28  1490.62  1505.29  1506.02  1506.61
eigval :     1552.57  1553.70  1558.54  1567.57  1567.79  1567.92
eigval :     1580.59  1581.02  1581.08  1584.40  1585.37  1587.91
eigval :     1590.95  1591.21  1591.99  1603.19  1603.39  1603.74
eigval :     3079.48  3083.44  3086.18  3088.52  3088.64  3089.21
eigval :     3089.33  3089.46  3089.70  3089.76  3089.94  3091.23
eigval :     3092.86  3095.01  3098.70  3099.07  3099.22  3099.36
eigval :     3099.42  3100.55  3101.63  3105.16  3105.52  3106.04
eigval :     3106.09  3106.25  3106.45  3106.87  3107.10  3110.76
eigval :     3112.95  3113.13  3113.52  3113.59  3113.93  3114.48

   temp. (K)  partition function   enthalpy   heat capacity  entropy
                                   cal/mol     cal/K/mol   cal/K/mol   J/K/mol
 298.15  VIB  0.171E+26            30501.265    191.255    191.537
         ROT  0.297E+09              888.752      2.981     41.752
         INT  0.509E+34            31390.017    194.236    233.289
         TR   0.241E+29             1481.254      4.968     46.086
         TOT                       32871.2713   199.2039   279.3751  1168.9053

       T/K    H(0)-H(T)+PV         H(T)/Eh          T*S/Eh         G(T)/Eh
   ------------------------------------------------------------------------
    298.15    0.523837E-01    0.814398E+00    0.132740E+00    0.681657E+00
   ------------------------------------------------------------------------

         :::::::::::::::::::::::::::::::::::::::::::::::::::::
         ::                  THERMODYNAMIC                  ::
         :::::::::::::::::::::::::::::::::::::::::::::::::::::
         :: total free energy        -169.536041933234 Eh   ::
         ::.................................................::
         :: total energy             -170.217699384246 Eh   ::
         :: zero point energy           0.762013858727 Eh   ::
         :: G(RRHO) w/o ZPVE           -0.080356407716 Eh   ::
         :: G(RRHO) contrib.            0.681657451011 Eh   ::
         :::::::::::::::::::::::::::::::::::::::::::::::::::::

           -------------------------------------------------
          | TOTAL ENERGY             -170.217699384246 Eh   |
          | TOTAL ENTHALPY           -169.403301820377 Eh   |
          | TOTAL FREE ENERGY        -169.536041933234 Eh   |
          | GRADIENT NORM               0.000068482739 Eh/α |
          | HOMO-LUMO GAP               1.258901904268 eV   |
           -------------------------------------------------

 * finished run on 2025/09/04 at 18:03:40.181
