   * xtb version 6.7.1 (edcfbbe) compiled by 'albert@albert-system' on 2024-07-22

   ID    Z sym.   atoms
    1    6 C      1-6, 8-13, 15-19, 22-26, 28-33, 35-47, 49-54, 56-63, 65, 66
    2    8 O      7, 34, 55
    3    7 N      14, 20, 21, 27, 48, 64
    4    1 H      67-102

          program call               : xtb data2507/gas/TPXZ–as-TAZ/TPXZ–as-TAZ.xyz --gfn 2 --ohess vtight --parallel 40 --molden --ceasefiles --namespace data2507/gas/TPXZ–as-TAZ/TPXZ–as-TAZ_gas_S0_preOpt
          :  Hamiltonian                  GFN2-xTB          :
 * total energy  :  -170.1770161 Eh     change       -0.4616595E-08 Eh
 * total energy  :  -170.1959488 Eh     change       -0.1893267E-01 Eh
 * total energy  :  -170.2027179 Eh     change       -0.6769056E-02 Eh
 * total energy  :  -170.2056401 Eh     change       -0.2922291E-02 Eh
 * total energy  :  -170.2085997 Eh     change       -0.2959531E-02 Eh
 * total energy  :  -170.2108616 Eh     change       -0.2261908E-02 Eh
 * total energy  :  -170.2125499 Eh     change       -0.1688274E-02 Eh
 * total energy  :  -170.2137127 Eh     change       -0.1162872E-02 Eh
 * total energy  :  -170.2143519 Eh     change       -0.6391233E-03 Eh
 * total energy  :  -170.2147449 Eh     change       -0.3930151E-03 Eh
 * total energy  :  -170.2176380 Eh     change       -0.2513422E-05 Eh
 * total energy  :  -170.2176406 Eh     change       -0.2544395E-05 Eh
 * total energy  :  -170.2176430 Eh     change       -0.2412738E-05 Eh
 * total energy  :  -170.2176451 Eh     change       -0.2161015E-05 Eh
 * total energy  :  -170.2176471 Eh     change       -0.1926618E-05 Eh
 * total energy  :  -170.2176488 Eh     change       -0.1778143E-05 Eh
 * total energy  :  -170.2176505 Eh     change       -0.1696827E-05 Eh
 * total energy  :  -170.2176523 Eh     change       -0.1724057E-05 Eh
 * total energy  :  -170.2176523 Eh     change       -0.7373046E-08 Eh
   *** GEOMETRY OPTIMIZATION CONVERGED AFTER 122 ITERATIONS ***

 final structure:
================
102
 xtb: 6.7.1 (edcfbbe)
C           10.18401533974077       -3.13806982305132       -3.05275332492328
C            8.81694165489618       -3.24630770859164       -2.89913176496722
C            8.15834641881999       -2.50122715847764       -1.93273781178926
C            8.85966795335218       -1.64290675675215       -1.09523247905760
C           10.24254342145226       -1.51485303398065       -1.28252821257809
C           10.89454483481935       -2.26157522636198       -2.24601066900676
O           11.00865692907438       -0.64493264972309       -0.54745782953041
C           10.37196904926264        0.10826949872181        0.40715400600261
C           11.15669780622804        0.97148004778599        1.14886065231620
C           10.59242833015798        1.74215016380376        2.15463492702916
C            9.24366410082191        1.62739314520860        2.42279332848271
C            8.45161081935730        0.76468635318449        1.68038467318277
C            8.99504167416275        0.01017112786169        0.64819211293053
N            8.22704372511881       -0.87255287280635       -0.11595225951518
C            6.83842613910343       -0.98160485666383        0.09671720625310
C            6.28633098947085       -2.18841137776209        0.52376539730838
C            4.92806228716933       -2.29353607390920        0.73321856610990
C            4.09740585354860       -1.19284364456830        0.51957432226685
C            2.66435110424670       -1.30335316238404        0.74294655284361
N            2.18377255804753       -2.41026283233305        1.32327112989824
N            0.91584455215294       -2.62712511854990        1.25112554253936
C            0.07307428650303       -1.73120313671462        0.76403977477052
C           -1.31725448759763       -2.10677157880299        0.54997448342003
C           -1.93607522682117       -3.01773311917420        1.40549661756298
C           -3.28202668293270       -3.29261999692440        1.27776037638167
C           -4.03012501253267       -2.67022188995394        0.28173753703271
N           -5.42006862939335       -2.88090573208452        0.18362252080806
C           -5.94305348913302       -4.14027167239713       -0.11649425689938
C           -5.13347498073060       -5.24679029551835       -0.33757384331647
C           -5.68768847799802       -6.48210941959934       -0.63751921049225
C           -7.05658915486565       -6.62881386687741       -0.73045870450926
C           -7.87722954143986       -5.52628901060375       -0.54127776847734
C           -7.33023338866038       -4.29196433793475       -0.24562018529959
O           -8.20322383096633       -3.24037697872097       -0.10806564785676
C           -7.67585483997333       -2.01908185450357        0.23012037891766
C           -8.56718311375986       -0.98037081368432        0.42432702245573
C           -8.11017123651121        0.27356575393802        0.80305329776941
C           -6.76009134814945        0.47393405136922        1.00437365570596
C           -5.86096906322952       -0.56244232268183        0.80329364110447
C           -6.29911382088800       -1.81494285003580        0.39169598232623
C           -3.40015263453491       -1.81122235525511       -0.61680067274458
C           -2.05765490469026       -1.53281376094571       -0.48575420053620
C            0.57583934993555       -0.41417883519844        0.54709138647652
C           -0.28473373278676        0.75897565276227        0.45739892956903
C           -1.46596986060477        0.84664243653218        1.19710400956830
C           -2.32678242157095        1.90422909052329        1.00603060137829
C           -2.02790858463442        2.89563511459652        0.07213123254326
N           -2.95586053268624        3.92629474405734       -0.16906936400308
C           -4.21815021635075        3.61738813355894       -0.68540945699405
C           -4.56343356499436        2.33086612566228       -1.08029692830313
C           -5.82285125097592        2.05885772419306       -1.59258896813703
C           -6.75413232735696        3.06834968747579       -1.72442311212916
C           -6.41314701309178        4.36474170860129       -1.36804028733439
C           -5.15598040948768        4.64265565662104       -0.86411543835438
O           -4.87710107448991        5.95395460400477       -0.57018969379763
C           -3.61222239272355        6.24886039950516       -0.12496641331332
C           -3.33048192706970        7.57890960412926        0.12477367202365
C           -2.08664009615824        7.95191578651830        0.61253789053416
C           -1.13650895199372        6.98341080868093        0.86427441681461
C           -1.41245304520308        5.64800056478463        0.61226094878678
C           -2.64168921131930        5.26182428809224        0.09374480539365
C           -0.82302783165346        2.84217127914453       -0.62436796643073
C            0.04297014010821        1.78693704100009       -0.42602854210563
N            1.88218728336212       -0.27020448462493        0.43897775498198
C            4.65196450745797        0.01366224446999        0.09104218925538
C            6.01006197588405        0.11885608755031       -0.11784259936988
H           10.70172117492432       -3.71843658705260       -3.79997065251325
H            8.24672240474754       -3.90863871498175       -3.53217928802062
H            7.08715625468866       -2.58282865346521       -1.83562633467508
H           11.96030342150491       -2.13740361615542       -2.35278974272497
H           12.21065284587395        1.02110590237380        0.92666488986922
H           11.21213483597194        2.41472725253019        2.72630278669917
H            8.79313877300412        2.20450851797365        3.21560434437750
H            7.40248173132156        0.67151588369815        1.91314294170243
H            6.93417767874895       -3.03535033326630        0.69524973640068
H            4.48898613225884       -3.21870946983222        1.07179998787511
H           -1.35065426669160       -3.47660126678555        2.18704295823563
H           -3.76836783944620       -3.97160582174713        1.96225622399980
H           -4.06121194202889       -5.14118753902699       -0.28520569315264
H           -5.03539576271921       -7.32612898922057       -0.80067221941635
H           -7.49279461748507       -7.58825566958108       -0.95918017556754
H           -8.94938984100757       -5.60254289610492       -0.62669434954849
H           -9.61764464081243       -1.17572002266212        0.27931309161710
H           -8.81168954628489        1.07947439786736        0.94817786681146
H           -6.39381916933557        1.43943380989007        1.31682291366484
H           -4.80821796355415       -0.39606490152606        0.97061193228266
H           -3.97755488848109       -1.35928131950707       -1.40976447146376
H           -1.57451571952687       -0.87462758979989       -1.19301064651911
H           -1.69890814678842        0.09084527332979        1.93239224119570
H           -3.24442820684778        1.97064033062009        1.57149511184468
H           -3.84173396472520        1.53414023129677       -0.98949401789565
H           -6.06885150340479        1.04976857981159       -1.88407834209903
H           -7.73826173527890        2.85910406448746       -2.11208812804641
H           -7.10956502371384        5.18036553647131       -1.47933063698235
H           -4.10260191104596        8.30791565810345       -0.06214866326582
H           -1.87550389788509        8.99229574070058        0.80248980571130
H           -0.17144314053144        7.25540220487480        1.26321988645630
H           -0.66777332791442        4.89928882971169        0.83234844064120
H           -0.58503444869908        3.61788764097323       -1.33693638570334
H            0.96711654477140        1.72262261529013       -0.97963576886948
H            4.00178772963936        0.85870592800100       -0.07299127955768
H            6.44282420236368        1.04973567643558       -0.45393029440394

          :  Hamiltonian                  GFN2-xTB          :
         :: gradient norm              0.000061853573 Eh/a0 ::
         :: HOMO-LUMO gap              1.249889773391 eV    ::
         :: SCC energy              -173.141445721315 Eh    ::
         :: -> dispersion             -0.153832950571 Eh    ::
         :: repulsion energy           2.923793452153 Eh    ::

    * Orbital Energies and Occupations

         #    Occupation            Energy/Eh            Energy/eV
      -------------------------------------------------------------
         1        2.0000           -0.7299764             -19.8637
       ...           ...                  ...                  ...
       144        2.0000           -0.4154950             -11.3062
       145        2.0000           -0.4152413             -11.2993
       146        2.0000           -0.4146334             -11.2827
       147        2.0000           -0.4127493             -11.2315
       148        2.0000           -0.4119188             -11.2089
       149        2.0000           -0.4015437             -10.9266
       150        2.0000           -0.3929169             -10.6918
       151        2.0000           -0.3899662             -10.6115
       152        2.0000           -0.3892803             -10.5929
       153        2.0000           -0.3550139              -9.6604
       154        2.0000           -0.3459798              -9.4146
       155        2.0000           -0.3435597              -9.3487
       156        2.0000           -0.3426338              -9.3235 (HOMO)
       157                         -0.2967012              -8.0737 (LUMO)
       158                         -0.2938695              -7.9966
       159                         -0.2561835              -6.9711
       160                         -0.2486268              -6.7655
       161                         -0.2409857              -6.5576
       162                         -0.2406825              -6.5493
       163                         -0.2392856              -6.5113
       164                         -0.2380901              -6.4788
       165                         -0.2379276              -6.4743
       166                         -0.2374228              -6.4606
       167                         -0.2320135              -6.3134
       ...                                ...                  ...
       300                          0.6755940              18.3838
      -------------------------------------------------------------
                  HL-Gap            0.0459326 Eh            1.2499 eV

     #   Z          covCN         q      C6AA      α(0)
     1   6 C        2.919    -0.040    28.995     8.830
     2   6 C        2.919    -0.039    28.958     8.825
     3   6 C        2.924    -0.060    29.491     8.906
     4   6 C        2.922     0.042    27.051     8.529
     5   6 C        2.884     0.125    25.260     8.240
     6   6 C        2.920    -0.056    29.395     8.891
     7   8 O        1.709    -0.255    18.219     5.763
     8   6 C        2.884     0.125    25.260     8.240
     9   6 C        2.920    -0.056    29.396     8.891
    10   6 C        2.919    -0.040    28.996     8.830
    11   6 C        2.919    -0.039    28.959     8.825
    12   6 C        2.924    -0.060    29.489     8.905
    13   6 C        2.922     0.042    27.051     8.529
    14   7 N        2.751    -0.069    22.577     7.057
    15   6 C        2.921     0.070    26.441     8.432
    16   6 C        2.920    -0.039    28.970     8.826
    17   6 C        2.923    -0.027    28.683     8.783
    18   6 C        2.982    -0.002    28.072     8.691
    19   6 C        2.925     0.167    24.411     8.102
    20   7 N        1.932    -0.168    25.436     7.478
    21   7 N        1.955    -0.112    24.202     7.295
    22   6 C        2.925     0.066    26.527     8.446
    23   6 C        2.978     0.002    27.965     8.674
    24   6 C        2.924    -0.029    28.718     8.788
    25   6 C        2.920    -0.039    28.977     8.828
    26   6 C        2.922     0.067    26.491     8.440
    27   7 N        2.752    -0.071    22.616     7.063
    28   6 C        2.921     0.042    27.049     8.529
    29   6 C        2.923    -0.060    29.498     8.907
    30   6 C        2.919    -0.038    28.955     8.824
    31   6 C        2.919    -0.040    28.999     8.831
    32   6 C        2.920    -0.056    29.392     8.890
    33   6 C        2.883     0.124    25.272     8.242
    34   8 O        1.709    -0.255    18.228     5.764
    35   6 C        2.883     0.125    25.263     8.240
    36   6 C        2.920    -0.056    29.396     8.891
    37   6 C        2.919    -0.040    28.986     8.829
    38   6 C        2.919    -0.036    28.902     8.816
    39   6 C        2.924    -0.059    29.467     8.902
    40   6 C        2.924     0.042    27.058     8.530
    41   6 C        2.921    -0.040    28.982     8.828
    42   6 C        2.923    -0.031    28.784     8.798
    43   6 C        2.964     0.099    25.798     8.331
    44   6 C        2.978     0.001    28.003     8.680
    45   6 C        2.922    -0.030    28.741     8.792
    46   6 C        2.921    -0.039    28.971     8.827
    47   6 C        2.922     0.069    26.463     8.436
    48   7 N        2.752    -0.070    22.600     7.061
    49   6 C        2.923     0.042    27.065     8.531
    50   6 C        2.924    -0.058    29.453     8.900
    51   6 C        2.919    -0.036    28.891     8.814
    52   6 C        2.919    -0.039    28.970     8.826
    53   6 C        2.920    -0.056    29.388     8.890
    54   6 C        2.884     0.125    25.260     8.240
    55   8 O        1.709    -0.254    18.213     5.762
    56   6 C        2.884     0.125    25.263     8.240
    57   6 C        2.920    -0.056    29.388     8.890
    58   6 C        2.919    -0.040    28.991     8.829
    59   6 C        2.919    -0.038    28.957     8.824
    60   6 C        2.923    -0.060    29.497     8.906
    61   6 C        2.921     0.042    27.054     8.530
    62   6 C        2.920    -0.040    29.001     8.831
    63   6 C        2.924    -0.026    28.654     8.778
    64   7 N        1.852    -0.243    27.185     7.728
    65   6 C        2.923    -0.027    28.670     8.781
    66   6 C        2.920    -0.040    28.999     8.831
    67   1 H        0.926     0.038     2.472     2.459
    68   1 H        0.926     0.036     2.500     2.473
    69   1 H        0.926     0.035     2.516     2.481
    70   1 H        0.926     0.051     2.313     2.378
    71   1 H        0.926     0.051     2.313     2.378
    72   1 H        0.926     0.038     2.473     2.459
    73   1 H        0.926     0.036     2.500     2.473
    74   1 H        0.926     0.035     2.511     2.478
    75   1 H        0.926     0.047     2.357     2.401
    76   1 H        0.926     0.064     2.157     2.297
    77   1 H        0.926     0.058     2.227     2.333
    78   1 H        0.926     0.047     2.354     2.399
    79   1 H        0.926     0.036     2.508     2.476
    80   1 H        0.926     0.037     2.494     2.469
    81   1 H        0.926     0.038     2.472     2.458
    82   1 H        0.926     0.050     2.314     2.379
    83   1 H        0.926     0.051     2.307     2.375
    84   1 H        0.926     0.038     2.469     2.457
    85   1 H        0.926     0.032     2.558     2.501
    86   1 H        0.926     0.030     2.583     2.513
    87   1 H        0.926     0.042     2.418     2.432
    88   1 H        0.926     0.033     2.550     2.497
    89   1 H        0.926     0.036     2.504     2.475
    90   1 H        0.926     0.044     2.396     2.420
    91   1 H        0.926     0.031     2.569     2.507
    92   1 H        0.926     0.033     2.538     2.491
    93   1 H        0.926     0.039     2.456     2.450
    94   1 H        0.926     0.052     2.299     2.371
    95   1 H        0.926     0.051     2.306     2.375
    96   1 H        0.926     0.039     2.464     2.455
    97   1 H        0.926     0.037     2.494     2.469
    98   1 H        0.926     0.035     2.512     2.478
    99   1 H        0.926     0.047     2.357     2.401
   100   1 H        0.926     0.053     2.281     2.362
   101   1 H        0.926     0.058     2.228     2.334
   102   1 H        0.926     0.045     2.380     2.412

molecular dipole:
                 x           y           z       tot (Debye)
 q only:        0.080       0.209      -0.121
   full:       -0.105       0.397      -0.237       1.205

 projected vibrational frequencies (cm⁻¹)
eigval :       -0.00    -0.00    -0.00    -0.00     0.00     0.00
eigval :        5.67     7.44     8.08    12.29    14.10    23.57
eigval :       24.15    26.34    35.67    37.44    40.43    48.35
eigval :       50.57    57.53    63.80    73.54    73.98    80.36
eigval :       89.60    97.15   108.30   114.98   118.18   123.69
eigval :      125.88   128.90   159.68   177.12   186.67   194.32
eigval :      198.82   203.44   232.48   241.58   247.32   251.56
eigval :      253.71   254.44   264.30   271.40   274.70   280.78
eigval :      286.44   320.79   338.44   349.02   356.15   368.99
eigval :      371.14   374.76   379.34   381.37   388.17   392.86
eigval :      399.65   403.69   406.16   417.70   420.59   425.98
eigval :      429.28   430.34   430.75   431.95   443.12   446.41
eigval :      448.32   455.85   473.26   484.14   497.70   506.06
eigval :      510.08   510.69   511.31   522.53   522.65   523.50
eigval :      536.96   544.40   553.76   567.90   578.69   582.32
eigval :      587.25   588.37   593.66   601.51   606.67   609.23
eigval :      613.41   629.94   640.25   646.06   659.30   660.31
eigval :      660.45   661.31   661.57   661.62   667.81   675.90
eigval :      687.86   691.81   697.05   705.39   726.62   735.90
eigval :      757.88   777.90   778.61   778.95   779.22   779.29
eigval :      779.36   797.42   803.22   804.43   819.87   821.48
eigval :      827.01   854.59   855.30   855.53   859.91   862.07
eigval :      863.92   864.12   865.20   866.28   866.94   874.33
eigval :      874.94   877.70   896.51   897.21   897.32   897.97
eigval :      898.25   898.40   913.25   913.76   914.19   914.25
eigval :      914.73   915.00   915.25   915.80   917.07   917.67
eigval :      917.73   923.87   925.78   927.77   931.11   932.10
eigval :      932.28   934.28   999.77  1006.54  1016.81  1048.13
eigval :     1086.36  1090.12  1090.41  1090.47  1091.33  1091.59
eigval :     1091.99  1108.19  1108.48  1108.50  1120.55  1120.86
eigval :     1121.59  1124.12  1131.01  1131.84  1145.76  1170.94
eigval :     1171.13  1171.77  1175.72  1175.90  1176.07  1176.88
eigval :     1182.95  1183.54  1187.44  1190.50  1192.27  1201.36
eigval :     1201.79  1201.86  1203.72  1221.78  1223.91  1226.44
eigval :     1242.92  1243.14  1243.28  1249.79  1259.08  1261.87
eigval :     1262.20  1262.45  1263.60  1263.91  1303.88  1308.69
eigval :     1309.85  1311.05  1311.17  1311.39  1316.78  1317.58
eigval :     1320.94  1337.94  1339.46  1340.74  1341.09  1353.20
eigval :     1354.82  1358.31  1373.67  1390.53  1395.57  1406.00
eigval :     1409.21  1421.26  1424.63  1424.99  1428.71  1443.17
eigval :     1443.30  1443.68  1473.86  1480.80  1485.13  1486.70
eigval :     1488.32  1488.96  1490.35  1505.35  1505.99  1506.50
eigval :     1552.55  1553.72  1558.87  1567.53  1567.74  1567.90
eigval :     1580.65  1580.94  1581.01  1584.47  1585.46  1587.93
eigval :     1590.90  1591.23  1591.98  1603.31  1603.32  1603.66
eigval :     3079.56  3083.38  3086.10  3088.52  3088.64  3089.05
eigval :     3089.31  3089.37  3089.78  3089.89  3090.11  3091.53
eigval :     3092.88  3094.93  3098.59  3099.02  3099.10  3099.18
eigval :     3099.55  3100.41  3101.60  3105.19  3105.63  3106.07
eigval :     3106.13  3106.22  3106.41  3106.72  3107.04  3110.16
eigval :     3112.86  3113.18  3113.41  3113.64  3113.95  3114.51

   temp. (K)  partition function   enthalpy   heat capacity  entropy
                                   cal/mol     cal/K/mol   cal/K/mol   J/K/mol
 298.15  VIB  0.227E+26            30508.667    191.223    191.824
         ROT  0.299E+09              888.752      2.981     41.764
         INT  0.678E+34            31397.419    194.204    233.588
         TR   0.241E+29             1481.254      4.968     46.086
         TOT                       32878.6730   199.1719   279.6743  1170.1574

       T/K    H(0)-H(T)+PV         H(T)/Eh          T*S/Eh         G(T)/Eh
   ------------------------------------------------------------------------
    298.15    0.523955E-01    0.814403E+00    0.132882E+00    0.681521E+00
   ------------------------------------------------------------------------

         :::::::::::::::::::::::::::::::::::::::::::::::::::::
         ::                  THERMODYNAMIC                  ::
         :::::::::::::::::::::::::::::::::::::::::::::::::::::
         :: total free energy        -169.536131338228 Eh   ::
         ::.................................................::
         :: total energy             -170.217652269160 Eh   ::
         :: zero point energy           0.762007731708 Eh   ::
         :: G(RRHO) w/o ZPVE           -0.080486800776 Eh   ::
         :: G(RRHO) contrib.            0.681520930932 Eh   ::
         :::::::::::::::::::::::::::::::::::::::::::::::::::::

           -------------------------------------------------
          | TOTAL ENERGY             -170.217652269160 Eh   |
          | TOTAL ENTHALPY           -169.403249036970 Eh   |
          | TOTAL FREE ENERGY        -169.536131338228 Eh   |
          | GRADIENT NORM               0.000061861250 Eh/α |
          | HOMO-LUMO GAP               1.249890163759 eV   |
           -------------------------------------------------

 * finished run on 2025/09/04 at 17:58:29.560
