   * xtb version 6.7.1 (edcfbbe) compiled by 'albert@albert-system' on 2024-07-22

   ID    Z sym.   atoms
    1    6 C      1-6, 8-13, 15-19, 22-26, 28-33, 35-47, 49-54, 56-63, 65, 66
    2    8 O      7, 34, 55
    3    7 N      14, 20, 21, 27, 48, 64
    4    1 H      67-102

          program call               : xtb data2507/gas/TPXZ–as-TAZ/TPXZ–as-TAZ_gas_T1_crest.xyz --gfn 2 --spinpol --tblite --uhf 2 --ohess vtight --parallel 40 --molden --ceasefiles --namespace data2507/gas/TPXZ–as-TAZ/TPXZ–as-TAZ_gas_T1_finalOpt
 * total energy  :  -170.1687456 Eh     change        0.6437148E-08 Eh
 * total energy  :  -170.1688821 Eh     change       -0.1365403E-03 Eh
 * total energy  :  -170.1690900 Eh     change       -0.2078240E-03 Eh
 * total energy  :  -170.1691523 Eh     change       -0.6232339E-04 Eh
 * total energy  :  -170.1692989 Eh     change       -0.1466289E-03 Eh
 * total energy  :  -170.1693488 Eh     change       -0.4987772E-04 Eh
 * total energy  :  -170.1695108 Eh     change       -0.1620417E-03 Eh
 * total energy  :  -170.1696112 Eh     change       -0.1003526E-03 Eh
 * total energy  :  -170.1696957 Eh     change       -0.8450357E-04 Eh
 * total energy  :  -170.1697553 Eh     change       -0.5957198E-04 Eh
 * total energy  :  -170.1700579 Eh     change       -0.2199288E-06 Eh
 * total energy  :  -170.1700582 Eh     change       -0.2462641E-06 Eh
 * total energy  :  -170.1700585 Eh     change       -0.2568733E-06 Eh
 * total energy  :  -170.1700584 Eh     change        0.3209934E-07 Eh
 * total energy  :  -170.1700584 Eh     change        0.1047567E-07 Eh
 * total energy  :  -170.1700586 Eh     change       -0.1502414E-06 Eh
 * total energy  :  -170.1700587 Eh     change       -0.1181969E-06 Eh
 * total energy  :  -170.1700586 Eh     change        0.8675471E-07 Eh
 * total energy  :  -170.1700587 Eh     change       -0.8067090E-07 Eh
   *** GEOMETRY OPTIMIZATION CONVERGED AFTER 73 ITERATIONS ***

 final structure:
================
102
 xtb: 6.7.1 (edcfbbe)
C           10.36325147875763        2.21917419382289        2.43272654159891
C            9.01216307020381        2.00842034773255        2.62200701976165
C            8.31490654192000        1.13993817526633        1.79663493172406
C            8.95693469755397        0.47516843756239        0.75875889834071
C           10.33584774083328        0.66948425778953        0.59746989776354
C           11.02578535687472        1.53871610749228        1.42226193107484
O           11.06577292221968        0.00819140835866       -0.35740859064378
C           10.39476458252947       -0.86369450185429       -1.17690676560928
C           11.14108993904884       -1.51871296596574       -2.13911679323656
C           10.52844851864113       -2.39042814065517       -3.02667011186871
C            9.16372715344587       -2.58579610833383       -2.95525031344225
C            8.41092103451720       -1.93361375831256       -1.99112275460732
C            9.01397215702526       -1.08212810731442       -1.07319585627892
N            8.28623555967329       -0.40731761242442       -0.09065303513953
C            6.89832612875252       -0.61701929030817        0.04425532849349
C            6.00845734597512        0.43742872952032       -0.15314367744058
C            4.65205977890714        0.23168149837047       -0.01918302894868
C            4.16139207238886       -1.03224716389904        0.30667168784833
C            2.72706507181629       -1.24630506732692        0.44403498206658
N            2.29942548671629       -2.45410861202019        0.82238328808901
N            1.02270360110168       -2.72165287767439        0.82228639283249
C            0.11032956909803       -1.80449908702253        0.60795847792592
C           -1.29703679748327       -2.19219404081754        0.51697625256038
C           -1.88651483900069       -2.98740200266995        1.49569503301799
C           -3.23664919141333       -3.27529302865197        1.44214833358885
C           -4.01333514490120       -2.78186411289061        0.39864078414370
N           -5.40593200214945       -3.00599502324741        0.36638778329385
C           -5.92789005277231       -4.29236047657715        0.23060020944592
C           -5.11661831577036       -5.41489861029575        0.11936151444190
C           -5.67024022337209       -6.67851935340054       -0.01583678681989
C           -7.04079507531297       -6.84059045561559       -0.05197085620167
C           -7.86386869447735       -5.72712820214045        0.02774181363601
C           -7.31762128885608       -4.46397048094766        0.15974879329286
O           -8.19290827313345       -3.40748403021559        0.19745341562485
C           -7.66419838968954       -2.15064206654116        0.34942709867565
C           -8.55648204205494       -1.09651547895498        0.41971965663412
C           -8.09681724460384        0.19799781949065        0.60986944390552
C           -6.74256912765581        0.42692622425195        0.74750573287394
C           -5.84295317642450       -0.62445817247767        0.66867264571724
C           -6.28448149121742       -1.92353682466256        0.44660853301636
C           -3.41313656249379       -2.04008923428906       -0.61702044444903
C           -2.06830831996468       -1.75010028916839       -0.55945913402211
C            0.54412705595731       -0.47111934438260        0.37226959521473
C           -0.35379868709320        0.64389193312358        0.25528422819896
C           -1.56000652501622        0.69918139001544        0.97526205477680
C           -2.45082966165832        1.72495520646615        0.77257510298594
C           -2.16751175492099        2.73390245805458       -0.14727740750525
N           -3.13854678889395        3.72970326576213       -0.41008820454891
C           -4.34683950914000        3.37126272211219       -1.00133186100363
C           -4.59438329794153        2.08100748557827       -1.45782155273702
C           -5.81224745261890        1.75445005028201       -2.03210566165892
C           -6.79925161746419        2.71063462072471       -2.16814820887108
C           -6.55766996510934        4.00990834333218       -1.74689562153684
C           -5.34277097234934        4.34350882399116       -1.17714379887172
O           -5.16086115767039        5.65259592559800       -0.80980381290753
C           -3.95222106054439        5.99446516238771       -0.25643239153529
C           -3.77363960541427        7.31858767195396        0.09823445891734
C           -2.58839533322617        7.72968272279987        0.69006629624333
C           -1.59222545848053        6.80536240572144        0.93714124263160
C           -1.76378781485568        5.47706167161239        0.58204865364291
C           -2.93527981505041        5.05350521656697       -0.03504556092086
C           -0.93999946851155        2.73621671392551       -0.80649859619161
C           -0.04135947269317        1.71483994768445       -0.59742507084102
N            1.88811438475098       -0.27270094290550        0.20807274941609
C            5.05331462099166       -2.08516058456426        0.50373313466836
C            6.41061954500917       -1.87969462859809        0.37629987064306
H           10.90880661055581        2.89748974499951        3.06940535823919
H            8.48668563130090        2.51487575480876        3.41686016497839
H            7.26331221765371        0.97142427977477        1.96707827182537
H           12.08429508887760        1.66418852978884        1.25971242341677
H           12.20144961167823       -1.32743410168566       -2.17988056899852
H           11.11885448223773       -2.89946378301761       -3.77192009503750
H            8.66942945768987       -3.24536473831481       -3.65168889414275
H            7.34321118027978       -2.08253218813209       -1.95770246719036
H            6.39219441850938        1.41192308545056       -0.41730282471289
H            3.95195814455980        1.03847554475768       -0.17090169406512
H           -1.28366213381632       -3.35055899052825        2.31402787556633
H           -3.70042254079973       -3.86427118253248        2.21959416416162
H           -4.04426757873443       -5.29920622058747        0.12862969789777
H           -5.01717723095698       -7.53372354683084       -0.09625684763863
H           -7.47583913405649       -7.82223691348165       -0.15272496038352
H           -8.93739690801483       -5.81701011429413       -0.01755929005658
H           -9.60907336424197       -1.31230249718954        0.32953829153403
H           -8.79842328048658        1.01521607917903        0.66024346925730
H           -6.37486699584694        1.42708362904236        0.91544865339182
H           -4.78758000222325       -0.43440061940918        0.78384256815649
H           -4.01456667612207       -1.68893782355893       -1.44244633457668
H           -1.60536338329214       -1.17603491689981       -1.34813606843602
H           -1.78082057478214       -0.05866138058566        1.71133171385278
H           -3.37961064357981        1.75948862988204        1.32393637733125
H           -3.82675763618339        1.32959904998577       -1.36082133764132
H           -5.98447739578457        0.74420937000148       -2.36945165955368
H           -7.75134337075410        2.45711458160183       -2.60623821508591
H           -7.30060871395029        4.78378021362657       -1.85578105402136
H           -4.57726474723683        8.01195716218562       -0.09171517032620
H           -2.45671895152020        8.76506976961921        0.96168074629331
H           -0.67212217289573        7.10968927986896        1.41182472457450
H           -0.98702474818627        4.75861241738449        0.79127259837248
H           -0.70963212191824        3.53377962042466       -1.49798471057422
H            0.90221297825438        1.70131197919297       -1.12075016499313
H            4.66133871018873       -3.05597266491483        0.76453612890937
H            7.10584400818209       -2.69037659813953        0.53755382562122

 projected vibrational frequencies (cm⁻¹)
eigval :       -0.00    -0.00    -0.00     0.00     0.00     0.00
eigval :        6.44     7.90     8.11    11.24    13.37    24.15
eigval :       24.67    26.88    35.44    37.24    41.30    49.16
eigval :       52.11    59.08    61.63    73.55    74.02    78.78
eigval :       88.18    96.83   104.74   114.06   117.64   121.04
eigval :      124.77   126.34   164.26   176.02   182.77   192.94
eigval :      202.14   203.69   228.36   239.56   246.24   250.24
eigval :      253.44   254.06   263.68   271.50   274.93   279.87
eigval :      287.47   310.85   321.06   348.51   355.32   368.49
eigval :      371.54   375.81   376.74   379.68   383.39   392.36
eigval :      395.14   397.86   403.32   409.81   416.78   424.01
eigval :      426.40   429.77   430.17   431.03   438.91   447.18
eigval :      449.09   450.80   466.93   483.18   495.97   505.36
eigval :      508.15   508.97   509.91   523.03   523.10   524.00
eigval :      531.12   545.69   549.31   557.12   570.64   578.16
eigval :      584.49   586.57   589.72   595.92   601.86   607.20
eigval :      609.62   618.18   627.10   638.21   642.62   658.91
eigval :      661.30   661.99   662.58   662.61   663.56   664.19
eigval :      670.16   679.30   688.79   691.13   697.88   716.29
eigval :      734.40   776.13   778.07   778.47   778.96   779.05
eigval :      779.15   784.17   797.42   802.07   804.31   810.21
eigval :      824.21   828.84   847.24   854.61   855.46   855.96
eigval :      860.59   862.73   864.22   864.81   866.36   866.71
eigval :      867.29   874.00   877.67   896.06   897.51   897.87
eigval :      897.90   898.85   898.87   906.61   911.36   913.15
eigval :      913.85   914.33   914.50   915.36   915.51   916.01
eigval :      917.35   917.62   919.78   923.11   924.43   926.09
eigval :      926.77   930.35   933.44   976.91  1004.52  1013.23
eigval :     1028.22  1073.00  1088.33  1089.81  1089.91  1090.15
eigval :     1091.16  1091.62  1109.27  1109.49  1109.52  1119.68
eigval :     1121.07  1121.45  1122.11  1129.63  1132.36  1141.96
eigval :     1165.47  1170.25  1170.50  1171.91  1175.43  1175.56
eigval :     1175.79  1177.69  1181.94  1183.18  1188.88  1191.11
eigval :     1193.63  1202.52  1202.93  1203.09  1221.73  1223.89
eigval :     1224.27  1241.06  1242.35  1242.60  1254.69  1259.21
eigval :     1260.51  1261.58  1263.16  1264.44  1280.23  1293.53
eigval :     1304.65  1309.58  1310.80  1311.38  1313.14  1315.71
eigval :     1319.49  1320.58  1323.66  1336.52  1337.89  1338.26
eigval :     1349.59  1351.17  1351.59  1378.53  1402.23  1406.32
eigval :     1407.94  1418.06  1423.85  1424.00  1424.35  1432.46
eigval :     1443.15  1443.36  1443.82  1470.55  1474.92  1481.69
eigval :     1482.32  1482.98  1486.26  1490.06  1496.97  1498.28
eigval :     1520.65  1554.72  1559.23  1563.54  1566.55  1566.97
eigval :     1575.20  1576.26  1578.35  1578.50  1583.62  1584.38
eigval :     1586.52  1587.39  1589.20  1596.42  1598.74  1600.60
eigval :     3075.73  3080.00  3083.18  3085.96  3086.75  3087.30
eigval :     3089.98  3090.27  3090.45  3090.73  3090.75  3092.60
eigval :     3093.86  3094.53  3099.78  3099.90  3099.98  3100.02
eigval :     3100.16  3100.24  3100.65  3102.07  3103.54  3104.30
eigval :     3106.72  3107.33  3107.38  3107.72  3107.96  3109.10
eigval :     3112.74  3113.07  3113.33  3113.39  3113.67  3114.28

   temp. (K)  partition function   enthalpy   heat capacity  entropy
                                   cal/mol     cal/K/mol   cal/K/mol   J/K/mol
 298.15  VIB  0.256E+26            30721.371    192.784    192.990
         ROT  0.297E+09              888.752      2.981     41.754
         INT  0.762E+34            31610.123    195.765    234.744
         TR   0.241E+29             1481.254      4.968     46.086
         TOT                       33091.3770   200.7330   280.8300  1174.9929

       T/K    H(0)-H(T)+PV         H(T)/Eh          T*S/Eh         G(T)/Eh
   ------------------------------------------------------------------------
    298.15    0.527345E-01    0.811600E+00    0.133431E+00    0.678168E+00
   ------------------------------------------------------------------------

         :::::::::::::::::::::::::::::::::::::::::::::::::::::
         ::                  THERMODYNAMIC                  ::
         :::::::::::::::::::::::::::::::::::::::::::::::::::::
         :: total free energy        -169.491890599419 Eh   ::
         ::.................................................::
         :: total energy             -170.170058719120 Eh   ::
         :: zero point energy           0.758865071423 Eh   ::
         :: G(RRHO) w/o ZPVE           -0.080696951722 Eh   ::
         :: G(RRHO) contrib.            0.678168119701 Eh   ::
         :::::::::::::::::::::::::::::::::::::::::::::::::::::

           -------------------------------------------------
          | TOTAL ENERGY             -170.170058719120 Eh   |
          | TOTAL ENTHALPY           -169.358459181816 Eh   |
          | TOTAL FREE ENERGY        -169.491890599419 Eh   |
          | GRADIENT NORM               0.000085591328 Eh/α |
           -------------------------------------------------

 * finished run on 2025/09/04 at 18:16:54.931
