   * xtb version 6.7.1 (edcfbbe) compiled by 'albert@albert-system' on 2024-07-22

   ID    Z sym.   atoms
    1    6 C      1-6, 8-13, 15-19, 22-26, 28-33, 35-47, 49-54, 56-63, 65, 66
    2    8 O      7, 34, 55
    3    7 N      14, 20, 21, 27, 48, 64
    4    1 H      67-102

          program call               : xtb data2507/gas/TPXZ–as-TAZ/TPXZ–as-TAZ_gas_S0_finalOpt.xtbopt.xyz --gfn 2 --spinpol --tblite --uhf 2 --ohess vtight --parallel 40 --molden --ceasefiles --namespace data2507/gas/TPXZ–as-TAZ/TPXZ–as-TAZ_gas_T1_preOpt
 * total energy  :  -170.1645791 Eh     change       -0.3577532E-07 Eh
 * total energy  :  -170.1671008 Eh     change       -0.2521670E-02 Eh
 * total energy  :  -170.1682314 Eh     change       -0.1130660E-02 Eh
 * total energy  :  -170.1676610 Eh     change        0.5704008E-03 Eh
 * total energy  :  -170.1686271 Eh     change       -0.9661048E-03 Eh
 * total energy  :  -170.1689427 Eh     change       -0.3155294E-03 Eh
 * total energy  :  -170.1692843 Eh     change       -0.3416590E-03 Eh
 * total energy  :  -170.1693574 Eh     change       -0.7312670E-04 Eh
 * total energy  :  -170.1694785 Eh     change       -0.1211018E-03 Eh
 * total energy  :  -170.1695268 Eh     change       -0.4826051E-04 Eh
 * total energy  :  -170.1700548 Eh     change       -0.4429121E-06 Eh
 * total energy  :  -170.1700553 Eh     change       -0.5347840E-06 Eh
 * total energy  :  -170.1700556 Eh     change       -0.2523344E-06 Eh
 * total energy  :  -170.1700558 Eh     change       -0.2271525E-06 Eh
 * total energy  :  -170.1700560 Eh     change       -0.2673032E-06 Eh
 * total energy  :  -170.1700563 Eh     change       -0.2655344E-06 Eh
 * total energy  :  -170.1700565 Eh     change       -0.2163293E-06 Eh
 * total energy  :  -170.1700567 Eh     change       -0.2002218E-06 Eh
 * total energy  :  -170.1700567 Eh     change       -0.5299313E-08 Eh
   *** GEOMETRY OPTIMIZATION CONVERGED AFTER 68 ITERATIONS ***

 final structure:
================
102
 xtb: 6.7.1 (edcfbbe)
C           10.54141629086114       -2.33118806185370       -3.03603419766808
C            9.17864657387138       -2.53848691907082       -2.96115907249733
C            8.42165639353346       -1.88816946714469       -1.99904776591762
C            9.01855512502193       -1.02662240376894       -1.08648561145816
C           10.39710807055480       -0.79617785665256       -1.19392488535429
C           11.14765039553268       -1.44934251541317       -2.15411722836667
O           11.06169358628305        0.08612859085337       -0.38034907118922
C           10.32763090383068        0.74553608742629        0.57264767685220
C           11.01122944171483        1.62529206440285        1.39156420433551
C           10.34456996504543        2.30471011277356        2.40000050017007
C            8.99595131389064        2.08221710363075        2.59339479616523
C            8.30507159602585        1.20310201088884        1.77394982338587
C            8.95092264337908        0.53931617593485        0.73779846256304
N            8.28653993023219       -0.35345401771498       -0.10593986490084
C            6.90057021108644       -0.57334323799203        0.03191664008581
C            6.42269966854168       -1.83860388040395        0.36840256761655
C            5.06719136120003       -2.05349065540078        0.49946936620055
C            4.16726489704053       -1.00746492230639        0.30204651331827
C            2.73495262762541       -1.23115406735451        0.44386070975488
N            2.31618499503800       -2.44261296099614        0.82230733636689
N            1.04122219633499       -2.71805069238534        0.82417483678923
C            0.12249191500091       -1.80725468806488        0.61286972400011
C           -1.28207672151344       -2.20475897360754        0.52096390392564
C           -1.86652855049239       -3.00616817049350        1.49761229493609
C           -3.21422546536512       -3.30487599404866        1.44160644735413
C           -3.99334910523472       -2.81621390912883        0.39766136422520
N           -5.38366475607375       -3.05317850258919        0.36194263920232
C           -5.89315838867654       -4.34402849224962        0.22098572565690
C           -5.07118503589935       -5.45895478227150        0.11178760973618
C           -5.61260879270643       -6.72734089334247       -0.02810690141746
C           -6.98143843795823       -6.90184668698933       -0.07096591967668
C           -7.81497270184926       -5.79602871577638        0.00631375898794
C           -7.28087955446533       -4.52815176730727        0.14279296577039
O           -8.16593713755401       -3.47973954344978        0.17717756245694
C           -7.64943247484424       -2.21821388197225        0.33208596278979
C           -8.55152550815677       -1.17209829802939        0.39674749593808
C           -8.10462948216481        0.12639305316249        0.59018301995338
C           -6.75341100846334        0.36729316666926        0.73701234507279
C           -5.84394418448210       -0.67596625757368        0.66337562982946
C           -6.27243240882399       -1.97878624501384        0.43764506512675
C           -3.39787011427334       -2.06714827522605       -0.61542715988184
C           -2.05557390629514       -1.76631335380707       -0.55536275544033
C            0.54687663693993       -0.46992392230196        0.37865542495535
C           -0.35827537478784        0.63916895323940        0.26463470537073
C           -1.56538131859938        0.68440201871101        0.98399259673722
C           -2.46283888523081        1.70487528061896        0.78380785213430
C           -2.18550773903018        2.71845580196814       -0.13274950562457
N           -3.16249041492657        3.70896753311833       -0.39367087465847
C           -4.36664380571683        3.34587465230762       -0.99033991915963
C           -4.60744883452187        2.05463711001629       -1.44770207054395
C           -5.82127032694707        1.72368731412667       -2.02799787875806
C           -6.81088195970707        2.67641310408647       -2.16933165509512
C           -6.57612557861274        3.97651348631202       -1.74676691706091
C           -5.36540445053134        4.31444324331092       -1.17071498028719
O           -5.19039517183363        5.62405776572948       -0.80191093861381
C           -3.98686129878069        5.96986320789047       -0.24000054036850
C           -3.81625073041081        7.29382602105608        0.11919399835786
C           -2.63631221135099        7.70858134639569        0.71902176232229
C           -1.63736491818725        6.78809874683422        0.96929493808518
C           -1.80096523443701        5.45998968751081        0.60982995532439
C           -2.96712182846875        5.03282056168842       -0.01488332777820
C           -0.95748659619534        2.73095959127489       -0.79100233433126
C           -0.05233200150271        1.71494161286304       -0.58456529141689
N            1.88902502235043       -0.26313193514321        0.21161403353992
C            4.64810404146827        0.25907337201310       -0.02846132081677
C            6.00258446613738        0.47409880423345       -0.16645659983454
H           11.13512269092186       -2.83872931403619       -3.77967629542336
H            8.68911273674003       -3.20608041428717       -3.65330313321050
H            7.35538515588690       -2.04645844850985       -1.96313031596776
H           12.20613683201937       -1.24858920394483       -2.19784120658767
H           12.06817577289458        1.75975208015613        1.22607620010669
H           10.88511373919014        2.99137016621819        3.03198636620905
H            8.46745904457232        2.58768037283481        3.38687598022661
H            7.25553200980173        1.02555776271585        1.94779763285844
H            7.12406934784230       -2.64381138898337        0.53046720875244
H            4.68280390645841       -3.02643269497906        0.76360710473237
H           -1.26192529116290       -3.36602111018759        2.31611619318281
H           -3.67427661332829       -3.89901890657691        2.21732876688143
H           -3.99998620190220       -5.33361145831384        0.12630236680563
H           -4.95137889254258       -7.57641179425888       -0.10674900800118
H           -7.40704302096738       -7.88726282134329       -0.17515722587661
H           -8.88739957764580       -5.89559151398262       -0.04446461981940
H           -9.60154231219257       -1.39722363156700        0.29966067761523
H           -8.81377172448562        0.93735158291440        0.63602083795281
H           -6.39573374784794        1.37055776692725        0.90798935108816
H           -4.79107388785743       -0.47654478978586        0.78553555976765
H           -4.00093910821434       -1.71923418801572       -1.44103412457437
H           -1.59624215968988       -1.18685090156037       -1.34220326508874
H           -1.78163521977922       -0.07705345925193        1.71767561725826
H           -3.39218879817433        1.73164105746673        1.33465579103697
H           -3.83774622747435        1.30588908734765       -1.34674881590530
H           -5.98829780442585        0.71271518874199       -2.36577072788510
H           -7.75975032263305        2.41954443955559       -2.61244140709839
H           -7.32123163915728        4.74774036304535       -1.85952905086987
H           -4.62174799577261        7.98418541018218       -0.07375994516508
H           -2.51087783645452        8.74380186817707        0.99420776645722
H           -0.72132726483765        7.09532073196551        1.44994316124097
H           -1.02216715125690        4.74441487204585        0.82137654990165
H           -0.73189157158930        3.53236444206287       -1.47962627256995
H            0.89166212738100        1.70927616584316       -1.10726359218404
H            3.94189068796316        1.06044303915595       -0.18056658052536
H            6.37865547856307        1.45056114003490       -0.43434777191952

 projected vibrational frequencies (cm⁻¹)
eigval :       -0.00    -0.00     0.00     0.00     0.00     0.00
eigval :        6.42     7.31     8.05    10.96    13.95    23.90
eigval :       24.58    27.10    35.61    37.19    41.35    49.18
eigval :       52.10    59.17    62.19    73.62    74.06    78.83
eigval :       88.15    96.80   104.64   114.10   117.79   121.10
eigval :      124.98   126.21   164.11   176.11   183.04   193.15
eigval :      202.10   203.61   228.42   239.61   246.40   250.28
eigval :      253.53   253.98   263.63   271.45   274.92   279.71
eigval :      287.70   311.11   320.65   348.34   355.46   368.49
eigval :      371.73   375.95   376.86   379.59   383.50   392.86
eigval :      395.07   398.15   403.94   409.87   416.43   424.10
eigval :      426.28   429.57   430.22   431.19   438.92   447.25
eigval :      449.15   450.86   466.50   483.32   495.80   505.23
eigval :      508.15   508.98   509.99   523.06   523.16   524.06
eigval :      530.92   545.65   549.30   557.20   570.54   578.12
eigval :      584.51   586.56   589.84   596.08   601.97   607.31
eigval :      609.57   618.11   627.13   637.59   642.73   658.93
eigval :      661.36   661.93   662.55   662.62   663.56   664.16
eigval :      670.07   679.14   688.79   691.21   697.85   716.21
eigval :      734.34   776.17   777.94   778.42   779.04   779.11
eigval :      779.20   783.64   796.88   802.04   804.32   810.12
eigval :      824.27   828.77   846.66   854.64   855.47   855.95
eigval :      860.50   862.78   864.25   864.89   866.43   866.82
eigval :      867.44   874.21   877.77   896.13   897.56   897.95
eigval :      897.98   898.91   898.95   906.66   911.34   913.25
eigval :      913.80   914.32   914.55   915.43   915.54   916.10
eigval :      917.36   917.59   919.76   923.19   924.41   926.06
eigval :      926.92   930.47   933.58   977.17  1003.98  1013.12
eigval :     1028.04  1072.57  1088.29  1089.84  1089.96  1090.15
eigval :     1091.26  1091.59  1109.27  1109.42  1109.50  1119.86
eigval :     1121.13  1121.44  1122.13  1129.71  1132.44  1141.57
eigval :     1165.81  1170.22  1170.76  1172.06  1175.54  1175.66
eigval :     1175.91  1177.70  1182.03  1183.31  1188.87  1191.27
eigval :     1193.60  1202.49  1203.02  1203.06  1221.78  1223.24
eigval :     1224.85  1241.13  1242.37  1242.66  1254.84  1259.16
eigval :     1260.60  1261.75  1263.28  1264.49  1279.70  1293.34
eigval :     1304.73  1309.57  1310.77  1311.28  1313.05  1315.59
eigval :     1319.44  1320.62  1323.69  1336.57  1337.88  1338.29
eigval :     1349.48  1351.11  1351.59  1378.70  1402.60  1406.35
eigval :     1408.69  1419.94  1423.95  1424.07  1424.58  1433.23
eigval :     1443.19  1443.41  1443.95  1470.52  1474.84  1481.89
eigval :     1482.81  1482.97  1486.51  1490.82  1496.74  1498.84
eigval :     1520.32  1554.67  1559.16  1563.45  1566.56  1566.91
eigval :     1575.12  1576.20  1578.36  1578.49  1583.53  1584.17
eigval :     1586.60  1587.74  1589.14  1596.65  1598.37  1600.78
eigval :     3075.76  3080.04  3083.27  3086.07  3086.89  3087.43
eigval :     3090.08  3090.41  3090.57  3090.87  3090.89  3092.77
eigval :     3094.00  3094.65  3099.90  3100.05  3100.10  3100.16
eigval :     3100.32  3100.39  3100.76  3102.15  3103.67  3104.45
eigval :     3106.85  3107.54  3107.56  3107.66  3108.15  3109.21
eigval :     3112.83  3113.28  3113.36  3113.59  3113.93  3114.43

   temp. (K)  partition function   enthalpy   heat capacity  entropy
                                   cal/mol     cal/K/mol   cal/K/mol   J/K/mol
 298.15  VIB  0.272E+26            30719.497    192.793    193.045
         ROT  0.298E+09              888.752      2.981     41.755
         INT  0.809E+34            31608.250    195.774    234.800
         TR   0.241E+29             1481.254      4.968     46.086
         TOT                       33089.5035   200.7421   280.8863  1175.2283

       T/K    H(0)-H(T)+PV         H(T)/Eh          T*S/Eh         G(T)/Eh
   ------------------------------------------------------------------------
    298.15    0.527315E-01    0.811625E+00    0.133458E+00    0.678167E+00
   ------------------------------------------------------------------------

         :::::::::::::::::::::::::::::::::::::::::::::::::::::
         ::                  THERMODYNAMIC                  ::
         :::::::::::::::::::::::::::::::::::::::::::::::::::::
         :: total free energy        -169.491889965859 Eh   ::
         ::.................................................::
         :: total energy             -170.170056740062 Eh   ::
         :: zero point energy           0.758893441894 Eh   ::
         :: G(RRHO) w/o ZPVE           -0.080726667691 Eh   ::
         :: G(RRHO) contrib.            0.678166774203 Eh   ::
         :::::::::::::::::::::::::::::::::::::::::::::::::::::

           -------------------------------------------------
          | TOTAL ENERGY             -170.170056740062 Eh   |
          | TOTAL ENTHALPY           -169.358431817897 Eh   |
          | TOTAL FREE ENERGY        -169.491889965859 Eh   |
          | GRADIENT NORM               0.000052092590 Eh/α |
           -------------------------------------------------

 * finished run on 2025/09/04 at 18:04:04.956
