   * xtb version 6.7.1 (edcfbbe) compiled by 'albert@albert-system' on 2024-07-22

   ID    Z sym.   atoms
    1    6 C      1-8, 10-18, 22-29, 31-50, 52-67
    2    7 N      9, 30, 51
    3   16 S      19
    4    8 O      20, 21
    5    1 H      68-112

          program call               : xtb data2507/toluene/PSBC/PSBC_toluene_S0_finalOpt.xtbopt.xyz --gfn 2 --uhf 2 --gbsa toluene --ohess vtight --parallel 40 --molden --ceasefiles --namespace data2507/toluene/PSBC/PSBC_toluene_T1_preOpt
      * Solvation model:               GBSA
        Solvent                        toluene
        Solvent mass                       9.2140E+01 g/mol
          :  Hamiltonian                  GFN2-xTB          :
 * total energy  :  -173.7742837 Eh     change       -0.2235396E-08 Eh
 * total energy  :  -173.7789500 Eh     change       -0.4666318E-02 Eh
 * total energy  :  -173.7815036 Eh     change       -0.2553612E-02 Eh
 * total energy  :  -173.7821166 Eh     change       -0.6130007E-03 Eh
 * total energy  :  -173.7829862 Eh     change       -0.8695470E-03 Eh
 * total energy  :  -173.7835213 Eh     change       -0.5350879E-03 Eh
 * total energy  :  -173.7839719 Eh     change       -0.4506855E-03 Eh
 * total energy  :  -173.7843037 Eh     change       -0.3317842E-03 Eh
 * total energy  :  -173.7845363 Eh     change       -0.2326132E-03 Eh
 * total energy  :  -173.7847055 Eh     change       -0.1691390E-03 Eh
 * total energy  :  -173.7865017 Eh     change       -0.4885214E-06 Eh
 * total energy  :  -173.7865023 Eh     change       -0.5115912E-06 Eh
 * total energy  :  -173.7865027 Eh     change       -0.4620032E-06 Eh
 * total energy  :  -173.7865031 Eh     change       -0.3431869E-06 Eh
 * total energy  :  -173.7865034 Eh     change       -0.2938228E-06 Eh
 * total energy  :  -173.7865036 Eh     change       -0.2898008E-06 Eh
 * total energy  :  -173.7865039 Eh     change       -0.2591503E-06 Eh
 * total energy  :  -173.7865041 Eh     change       -0.1945096E-06 Eh
 * total energy  :  -173.7865042 Eh     change       -0.7979270E-07 Eh
   *** GEOMETRY OPTIMIZATION CONVERGED AFTER 201 ITERATIONS ***

 final structure:
================
112
 xtb: 6.7.1 (edcfbbe)
C           -2.41306268571800       -7.75169674184107        0.06129241191602
C           -1.08765498915174       -7.03156016054363       -0.22971279490730
C           -0.66812403969371       -7.36347613111863       -1.66499496848100
C            0.00435594942503       -7.54454556964176        0.72106697451402
C           -1.27715360757448       -5.54004400965785       -0.00397504427935
C           -1.66905681454958       -5.08098993903959        1.25263420830816
C           -1.86244733875963       -3.73737906375052        1.50615440117098
C           -1.66239941402887       -2.80695586454022        0.49322581389312
N           -1.87688386997362       -1.43129809285790        0.75239841794263
C           -0.95566871611962       -0.53259905018973        1.30509321569507
C            0.40970506210561       -0.73487842120249        1.56278000112240
C            1.10864923863368        0.30864254110163        2.24382922447105
C            2.45027677957725        0.26567779851430        2.43639692276354
C            3.24826146042080       -0.80202807854642        1.92926927739824
C            4.66620607010088       -0.68951791135606        1.85671427820690
C            5.42074385268664       -1.45915815415063        0.92924593822846
C            6.67115896657983       -1.06575743575636        0.53921643275575
C            7.26068473461755        0.07310093181715        1.09882183952482
S            8.28336751236797        1.06605523975133        0.04409047525835
O            9.02736981094914        2.06003366814958        0.79329341554553
O            9.03774145876366        0.25194776657666       -0.88955292506627
C            6.85614288695357        1.80212593395085       -0.75195912157681
C            6.18118269937599        1.04663404189086       -1.70048464882070
C            4.84678672985913        1.28926164326930       -1.94897671996511
C            4.15503375168609        2.27606118034202       -1.23808758153522
C            2.69462939405402        2.36865209822597       -1.32437831846736
C            2.00549368910022        2.08226825759373       -2.50502377563763
C            0.62649367205455        2.09693658357930       -2.54429738897292
C           -0.10487881888358        2.39630539742255       -1.39630958077591
N           -1.50685913623608        2.41870987513630       -1.43693623075928
C           -2.31636567434574        1.42331069585477       -1.93479559817842
C           -1.97720734799904        0.15585541318733       -2.38957871516885
C           -2.99626513258939       -0.66149225257002       -2.84164285264918
C           -4.32341518134944       -0.23961787248933       -2.83271372773926
C           -4.67014784393546        1.01148669581705       -2.35704671691691
C           -3.66499528550399        1.85111520518584       -1.90144524056985
C           -3.65393342364432        3.18182491219626       -1.35873733525962
C           -4.64332122155841        4.12494567105568       -1.12382377695999
C           -4.27583661394574        5.35462496153287       -0.61099296942785
C           -2.94142008878244        5.65084594150670       -0.34417202800101
C           -1.93724939361926        4.72981771793418       -0.57653841169902
C           -2.30257080974650        3.48801708135867       -1.07632860030668
C            0.56892286318893        2.69133329490145       -0.21488629691457
C            1.94739645803904        2.67806623836520       -0.18435477362781
C            4.88068751170903        3.09851210636092       -0.36847732981142
C            6.21474302354894        2.85604249403727       -0.11662754169264
C            6.62937637775572        0.71000206911184        2.17277140485737
C            5.37682582755418        0.32386449129394        2.56008549297392
C            2.52898506529289       -1.89764576968653        1.36803185306721
C            1.17975294024313       -1.87509464083472        1.19769716310112
N           -1.55490419960834        0.64039228591825        1.58281000963858
C           -2.83321289096463        0.50996359650837        1.23995625652876
C           -3.88257833595087        1.45865475475625        1.40934865235136
C           -3.63242905784428        2.71087605758102        1.97702354468544
C           -4.66067477420218        3.59978223739893        2.18635722381851
C           -5.95417509326932        3.23713527834621        1.82609145311762
C           -6.21088057912009        2.00645345299073        1.25968790978453
C           -5.18949032237394        1.07504989363847        1.03033379554131
C           -5.43096456080565       -0.23549092237532        0.44945477584321
C           -6.70616355827711       -0.62742521686262        0.02996543464000
C           -6.95222486305989       -1.87115011305393       -0.50967981208863
C           -5.91299222641110       -2.78851863348111       -0.65662347850164
C           -4.64554123604491       -2.44612204365880       -0.26324583018082
C           -4.36937403493069       -1.18160411155385        0.29456435970537
C           -3.08335089042416       -0.78424179391815        0.71337805721655
C           -1.26412124655717       -3.24224691694278       -0.76348018946439
C           -1.07713706413649       -4.59245369377576       -1.00271854572901
H           -2.72563146214191       -7.61071746740666        1.09217730389186
H           -3.19929917022093       -7.37331905665411       -0.58916968502314
H           -2.30295436703895       -8.81905197538879       -0.11695793611356
H           -0.55069206913617       -8.44041235428515       -1.76569959840703
H           -1.42236904644971       -7.04146353461779       -2.37948213971310
H            0.28367864627418       -6.89978943194089       -1.91386914797167
H           -0.27036417736975       -7.39513994942072        1.76157223304571
H            0.94146140937492       -7.02254408015911        0.53719504796222
H            0.16647595107166       -8.60832945965464        0.56197203464838
H           -1.83138587389886       -5.77958849212223        2.05830070609441
H           -2.16960250129455       -3.40144016102359        2.48603387357327
H            0.52460856377186        1.14372017768234        2.59493371536642
H            2.93060567572660        1.09161636755934        2.93512384849342
H            4.97181134634803       -2.31225832467158        0.44722374283386
H            7.20951764130449       -1.58917651083657       -0.23654717564229
H            6.71099395096452        0.24920196427520       -2.19834613297787
H            4.31752665101830        0.65961936225806       -2.64733849060444
H            2.55646314813101        1.87319146734403       -3.40931086788376
H            0.10597230280056        1.89381050459771       -3.46893586793549
H           -0.94763664305746       -0.17150439765766       -2.39052095346011
H           -2.76409424208335       -1.64814638668302       -3.21461680745149
H           -5.09064121407541       -0.90517290598281       -3.19774139159241
H           -5.70033026180526        1.33190070398730       -2.34274276643241
H           -5.67586488669869        3.90108657166085       -1.34334823039113
H           -5.03097305003951        6.10283855810053       -0.42161491058806
H           -2.68417856029502        6.62464186161545        0.04578105645250
H           -0.90332886740674        4.97417821570994       -0.38728268637653
H           -0.00028447301622        2.88999224843394        0.67943001285229
H            2.45551444974015        2.87058729016036        0.74676905023919
H            4.38612393766288        3.91693818239080        0.13177199412652
H            6.77239405193515        3.44874027462730        0.59228343120062
H            7.14136582056979        1.53031000675306        2.65323119398837
H            4.91084657955306        0.82095589343639        3.39587274720728
H            3.06913886506852       -2.78484042007161        1.07607263292018
H            0.69449177684338       -2.73290682749170        0.76277760718396
H           -2.61633372409565        2.94937717860227        2.24982538418507
H           -4.46927424947073        4.56535036899175        2.62864902328304
H           -6.76916571296229        3.92659916888312        1.99120593974269
H           -7.23116603145508        1.77078392229964        1.00314049756902
H           -7.53419097591344        0.05639343645686        0.12136576041114
H           -7.95248828988603       -2.13441400417094       -0.82002292320049
H           -6.10456203749845       -3.76267341286619       -1.08104316589786
H           -3.84163673925956       -3.15309080052619       -0.38235180232754
H           -1.10324353621654       -2.51988630803598       -1.54833594895763
H           -0.77016910984303       -4.89247756380335       -1.99062672775371

          :  Hamiltonian                  GFN2-xTB          :
         :: gradient norm              0.000040713317 Eh/a0 ::
         :: HOMO-LUMO gap              0.565033146381 eV    ::
         :: SCC energy              -176.868365714140 Eh    ::
         :: -> dispersion             -0.191109899193 Eh    ::
         :: -> Gsolv                  -0.069860109181 Eh    ::
         :: repulsion energy           3.081861498127 Eh    ::

    * Orbital Energies and Occupations

         #    Occupation            Energy/Eh            Energy/eV
      -------------------------------------------------------------
         1        2.0000           -0.7642350             -20.7959
       ...           ...                  ...                  ...
       150        2.0000           -0.4105851             -11.1726
       151        2.0000           -0.4092384             -11.1359
       152        2.0000           -0.4084185             -11.1136
       153        2.0000           -0.4049057             -11.0180
       154        2.0000           -0.3983957             -10.8409
       155        2.0000           -0.3963291             -10.7847
       156        2.0000           -0.3912705             -10.6470
       157        2.0000           -0.3883741             -10.5682
       158        2.0000           -0.3853984             -10.4872
       159        2.0000           -0.3852156             -10.4822
       160        1.9419           -0.3680986             -10.0165
       161        1.0581           -0.3628055              -9.8724
       162        1.0000           -0.2890830              -7.8663 (HOMO)
       163        0.0000           -0.2683182              -7.3013 (LUMO)
       164                         -0.2593559              -7.0574
       165                         -0.2576356              -7.0106
       166                         -0.2505026              -6.8165
       167                         -0.2407164              -6.5502
       168                         -0.2398264              -6.5260
       169                         -0.2380028              -6.4764
       170                         -0.2376719              -6.4674
       171                         -0.2330351              -6.3412
       172                         -0.2290954              -6.2340
       173                         -0.2244971              -6.1089
       ...                                ...                  ...
       318                          1.1748639              31.9697
      -------------------------------------------------------------
                  HL-Gap            0.0207648 Eh            0.5650 eV

     #   Z          covCN         q      C6AA      α(0)
     1   6 C        3.761    -0.108    22.602     6.777
     2   6 C        3.902     0.027    20.064     6.367
     3   6 C        3.761    -0.110    22.659     6.786
     4   6 C        3.761    -0.107    22.598     6.777
     5   6 C        2.972     0.015    27.684     8.631
     6   6 C        2.927    -0.032    28.786     8.799
     7   6 C        2.919    -0.040    28.995     8.830
     8   6 C        2.911     0.061    26.632     8.462
     9   7 N        2.820    -0.063    22.454     7.038
    10   6 C        3.146     0.135    24.814     8.150
    11   6 C        2.969    -0.014    28.368     8.736
    12   6 C        2.922    -0.031    28.767     8.796
    13   6 C        2.915    -0.038    28.938     8.821
    14   6 C        2.969     0.011    27.770     8.644
    15   6 C        2.970     0.005    27.899     8.664
    16   6 C        2.921    -0.036    28.887     8.814
    17   6 C        2.964    -0.036    28.893     8.817
    18   6 C        2.968    -0.100    30.515     9.061
    19  16 S        3.856     0.921   108.949    17.568
    20   8 O        0.860    -0.580    25.619     6.786
    21   8 O        0.860    -0.580    25.640     6.789
    22   6 C        2.969    -0.085    30.120     9.002
    23   6 C        2.962    -0.032    28.803     8.803
    24   6 C        2.925    -0.032    28.790     8.799
    25   6 C        2.975     0.013    27.709     8.635
    26   6 C        2.974     0.011    27.761     8.643
    27   6 C        2.923    -0.033    28.824     8.804
    28   6 C        2.919    -0.042    29.053     8.839
    29   6 C        2.913     0.061    26.627     8.462
    30   7 N        2.802    -0.033    21.877     6.947
    31   6 C        3.079     0.049    26.819     8.490
    32   6 C        2.909    -0.049    29.206     8.862
    33   6 C        2.923    -0.035    28.860     8.810
    34   6 C        2.920    -0.038    28.951     8.824
    35   6 C        2.912    -0.032    28.794     8.799
    36   6 C        3.068    -0.017    28.352     8.731
    37   6 C        3.068    -0.016    28.348     8.730
    38   6 C        2.912    -0.032    28.786     8.798
    39   6 C        2.920    -0.038    28.946     8.823
    40   6 C        2.924    -0.032    28.803     8.801
    41   6 C        2.910    -0.048    29.182     8.858
    42   6 C        3.079     0.050    26.795     8.486
    43   6 C        2.919    -0.039    28.960     8.825
    44   6 C        2.926    -0.032    28.801     8.801
    45   6 C        2.925    -0.032    28.789     8.799
    46   6 C        2.958    -0.032    28.786     8.800
    47   6 C        2.963    -0.036    28.884     8.815
    48   6 C        2.921    -0.036    28.901     8.816
    49   6 C        2.915    -0.037    28.913     8.817
    50   6 C        2.910    -0.040    28.994     8.829
    51   7 N        1.888    -0.313    28.972     7.979
    52   6 C        3.169     0.084    25.794     8.298
    53   6 C        2.984    -0.004    28.124     8.699
    54   6 C        2.923    -0.025    28.625     8.774
    55   6 C        2.916    -0.029    28.716     8.787
    56   6 C        2.918    -0.027    28.668     8.780
    57   6 C        2.922    -0.032    28.797     8.800
    58   6 C        2.978     0.000    28.015     8.682
    59   6 C        2.978     0.004    27.939     8.670
    60   6 C        2.921    -0.031    28.775     8.797
    61   6 C        2.916    -0.028    28.699     8.785
    62   6 C        2.915    -0.030    28.743     8.791
    63   6 C        2.919    -0.034    28.844     8.807
    64   6 C        2.975    -0.007    28.195     8.710
    65   6 C        3.052     0.042    27.006     8.523
    66   6 C        2.919    -0.042    29.039     8.837
    67   6 C        2.925    -0.037    28.920     8.819
    68   1 H        0.925     0.039     2.457     2.451
    69   1 H        0.925     0.036     2.505     2.475
    70   1 H        0.925     0.043     2.409     2.427
    71   1 H        0.925     0.041     2.431     2.438
    72   1 H        0.925     0.039     2.459     2.452
    73   1 H        0.925     0.039     2.468     2.457
    74   1 H        0.925     0.039     2.461     2.453
    75   1 H        0.925     0.035     2.517     2.481
    76   1 H        0.925     0.043     2.410     2.428
    77   1 H        0.926     0.047     2.360     2.403
    78   1 H        0.926     0.035     2.519     2.482
    79   1 H        0.926     0.054     2.266     2.354
    80   1 H        0.926     0.041     2.430     2.438
    81   1 H        0.926     0.051     2.313     2.378
    82   1 H        0.926     0.039     2.464     2.455
    83   1 H        0.926     0.045     2.385     2.415
    84   1 H        0.926     0.056     2.252     2.347
    85   1 H        0.926     0.048     2.345     2.395
    86   1 H        0.926     0.045     2.379     2.412
    87   1 H        0.926     0.029     2.606     2.524
    88   1 H        0.926     0.036     2.507     2.476
    89   1 H        0.926     0.033     2.542     2.493
    90   1 H        0.926     0.036     2.507     2.476
    91   1 H        0.926     0.035     2.514     2.479
    92   1 H        0.926     0.036     2.501     2.473
    93   1 H        0.926     0.038     2.472     2.459
    94   1 H        0.926     0.038     2.475     2.460
    95   1 H        0.926     0.056     2.241     2.341
    96   1 H        0.926     0.050     2.321     2.382
    97   1 H        0.926     0.057     2.229     2.335
    98   1 H        0.926     0.046     2.371     2.408
    99   1 H        0.926     0.039     2.461     2.453
   100   1 H        0.926     0.051     2.306     2.375
   101   1 H        0.926     0.038     2.477     2.461
   102   1 H        0.926     0.033     2.537     2.491
   103   1 H        0.926     0.047     2.363     2.404
   104   1 H        0.926     0.040     2.446     2.446
   105   1 H        0.926     0.042     2.423     2.434
   106   1 H        0.926     0.044     2.401     2.423
   107   1 H        0.926     0.045     2.386     2.415
   108   1 H        0.926     0.041     2.432     2.439
   109   1 H        0.926     0.039     2.463     2.454
   110   1 H        0.926     0.037     2.492     2.469
   111   1 H        0.926     0.043     2.405     2.425
   112   1 H        0.926     0.054     2.265     2.353

molecular dipole:
                 x           y           z       tot (Debye)
 q only:       -7.734      -1.566      -0.371
   full:       -7.573      -1.854      -0.505      19.859

 projected vibrational frequencies (cm⁻¹)
eigval :       -0.00    -0.00    -0.00    -0.00    -0.00     0.00
eigval :       14.09    14.29    15.77    19.18    23.12    26.80
eigval :       31.80    35.22    40.28    46.00    54.09    57.88
eigval :       61.52    69.92    71.69    78.30    83.99    87.99
eigval :       93.63    95.12   100.92   101.08   116.11   117.76
eigval :      127.99   132.72   137.76   142.63   146.39   153.84
eigval :      156.27   169.17   180.17   183.95   202.44   214.94
eigval :      217.01   225.68   230.04   238.04   245.61   249.78
eigval :      258.41   265.23   274.70   279.15   288.32   301.08
eigval :      312.04   312.61   317.55   327.84   347.29   356.69
eigval :      361.51   364.70   367.92   369.87   376.69   382.06
eigval :      384.26   387.96   390.42   391.96   394.99   404.26
eigval :      410.61   416.00   418.20   422.95   425.16   431.25
eigval :      436.87   440.04   448.44   455.16   463.21   468.83
eigval :      487.63   488.98   501.42   505.08   515.06   519.44
eigval :      525.58   536.64   539.93   541.16   545.53   559.42
eigval :      581.37   581.45   582.65   591.07   594.82   595.91
eigval :      598.66   601.59   615.47   625.57   626.09   629.65
eigval :      646.75   658.59   665.04   667.53   671.40   673.22
eigval :      674.42   678.06   694.14   695.25   705.60   710.24
eigval :      718.79   730.67   747.22   754.13   755.30   760.84
eigval :      768.49   771.98   775.39   779.65   781.74   787.97
eigval :      797.64   799.25   804.73   816.58   826.93   827.67
eigval :      856.02   860.00   864.90   867.77   871.04   871.97
eigval :      874.10   881.75   895.28   897.57   901.15   901.56
eigval :      902.76   904.44   905.78   907.74   912.58   914.18
eigval :      915.49   918.53   920.69   920.94   922.06   923.27
eigval :      924.50   925.82   926.82   930.67   932.47   938.81
eigval :      953.30   960.19   961.52   963.75   966.21   973.50
eigval :      998.89  1009.06  1011.56  1011.99  1023.31  1035.36
eigval :     1036.03  1052.59  1067.08  1067.64  1069.04  1072.46
eigval :     1082.22  1084.37  1099.75  1103.27  1104.86  1115.85
eigval :     1117.64  1122.51  1137.27  1138.16  1143.00  1144.07
eigval :     1144.59  1147.17  1159.76  1174.71  1177.51  1179.65
eigval :     1180.54  1180.88  1182.60  1183.96  1186.74  1194.25
eigval :     1202.63  1206.16  1214.93  1225.24  1231.82  1234.44
eigval :     1237.05  1241.41  1244.68  1249.99  1251.69  1253.34
eigval :     1265.30  1267.75  1271.76  1281.36  1281.83  1286.00
eigval :     1293.67  1294.90  1296.34  1302.66  1309.20  1315.41
eigval :     1325.20  1329.23  1334.40  1336.10  1338.54  1353.41
eigval :     1355.82  1360.88  1364.72  1384.58  1390.30  1392.51
eigval :     1395.36  1397.15  1404.18  1407.07  1410.25  1410.76
eigval :     1419.89  1422.93  1425.68  1427.62  1429.53  1433.11
eigval :     1445.45  1447.45  1455.30  1460.82  1467.34  1483.10
eigval :     1484.69  1488.65  1489.21  1489.76  1490.26  1494.17
eigval :     1499.42  1503.10  1511.69  1515.60  1519.73  1536.80
eigval :     1539.35  1542.28  1546.31  1553.25  1562.85  1564.99
eigval :     1569.64  1570.20  1581.90  1584.34  1586.75  1587.19
eigval :     1589.49  1596.04  1608.29  3023.64  3024.13  3027.80
eigval :     3028.20  3032.45  3033.95  3039.63  3046.87  3050.44
eigval :     3074.88  3077.61  3078.00  3079.36  3080.41  3080.59
eigval :     3081.45  3083.68  3084.03  3084.21  3087.55  3088.75
eigval :     3088.86  3089.53  3090.08  3090.20  3091.82  3094.08
eigval :     3095.64  3097.39  3097.54  3099.67  3099.80  3100.75
eigval :     3100.98  3101.41  3103.45  3105.03  3105.38  3105.79
eigval :     3111.15  3111.71  3115.51  3123.38  3126.07  3129.97

   temp. (K)  partition function   enthalpy   heat capacity  entropy
                                   cal/mol     cal/K/mol   cal/K/mol   J/K/mol
 298.15  VIB  0.104E+26            33362.847    210.468    206.401
         ROT  0.171E+09              888.752      2.981     40.657
         INT  0.179E+34            34251.599    213.449    247.058
         TR   0.254E+29             1481.254      4.968     46.193
         TOT                       35732.8534   218.4167   293.2513  1226.9633

       T/K    H(0)-H(T)+PV         H(T)/Eh          T*S/Eh         G(T)/Eh
   ------------------------------------------------------------------------
    298.15    0.569439E-01    0.921160E+00    0.139333E+00    0.781827E+00
   ------------------------------------------------------------------------

         :::::::::::::::::::::::::::::::::::::::::::::::::::::
         ::                  THERMODYNAMIC                  ::
         :::::::::::::::::::::::::::::::::::::::::::::::::::::
         :: total free energy        -173.004677442792 Eh   ::
         ::.................................................::
         :: total energy             -173.786504213327 Eh   ::
         :: zero point energy           0.864215984276 Eh   ::
         :: G(RRHO) w/o ZPVE           -0.082389213741 Eh   ::
         :: G(RRHO) contrib.            0.781826770535 Eh   ::
         :::::::::::::::::::::::::::::::::::::::::::::::::::::

           -------------------------------------------------
          | TOTAL ENERGY             -173.786504213327 Eh   |
          | TOTAL ENTHALPY           -172.865344302496 Eh   |
          | TOTAL FREE ENERGY        -173.004677442792 Eh   |
          | GRADIENT NORM               0.000040520273 Eh/α |
          | HOMO-LUMO GAP               0.565039412518 eV   |
           -------------------------------------------------

 * finished run on 2025/09/07 at 02:40:20.504
