   * xtb version 6.7.1 (edcfbbe) compiled by 'albert@albert-system' on 2024-07-22

   ID    Z sym.   atoms
    1    6 C      1-8, 10-18, 22-29, 31-50, 52-67
    2    7 N      9, 30, 51
    3   16 S      19
    4    8 O      20, 21
    5    1 H      68-112

          program call               : xtb data2507/toluene/PSBC/PSBC.xyz --gfn 2 --gbsa toluene --ohess vtight --parallel 40 --molden --ceasefiles --namespace data2507/toluene/PSBC/PSBC_toluene_S0_preOpt
      * Solvation model:               GBSA
        Solvent                        toluene
        Solvent mass                       9.2140E+01 g/mol
          :  Hamiltonian                  GFN2-xTB          :
 * total energy  :  -173.8451025 Eh     change       -0.2264954E-08 Eh
 * total energy  :  -173.8627011 Eh     change       -0.1759856E-01 Eh
 * total energy  :  -173.8672532 Eh     change       -0.4552096E-02 Eh
 * total energy  :  -173.8684954 Eh     change       -0.1242221E-02 Eh
 * total energy  :  -173.8693469 Eh     change       -0.8515690E-03 Eh
 * total energy  :  -173.8698082 Eh     change       -0.4612755E-03 Eh
 * total energy  :  -173.8702254 Eh     change       -0.4171520E-03 Eh
 * total energy  :  -173.8706292 Eh     change       -0.4038461E-03 Eh
 * total energy  :  -173.8709661 Eh     change       -0.3369048E-03 Eh
 * total energy  :  -173.8712075 Eh     change       -0.2413431E-03 Eh
 * total energy  :  -173.8739673 Eh     change       -0.1305366E-05 Eh
 * total energy  :  -173.8739686 Eh     change       -0.1353198E-05 Eh
 * total energy  :  -173.8739699 Eh     change       -0.1295089E-05 Eh
 * total energy  :  -173.8739711 Eh     change       -0.1175962E-05 Eh
 * total energy  :  -173.8739723 Eh     change       -0.1224750E-05 Eh
 * total energy  :  -173.8739735 Eh     change       -0.1188573E-05 Eh
 * total energy  :  -173.8739747 Eh     change       -0.1116690E-05 Eh
 * total energy  :  -173.8739756 Eh     change       -0.9630338E-06 Eh
 * total energy  :  -173.8739756 Eh     change       -0.1487984E-07 Eh
   *** GEOMETRY OPTIMIZATION CONVERGED AFTER 94 ITERATIONS ***

 final structure:
================
112
 xtb: 6.7.1 (edcfbbe)
C           -2.86032205220425        5.27469912618536        0.03909370372162
C           -3.07129806852986        4.26131904033800        1.16811916039423
C           -3.60399387209895        5.01703027332080        2.39486119640087
C           -1.71601966253545        3.61840137384535        1.49840063792795
C           -4.05690457691076        3.16507692168816        0.79522649123873
C           -4.66576889322571        3.08969656693674       -0.45336095562028
C           -5.55859596362362        2.07796295372615       -0.75898927507987
C           -5.86925802754524        1.11329704834677        0.19100904536509
N           -6.76887171898159        0.06819493380164       -0.11856164819592
C           -6.43598698659193       -1.26060249980575       -0.24666567046575
C           -5.10338890048627       -1.82217916345207       -0.10117620326691
C           -3.93385780338052       -1.14255593947146       -0.43975506962177
C           -2.70398521303958       -1.75522844284131       -0.29990420617761
C           -2.60082612744674       -3.05829199427632        0.18276218356660
C           -1.29457441692306       -3.71817550209604        0.32450376604912
C           -0.31751596005764       -3.57966986217244       -0.66311797952376
C            0.89402815332807       -4.23625479830501       -0.55061618914084
C            1.13499172273510       -5.02752387242152        0.55728378193705
S            2.68709771574558       -5.92323827534817        0.66357104981728
O            2.80203492245042       -6.49336113325907        1.99072051596855
O            2.75135628819379       -6.85185913634234       -0.44791248853832
C            3.97007028954925       -4.68913524832763        0.44853102874896
C            4.66333978032520       -4.61694388573235       -0.74466522088284
C            5.65053400954470       -3.66116867704771       -0.89895120468578
C            5.94626178731881       -2.77363226012275        0.13686787336146
C            7.00917541248889       -1.77008886807350       -0.02210407407297
C            8.20177150496282       -2.09650342552266       -0.66664643213995
C            9.20566433942407       -1.16099050269147       -0.81624112600283
C            9.04006300979818        0.12974333662631       -0.31965265174772
N           10.05945968227854        1.08010930152709       -0.46721455717395
C            9.90916177618062        2.35625886478536       -0.97467408276230
C            8.77793392731632        2.97769457530825       -1.48524723250220
C            8.90932090080800        4.26864200788471       -1.96084342945962
C           10.13555186190536        4.93040122490957       -1.94134867181697
C           11.26965420667305        4.30856819840721       -1.45764714762385
C           11.16282629287694        3.01074932736326       -0.97376406152187
C           12.11027629461936        2.07722547656581       -0.43086490127008
C           13.47222446000506        2.14326957155305       -0.16516183865609
C           14.09104233261383        1.04477921568903        0.39789455717101
C           13.36626010846349       -0.10414630586555        0.70897218772996
C           12.01095588111142       -0.19382640934718        0.45396249063760
C           11.38811638675560        0.89780558959496       -0.13513463172962
C            7.85204904026249        0.46478909728001        0.32551176266093
C            6.85139264182955       -0.47529392743676        0.47033722550580
C            5.22587250444076       -2.86161608859959        1.32993555644895
C            4.23908061808218       -3.81689181383049        1.48697308918923
C            0.19231897652556       -5.16348827861098        1.55770766497208
C           -1.02224003162063       -4.51283341003380        1.43884013209834
C           -3.77326202733699       -3.74064220860836        0.50954212543307
C           -5.00274270543466       -3.13627282484708        0.36319529129490
N           -7.48149889685881       -2.00526375719394       -0.52587011869574
C           -8.53929893430147       -1.15677812490489       -0.59098098227997
C           -9.89271626214810       -1.47220227681477       -0.89866793660622
C          -10.28331820216851       -2.78217734518423       -1.19758024872236
C          -11.58868046259996       -3.06215430421633       -1.51728422577746
C          -12.52250014242463       -2.02788999360418       -1.54546632299625
C          -12.15068761544043       -0.73713546068858       -1.24860327721967
C          -10.82778796389394       -0.41178629565545       -0.90980120028686
C          -10.40949592926415        0.93706959752350       -0.56575372146523
C          -11.32651263236962        1.99664578794737       -0.50477541405063
C          -10.94901767227410        3.27022678721754       -0.14932419582671
C           -9.62389037233521        3.53898802830479        0.17886042044977
C           -8.69323571679735        2.53040773325407        0.12765301457933
C           -9.05233413957545        1.22965826792072       -0.25492363317889
C           -8.12747011480780        0.14880882925979       -0.32534288521594
C           -5.26790400397419        1.16752779317876        1.44163561840135
C           -4.37556790802670        2.18147060068122        1.72997478310369
H           -2.44976871658125        4.79695013708004       -0.84747461446277
H           -3.79230275502001        5.77177085777313       -0.22063913552696
H           -2.15467850990444        6.03602677386828        0.36516804377510
H           -3.69915058760123        4.36283518071138        3.25692663731414
H           -2.92599084801520        5.82644448951714        2.65658445966570
H           -4.58206595939194        5.44340850324735        2.18005560192465
H           -1.79709677108925        2.92706944142534        2.33256869282584
H           -0.99340728439449        4.38777871722906        1.76152558809621
H           -1.33909346265073        3.07090797714946        0.63674547900713
H           -4.45341512563200        3.82120881066463       -1.21494725893198
H           -6.02360126986124        2.03503690795851       -1.73378179005393
H           -3.98011008106985       -0.13951448818815       -0.83384230320534
H           -1.80880341180927       -1.20796982546249       -0.55441432125797
H           -0.52169552663495       -2.97769713559515       -1.53520621124790
H            1.64768613729199       -4.15355130064750       -1.31817339085655
H            4.42423846599372       -5.32043540759159       -1.52748941424075
H            6.18638909245579       -3.59255717703869       -1.83325747449607
H            8.35069952794531       -3.09829222317247       -1.04035515809715
H           10.11973332191561       -1.42089522350974       -1.32884192046606
H            7.82692015716671        2.46833598180575       -1.52187755361607
H            8.04263829948425        4.77482006365507       -2.36071113938172
H           10.19722884587629        5.94016421827891       -2.32019561207454
H           12.22311966499007        4.81555218233425       -1.45822211585574
H           14.03116250896940        3.03924247977687       -0.39109280658319
H           15.14986259396826        1.07495004868691        0.60996948598603
H           13.87459192384862       -0.94199534490649        1.16389676772289
H           11.45635375778061       -1.08221462085155        0.71601694378988
H            7.72523882810765        1.46044807335300        0.72345485365244
H            5.92951461501999       -0.19790998251472        0.95862654319114
H            5.45866914653444       -2.19416136083809        2.14534417719104
H            3.68666007263592       -3.91203608306020        2.40883612801346
H            0.42603391149435       -5.78341717358700        2.40963378595725
H           -1.76102717489803       -4.61037243210672        2.21966171035500
H           -3.71769027435891       -4.76182953538578        0.85559794243733
H           -5.91140571354650       -3.66763372171940        0.60056110536684
H           -9.52755746082173       -3.55258911537930       -1.17270448627909
H          -11.89243618421705       -4.07233552484410       -1.74996024989178
H          -13.55008238865137       -2.24126287995976       -1.80304956165912
H          -12.90760644015115        0.03005890478047       -1.28664853456555
H          -12.36483806751032        1.82022208328067       -0.73434083828880
H          -11.68502058002113        4.06018090291140       -0.11460123044947
H           -9.32795971459158        4.53422567406527        0.47640795757730
H           -7.67060778385577        2.73884988584835        0.39730565980334
H           -5.50286822221940        0.41443953884815        2.17969389891455
H           -3.92501440839627        2.19902358396464        2.70989341709792

          :  Hamiltonian                  GFN2-xTB          :
         :: gradient norm              0.000080056726 Eh/a0 ::
         :: HOMO-LUMO gap              2.367387423208 eV    ::
         :: SCC energy              -176.970128271514 Eh    ::
         :: -> dispersion             -0.155604027028 Eh    ::
         :: -> Gsolv                  -0.082740982488 Eh    ::
         :: repulsion energy           3.096152643365 Eh    ::

    * Orbital Energies and Occupations

         #    Occupation            Energy/Eh            Energy/eV
      -------------------------------------------------------------
         1        2.0000           -0.7734759             -21.0474
       ...           ...                  ...                  ...
       149        2.0000           -0.4144754             -11.2784
       150        2.0000           -0.4134611             -11.2508
       151        2.0000           -0.4070053             -11.0752
       152        2.0000           -0.4060401             -11.0489
       153        2.0000           -0.4054633             -11.0332
       154        2.0000           -0.4034461             -10.9783
       155        2.0000           -0.4005344             -10.8991
       156        2.0000           -0.3970909             -10.8054
       157        2.0000           -0.3829650             -10.4210
       158        2.0000           -0.3791857             -10.3182
       159        2.0000           -0.3789248             -10.3111
       160        2.0000           -0.3652460              -9.9389
       161        2.0000           -0.3629214              -9.8756 (HOMO)
       162                         -0.2759215              -7.5082 (LUMO)
       163                         -0.2691832              -7.3248
       164                         -0.2533341              -6.8936
       165                         -0.2505715              -6.8184
       166                         -0.2454315              -6.6785
       167                         -0.2449004              -6.6641
       168                         -0.2443342              -6.6487
       169                         -0.2380723              -6.4783
       170                         -0.2359313              -6.4200
       171                         -0.2346305              -6.3846
       172                         -0.2341290              -6.3710
       ...                                ...                  ...
       318                          1.1646534              31.6918
      -------------------------------------------------------------
                  HL-Gap            0.0869999 Eh            2.3674 eV

     #   Z          covCN         q      C6AA      α(0)
     1   6 C        3.761    -0.110    22.654     6.785
     2   6 C        3.902     0.027    20.068     6.368
     3   6 C        3.761    -0.107    22.596     6.776
     4   6 C        3.761    -0.108    22.607     6.778
     5   6 C        2.972     0.014    27.703     8.634
     6   6 C        2.925    -0.037    28.929     8.820
     7   6 C        2.920    -0.040    29.006     8.832
     8   6 C        2.912     0.060    26.649     8.465
     9   7 N        2.839    -0.053    22.254     7.006
    10   6 C        3.190     0.134    24.630     8.095
    11   6 C        2.973    -0.000    28.032     8.685
    12   6 C        2.920    -0.035    28.882     8.813
    13   6 C        2.923    -0.033    28.816     8.803
    14   6 C        2.976     0.013    27.719     8.636
    15   6 C        2.976     0.023    27.485     8.600
    16   6 C        2.926    -0.028    28.691     8.784
    17   6 C        2.956    -0.028    28.703     8.787
    18   6 C        2.971    -0.073    29.819     8.957
    19  16 S        3.817     0.932   108.621    17.541
    20   8 O        0.860    -0.581    25.656     6.791
    21   8 O        0.860    -0.584    25.732     6.801
    22   6 C        2.972    -0.073    29.821     8.957
    23   6 C        2.952    -0.025    28.619     8.774
    24   6 C        2.926    -0.029    28.715     8.788
    25   6 C        2.976     0.024    27.475     8.598
    26   6 C        2.976     0.009    27.806     8.650
    27   6 C        2.924    -0.031    28.782     8.798
    28   6 C        2.920    -0.042    29.036     8.836
    29   6 C        2.912     0.065    26.546     8.449
    30   7 N        2.801    -0.043    22.078     6.979
    31   6 C        3.074     0.047    26.874     8.500
    32   6 C        2.910    -0.052    29.294     8.875
    33   6 C        2.924    -0.035    28.871     8.812
    34   6 C        2.919    -0.043    29.056     8.839
    35   6 C        2.912    -0.035    28.865     8.810
    36   6 C        3.067    -0.018    28.394     8.738
    37   6 C        3.067    -0.018    28.395     8.738
    38   6 C        2.912    -0.035    28.866     8.810
    39   6 C        2.919    -0.042    29.054     8.839
    40   6 C        2.924    -0.035    28.870     8.811
    41   6 C        2.910    -0.052    29.291     8.874
    42   6 C        3.074     0.047    26.875     8.500
    43   6 C        2.920    -0.042    29.041     8.837
    44   6 C        2.924    -0.032    28.788     8.799
    45   6 C        2.926    -0.028    28.701     8.786
    46   6 C        2.957    -0.026    28.662     8.781
    47   6 C        2.952    -0.023    28.585     8.769
    48   6 C        2.926    -0.028    28.697     8.785
    49   6 C        2.923    -0.031    28.782     8.798
    50   6 C        2.927    -0.028    28.709     8.787
    51   7 N        1.896    -0.319    29.114     7.999
    52   6 C        3.203     0.060    26.102     8.323
    53   6 C        2.985    -0.003    28.100     8.695
    54   6 C        2.921    -0.034    28.837     8.806
    55   6 C        2.917    -0.032    28.797     8.800
    56   6 C        2.917    -0.034    28.856     8.809
    57   6 C        2.921    -0.037    28.911     8.817
    58   6 C        2.979    -0.005    28.141     8.702
    59   6 C        2.979    -0.002    28.063     8.690
    60   6 C        2.922    -0.035    28.878     8.812
    61   6 C        2.916    -0.034    28.852     8.808
    62   6 C        2.917    -0.033    28.813     8.802
    63   6 C        2.919    -0.041    29.028     8.835
    64   6 C        2.977    -0.005    28.144     8.702
    65   6 C        3.075     0.023    27.420     8.585
    66   6 C        2.919    -0.041    29.021     8.834
    67   6 C        2.928    -0.032    28.794     8.800
    68   1 H        0.925     0.039     2.464     2.455
    69   1 H        0.925     0.038     2.476     2.460
    70   1 H        0.925     0.041     2.430     2.438
    71   1 H        0.925     0.039     2.462     2.454
    72   1 H        0.925     0.043     2.412     2.429
    73   1 H        0.925     0.034     2.525     2.485
    74   1 H        0.925     0.039     2.457     2.451
    75   1 H        0.925     0.043     2.405     2.425
    76   1 H        0.925     0.036     2.500     2.473
    77   1 H        0.926     0.053     2.284     2.363
    78   1 H        0.926     0.037     2.484     2.465
    79   1 H        0.926     0.037     2.491     2.468
    80   1 H        0.926     0.047     2.353     2.399
    81   1 H        0.926     0.063     2.159     2.298
    82   1 H        0.926     0.051     2.310     2.377
    83   1 H        0.926     0.057     2.238     2.339
    84   1 H        0.926     0.063     2.168     2.303
    85   1 H        0.926     0.047     2.359     2.402
    86   1 H        0.926     0.047     2.362     2.404
    87   1 H        0.926     0.032     2.555     2.499
    88   1 H        0.926     0.031     2.576     2.510
    89   1 H        0.926     0.028     2.621     2.532
    90   1 H        0.926     0.030     2.590     2.517
    91   1 H        0.926     0.030     2.587     2.515
    92   1 H        0.926     0.027     2.624     2.533
    93   1 H        0.926     0.030     2.589     2.516
    94   1 H        0.926     0.031     2.570     2.507
    95   1 H        0.926     0.048     2.344     2.394
    96   1 H        0.926     0.050     2.325     2.385
    97   1 H        0.926     0.064     2.156     2.296
    98   1 H        0.926     0.053     2.288     2.365
    99   1 H        0.926     0.056     2.246     2.343
   100   1 H        0.926     0.062     2.175     2.306
   101   1 H        0.926     0.046     2.370     2.408
   102   1 H        0.926     0.051     2.309     2.376
   103   1 H        0.926     0.043     2.407     2.426
   104   1 H        0.926     0.032     2.558     2.501
   105   1 H        0.926     0.031     2.565     2.505
   106   1 H        0.926     0.034     2.527     2.486
   107   1 H        0.926     0.036     2.498     2.472
   108   1 H        0.926     0.032     2.555     2.500
   109   1 H        0.926     0.032     2.562     2.503
   110   1 H        0.926     0.031     2.570     2.507
   111   1 H        0.926     0.034     2.523     2.484
   112   1 H        0.926     0.046     2.369     2.407

molecular dipole:
                 x           y           z       tot (Debye)
 q only:        0.477       4.173       0.013
   full:        0.417       4.221       0.090      10.782

 projected vibrational frequencies (cm⁻¹)
eigval :       -0.00    -0.00     0.00     0.00     0.00     0.00
eigval :       -5.81     2.84     4.62    10.45    16.73    19.83
eigval :       20.75    26.22    27.50    30.36    32.59    39.19
eigval :       49.26    54.58    63.73    67.33    69.64    72.13
eigval :       84.47    90.56    92.01   100.34   103.32   105.63
eigval :      117.31   124.41   129.28   133.26   143.14   144.33
eigval :      154.53   159.54   176.13   185.35   202.34   206.66
eigval :      212.31   221.83   227.32   232.71   237.50   253.01
eigval :      263.47   270.21   270.86   277.87   296.67   301.73
eigval :      309.76   314.23   319.91   334.07   355.13   358.51
eigval :      364.02   365.27   365.58   373.48   373.97   381.68
eigval :      383.35   390.62   394.07   395.40   400.07   401.98
eigval :      413.04   419.03   421.94   430.77   431.68   434.15
eigval :      448.16   450.73   451.49   464.89   479.62   486.74
eigval :      503.62   504.64   516.70   517.74   526.74   530.30
eigval :      535.08   535.87   541.17   541.74   545.95   561.92
eigval :      582.17   584.77   592.05   592.85   599.97   602.71
eigval :      602.95   609.05   616.67   635.46   644.59   654.34
eigval :      660.91   668.98   671.26   674.17   676.70   681.63
eigval :      685.73   696.70   700.34   704.08   707.53   709.95
eigval :      720.87   736.74   755.10   755.98   763.85   765.53
eigval :      769.91   779.50   781.37   781.50   798.91   802.09
eigval :      804.56   824.04   830.63   834.00   861.69   866.25
eigval :      866.78   870.01   872.73   873.18   873.71   875.84
eigval :      881.11   882.39   897.14   902.68   903.59   905.75
eigval :      910.90   911.96   914.68   914.93   917.72   921.15
eigval :      922.11   923.52   924.48   925.12   925.87   926.93
eigval :      927.55   928.51   929.58   935.10   939.56   954.16
eigval :      960.21   961.28   963.84   976.27   981.36  1000.22
eigval :     1011.01  1012.65  1013.91  1031.19  1033.85  1035.39
eigval :     1065.21  1069.40  1071.20  1072.32  1073.07  1074.64
eigval :     1084.87  1106.87  1115.51  1116.27  1118.04  1119.76
eigval :     1121.93  1133.71  1136.93  1139.11  1139.81  1145.03
eigval :     1150.95  1151.03  1172.68  1174.84  1177.50  1179.66
eigval :     1180.02  1180.77  1183.56  1183.79  1184.47  1197.79
eigval :     1201.00  1203.01  1213.05  1225.51  1231.44  1235.05
eigval :     1241.48  1251.00  1251.76  1253.08  1255.90  1266.35
eigval :     1266.55  1273.28  1281.26  1283.36  1286.41  1286.63
eigval :     1299.66  1300.39  1309.10  1311.49  1313.39  1319.59
eigval :     1320.04  1320.73  1331.24  1337.27  1347.72  1355.33
eigval :     1359.71  1364.46  1375.19  1381.95  1382.76  1396.91
eigval :     1403.02  1404.33  1405.94  1408.06  1409.91  1419.26
eigval :     1426.35  1427.04  1427.46  1430.66  1433.88  1447.68
eigval :     1455.62  1473.51  1475.61  1486.01  1486.34  1487.40
eigval :     1489.10  1497.74  1497.83  1502.59  1510.50  1510.86
eigval :     1512.91  1515.09  1536.58  1556.27  1557.35  1561.77
eigval :     1566.81  1568.24  1571.35  1571.47  1573.00  1578.04
eigval :     1578.13  1586.97  1592.77  1593.93  1594.28  1596.92
eigval :     1597.65  1603.08  1612.46  3022.86  3023.24  3026.88
eigval :     3027.04  3031.23  3033.01  3038.82  3046.26  3049.71
eigval :     3069.04  3071.32  3071.80  3072.72  3076.34  3077.42
eigval :     3077.77  3079.96  3081.25  3083.37  3083.84  3084.58
eigval :     3084.85  3085.09  3086.40  3086.63  3090.65  3090.73
eigval :     3091.22  3091.33  3092.51  3093.52  3095.64  3095.74
eigval :     3097.95  3098.16  3098.85  3100.02  3100.24  3101.13
eigval :     3102.42  3102.77  3106.24  3109.20  3118.74  3121.62

   temp. (K)  partition function   enthalpy   heat capacity  entropy
                                   cal/mol     cal/K/mol   cal/K/mol   J/K/mol
 298.15  VIB  0.518E+29            33534.242    206.141    213.398
         ROT  0.451E+09              888.752      2.981     42.583
         INT  0.234E+38            34422.995    209.122    255.981
         TR   0.254E+29             1481.254      4.968     46.193
         TOT                       35904.2487   214.0903   302.1742  1264.2968

       T/K    H(0)-H(T)+PV         H(T)/Eh          T*S/Eh         G(T)/Eh
   ------------------------------------------------------------------------
    298.15    0.572171E-01    0.924288E+00    0.143573E+00    0.780715E+00
   ------------------------------------------------------------------------

         :::::::::::::::::::::::::::::::::::::::::::::::::::::
         ::                  THERMODYNAMIC                  ::
         :::::::::::::::::::::::::::::::::::::::::::::::::::::
         :: total free energy        -173.093260597405 Eh   ::
         ::.................................................::
         :: total energy             -173.873975622571 Eh   ::
         :: zero point energy           0.867070667235 Eh   ::
         :: G(RRHO) w/o ZPVE           -0.086355642069 Eh   ::
         :: G(RRHO) contrib.            0.780715025166 Eh   ::
         :::::::::::::::::::::::::::::::::::::::::::::::::::::

           -------------------------------------------------
          | TOTAL ENERGY             -173.873975622571 Eh   |
          | TOTAL ENTHALPY           -172.949687893007 Eh   |
          | TOTAL FREE ENERGY        -173.093260597405 Eh   |
          | GRADIENT NORM               0.000080010477 Eh/α |
          | HOMO-LUMO GAP               2.367388788369 eV   |
           -------------------------------------------------

 * finished run on 2025/09/07 at 02:28:13.864
