   * xtb version 6.7.1 (edcfbbe) compiled by 'albert@albert-system' on 2024-07-22

   ID    Z sym.   atoms
    1    6 C      1-8, 10-18, 22-29, 31-50, 52-67
    2    7 N      9, 30, 51
    3   16 S      19
    4    8 O      20, 21
    5    1 H      68-112

          program call               : xtb data2507/toluene/PSBC/PSBC_toluene_T1_crest.xyz --gfn 2 --uhf 2 --gbsa toluene --ohess vtight --parallel 40 --molden --ceasefiles --namespace data2507/toluene/PSBC/PSBC_toluene_T1_finalOpt
      * Solvation model:               GBSA
        Solvent                        toluene
        Solvent mass                       9.2140E+01 g/mol
          :  Hamiltonian                  GFN2-xTB          :
 * total energy  :  -173.7850512 Eh     change       -0.1919972E-08 Eh
 * total energy  :  -173.7852974 Eh     change       -0.2462569E-03 Eh
 * total energy  :  -173.7855233 Eh     change       -0.2259019E-03 Eh
 * total energy  :  -173.7855954 Eh     change       -0.7203797E-04 Eh
 * total energy  :  -173.7856912 Eh     change       -0.9582738E-04 Eh
 * total energy  :  -173.7857715 Eh     change       -0.8024554E-04 Eh
 * total energy  :  -173.7858198 Eh     change       -0.4830670E-04 Eh
 * total energy  :  -173.7858535 Eh     change       -0.3373519E-04 Eh
 * total energy  :  -173.7858867 Eh     change       -0.3319905E-04 Eh
 * total energy  :  -173.7859035 Eh     change       -0.1679168E-04 Eh
 * total energy  :  -173.7861480 Eh     change       -0.2177970E-05 Eh
 * total energy  :  -173.7861507 Eh     change       -0.2658078E-05 Eh
 * total energy  :  -173.7861535 Eh     change       -0.2797092E-05 Eh
 * total energy  :  -173.7861559 Eh     change       -0.2467639E-05 Eh
 * total energy  :  -173.7861579 Eh     change       -0.2000708E-05 Eh
 * total energy  :  -173.7861595 Eh     change       -0.1533177E-05 Eh
 * total energy  :  -173.7861598 Eh     change       -0.3159422E-06 Eh
 * total energy  :  -173.7861607 Eh     change       -0.9259379E-06 Eh
 * total energy  :  -173.7861608 Eh     change       -0.8296777E-07 Eh
   *** GEOMETRY OPTIMIZATION CONVERGED AFTER 46 ITERATIONS ***

 final structure:
================
112
 xtb: 6.7.1 (edcfbbe)
C           -0.90029465629593       -6.89330133180543        1.51280314124610
C           -0.26199433752789       -5.87209731709565        0.56641502363479
C           -0.61155448119699       -6.27086388734169       -0.87506543618537
C            1.26064845209094       -5.91829815186207        0.76601938063747
C           -0.74601399988067       -4.45339247849543        0.82069914968060
C           -1.65751983717698       -4.13413745145997        1.82232184197280
C           -2.06372200558819       -2.82933723722525        2.03871294662919
C           -1.56456795677244       -1.80490594426506        1.24374903609994
N           -1.93937461332057       -0.46433271284898        1.46796664521903
C           -1.05830988907273        0.55512338125423        1.86898600086519
C            0.28777467814046        0.41836166939791        2.23644768962938
C            1.06824907166439        1.61007672883777        2.36772478304401
C            2.41727110554104        1.56457405360573        2.50200024306860
C            3.12835408093557        0.32561297726712        2.51186133760130
C            4.53218000265643        0.26816968807592        2.28139783537917
C            5.14427463274137       -0.92336754662188        1.80344484648815
C            6.36755053544165       -0.89324992300319        1.19193505836336
C            7.07163359167343        0.30925038480971        1.08106953664156
S            8.09012064304196        0.52992788497820       -0.35551986357690
O            8.89190830828782        1.73366735409787       -0.25618067781705
O            8.78348418877126       -0.69044655677879       -0.71944904236828
C            6.66648855682020        0.78650530226625       -1.41711332285226
C            6.02302858921863       -0.32092686239223       -1.94715808157718
C            4.68983889293326       -0.23540489531111       -2.29837517673269
C            3.97644228272570        0.94516874512495       -2.08278058449667
C            2.51154864941249        0.95907251244722       -2.17933294863105
C            1.81758701917128        0.34037877297592       -3.21808839445720
C            0.43660507898175        0.31625260096878       -3.23087857355164
C           -0.28648332964878        0.88555238040319       -2.18280694295180
N           -1.68675373417788        0.84276783378916       -2.17109888103750
C           -2.47114829512995       -0.25913347579322       -2.45902822717500
C           -2.09939139398073       -1.56771589437599       -2.73552227463434
C           -3.10181972802602       -2.48690233695571       -2.98380505913088
C           -4.44514983394454       -2.12292348118352       -2.95724152270342
C           -4.82344806146821       -0.82829293236881       -2.65588024604255
C           -3.83484902736626        0.10902533034488       -2.39564557711516
C           -3.86652371248982        1.50443142835046       -2.05579641616718
C           -4.89711281316938        2.41874700804860       -1.89308948061453
C           -4.57694884870287        3.73236431863426       -1.61007010450726
C           -3.24896755434766        4.13609488419330       -1.49921919028839
C           -2.20611731632782        3.24354623932369       -1.65760879323015
C           -2.52093571320583        1.91770809185521       -1.92329301634151
C            0.40020218611616        1.50654692490523       -1.14113547776668
C            1.77804736431826        1.55226337377782       -1.15036991476987
C            4.66791783622824        2.08015696064594       -1.64905135616026
C            6.00356605739241        2.00129375502887       -1.31604455836292
C            6.58257368650566        1.45062795568348        1.72258396813861
C            5.35625634828512        1.42675965166018        2.32856136968620
C            2.31973754699943       -0.84478519737139        2.62505099604486
C            0.96799198666509       -0.80730384623140        2.49884484936933
N           -1.68933435283440        1.74234399278885        1.88148511654832
C           -2.95678277032058        1.50427347689171        1.55135129287145
C           -4.03407380985438        2.43349377223208        1.52257534028659
C           -3.82626127678396        3.78100526352985        1.83307293730786
C           -4.88295461959385        4.66047813159314        1.86117603704826
C           -6.16303268860324        4.19250504644056        1.58120100188549
C           -6.37761808185184        2.86711422552157        1.26655463155571
C           -5.32485899390882        1.94403823463390        1.21675903595497
C           -5.51542264014385        0.54411334383227        0.87193607340363
C           -6.77279370159797        0.04128027702527        0.52679007688281
C           -6.96837478499808       -1.28073809731366        0.18691983603210
C           -5.88806084777182       -2.15821401162500        0.14854414925742
C           -4.63475414358789       -1.70685988822805        0.47442332563326
C           -4.41753304858626       -0.37193386665348        0.86839086316212
C           -3.15768134800184        0.12496758267453        1.26877587156677
C           -0.65096047140563       -2.10301765933753        0.23877716395272
C           -0.25515059918236       -3.40950372100220        0.03746536944837
H           -0.65313356804905       -6.67673431339631        2.54963475705861
H           -1.98170637143559       -6.91301933283820        1.39833115404774
H           -0.52124438272170       -7.88632481278273        1.28025428323777
H           -0.27911028537836       -7.28804140691399       -1.07042421694347
H           -1.68808927719789       -6.22538201913854       -1.02720500338401
H           -0.13460412636360       -5.61358772636374       -1.59650125938413
H            1.51821458144311       -5.61006492295939        1.77756783155566
H            1.77422837449149       -5.26221127231713        0.06876928594129
H            1.62584369898062       -6.93136318361733        0.61213585691415
H           -2.06262571182818       -4.90031160907945        2.46182822052281
H           -2.76330312041729       -2.59958086522373        2.82982147599100
H            0.54634571889986        2.55213871134416        2.30460488457888
H            2.96811896587600        2.49061466174247        2.54001353122501
H            4.60121300566789       -1.85379984039829        1.83272229151272
H            6.79458842496372       -1.77750021053983        0.74352298756108
H            6.57245569102092       -1.24558551601457       -2.03525799528054
H            4.17749850819669       -1.11005898915072       -2.66948530050812
H            2.36563220741894       -0.10106913724664       -4.03690912735851
H           -0.09056067763263       -0.13064909972756       -4.06022059101157
H           -1.06352430189533       -1.86649151893443       -2.75620450988622
H           -2.83490011057127       -3.50869918762949       -3.20869592560659
H           -5.19940409047739       -2.86556690903100       -3.16981279218344
H           -5.86455817321422       -0.54704414652128       -2.61958180718175
H           -5.92472519416554        2.10631662096927       -1.99731603326020
H           -5.36307678040830        4.46045152698997       -1.48049661272390
H           -3.02782571337412        5.17240112182110       -1.29205007981745
H           -1.18220894891140        3.57706562868142       -1.59331311723755
H           -0.14917421015660        1.92634980387243       -0.31263426273134
H            2.29695280867314        2.01051167813994       -0.32311050890341
H            4.14234330861981        3.01712558269067       -1.54410620854909
H            6.54234729117257        2.85529666205151       -0.93571614398119
H            7.18116657537449        2.34884563319659        1.69553764102270
H            5.00079639281902        2.31608451670353        2.82411325289460
H            2.79345025736536       -1.79007687984504        2.83979603317753
H            0.40198697952932       -1.71516997068134        2.62811918797905
H           -2.81951374083107        4.09789394938948        2.05710161829171
H           -4.72500333176557        5.70071070007502        2.10304822184868
H           -7.00083178206507        4.87410086146162        1.61035479588262
H           -7.38821284471605        2.55453878875066        1.05915064731041
H           -7.62872211696199        0.69636880369940        0.52071468913255
H           -7.95884741706952       -1.63071885127432       -0.06332180203815
H           -6.03302368717803       -3.18745075687292       -0.14210751515479
H           -3.79635897045456       -2.38051044392094        0.41710991526202
H           -0.24420922380923       -1.30350173005936       -0.36230584676359
H            0.45801081180217       -3.61013328553566       -0.74642546377412

          :  Hamiltonian                  GFN2-xTB          :
         :: gradient norm              0.000131882704 Eh/a0 ::
         :: HOMO-LUMO gap              0.586939723709 eV    ::
         :: SCC energy              -176.867282737706 Eh    ::
         :: -> dispersion             -0.191884416607 Eh    ::
         :: -> Gsolv                  -0.068733518153 Eh    ::
         :: repulsion energy           3.081121843531 Eh    ::

    * Orbital Energies and Occupations

         #    Occupation            Energy/Eh            Energy/eV
      -------------------------------------------------------------
         1        2.0000           -0.7658078             -20.8387
       ...           ...                  ...                  ...
       150        2.0000           -0.4112598             -11.1909
       151        2.0000           -0.4101913             -11.1619
       152        2.0000           -0.4098115             -11.1515
       153        2.0000           -0.4023881             -10.9495
       154        2.0000           -0.4018378             -10.9346
       155        2.0000           -0.3978402             -10.8258
       156        2.0000           -0.3915161             -10.6537
       157        2.0000           -0.3892399             -10.5918
       158        2.0000           -0.3865271             -10.5179
       159        2.0000           -0.3850557             -10.4779
       160        1.9521           -0.3688924             -10.0381
       161        1.0479           -0.3632132              -9.8835
       162        1.0000           -0.2904008              -7.9022 (HOMO)
       163        0.0000           -0.2688310              -7.3153 (LUMO)
       164                         -0.2608248              -7.0974
       165                         -0.2580066              -7.0207
       166                         -0.2500988              -6.8055
       167                         -0.2424020              -6.5961
       168                         -0.2402924              -6.5387
       169                         -0.2373979              -6.4599
       170                         -0.2363266              -6.4308
       171                         -0.2352691              -6.4020
       172                         -0.2288632              -6.2277
       173                         -0.2263732              -6.1599
       ...                                ...                  ...
       318                          1.1744744              31.9591
      -------------------------------------------------------------
                  HL-Gap            0.0215698 Eh            0.5869 eV

     #   Z          covCN         q      C6AA      α(0)
     1   6 C        3.761    -0.110    22.659     6.786
     2   6 C        3.902     0.027    20.064     6.367
     3   6 C        3.761    -0.107    22.598     6.777
     4   6 C        3.761    -0.107    22.596     6.776
     5   6 C        2.972     0.014    27.696     8.632
     6   6 C        2.925    -0.037    28.930     8.821
     7   6 C        2.919    -0.042    29.035     8.836
     8   6 C        2.911     0.059    26.675     8.469
     9   7 N        2.821    -0.060    22.394     7.028
    10   6 C        3.147     0.137    24.780     8.144
    11   6 C        2.969    -0.014    28.360     8.735
    12   6 C        2.921    -0.030    28.754     8.793
    13   6 C        2.915    -0.038    28.939     8.821
    14   6 C        2.970     0.011    27.771     8.644
    15   6 C        2.970     0.006    27.874     8.660
    16   6 C        2.922    -0.036    28.898     8.815
    17   6 C        2.964    -0.036    28.891     8.816
    18   6 C        2.968    -0.098    30.475     9.055
    19  16 S        3.852     0.923   108.877    17.562
    20   8 O        0.860    -0.579    25.618     6.786
    21   8 O        0.860    -0.579    25.609     6.785
    22   6 C        2.969    -0.083    30.083     8.997
    23   6 C        2.957    -0.031    28.768     8.797
    24   6 C        2.925    -0.030    28.760     8.795
    25   6 C        2.978     0.015    27.674     8.629
    26   6 C        2.976     0.012    27.752     8.641
    27   6 C        2.922    -0.032    28.789     8.799
    28   6 C        2.919    -0.043    29.079     8.843
    29   6 C        2.912     0.061    26.623     8.461
    30   7 N        2.801    -0.041    22.026     6.970
    31   6 C        3.071     0.047    26.880     8.501
    32   6 C        2.910    -0.050    29.245     8.868
    33   6 C        2.923    -0.034    28.843     8.807
    34   6 C        2.920    -0.038    28.957     8.824
    35   6 C        2.913    -0.032    28.789     8.798
    36   6 C        3.067    -0.018    28.377     8.735
    37   6 C        3.067    -0.018    28.387     8.736
    38   6 C        2.913    -0.033    28.817     8.803
    39   6 C        2.920    -0.037    28.924     8.819
    40   6 C        2.924    -0.032    28.807     8.802
    41   6 C        2.910    -0.048    29.190     8.859
    42   6 C        3.072     0.048    26.848     8.496
    43   6 C        2.920    -0.044    29.085     8.844
    44   6 C        2.926    -0.032    28.807     8.802
    45   6 C        2.925    -0.031    28.768     8.796
    46   6 C        2.964    -0.031    28.774     8.799
    47   6 C        2.959    -0.034    28.854     8.811
    48   6 C        2.921    -0.036    28.893     8.815
    49   6 C        2.916    -0.037    28.912     8.817
    50   6 C        2.911    -0.038    28.948     8.823
    51   7 N        1.884    -0.318    29.095     7.996
    52   6 C        3.173     0.084    25.761     8.290
    53   6 C        2.984    -0.005    28.135     8.701
    54   6 C        2.923    -0.025    28.629     8.774
    55   6 C        2.916    -0.029    28.731     8.790
    56   6 C        2.918    -0.026    28.656     8.778
    57   6 C        2.922    -0.032    28.803     8.801
    58   6 C        2.978     0.002    27.982     8.677
    59   6 C        2.978     0.003    27.955     8.673
    60   6 C        2.921    -0.031    28.768     8.796
    61   6 C        2.916    -0.028    28.699     8.785
    62   6 C        2.915    -0.028    28.712     8.787
    63   6 C        2.919    -0.033    28.823     8.804
    64   6 C        2.975    -0.007    28.199     8.711
    65   6 C        3.045     0.042    27.008     8.524
    66   6 C        2.919    -0.039    28.978     8.828
    67   6 C        2.927    -0.031    28.777     8.797
    68   1 H        0.925     0.038     2.472     2.459
    69   1 H        0.925     0.039     2.459     2.452
    70   1 H        0.925     0.041     2.430     2.438
    71   1 H        0.925     0.043     2.412     2.429
    72   1 H        0.925     0.036     2.499     2.472
    73   1 H        0.925     0.040     2.455     2.450
    74   1 H        0.925     0.034     2.524     2.485
    75   1 H        0.925     0.039     2.459     2.452
    76   1 H        0.925     0.043     2.411     2.428
    77   1 H        0.926     0.054     2.269     2.356
    78   1 H        0.926     0.039     2.469     2.457
    79   1 H        0.926     0.053     2.285     2.364
    80   1 H        0.926     0.042     2.427     2.436
    81   1 H        0.926     0.052     2.292     2.367
    82   1 H        0.926     0.040     2.453     2.449
    83   1 H        0.926     0.048     2.340     2.392
    84   1 H        0.926     0.058     2.228     2.334
    85   1 H        0.926     0.049     2.327     2.386
    86   1 H        0.926     0.050     2.323     2.384
    87   1 H        0.926     0.038     2.474     2.460
    88   1 H        0.926     0.038     2.476     2.461
    89   1 H        0.926     0.035     2.519     2.482
    90   1 H        0.926     0.033     2.541     2.493
    91   1 H        0.926     0.035     2.518     2.481
    92   1 H        0.926     0.034     2.534     2.489
    93   1 H        0.926     0.037     2.491     2.468
    94   1 H        0.926     0.037     2.491     2.468
    95   1 H        0.926     0.047     2.358     2.401
    96   1 H        0.926     0.045     2.382     2.413
    97   1 H        0.926     0.057     2.233     2.337
    98   1 H        0.926     0.047     2.361     2.403
    99   1 H        0.926     0.040     2.446     2.446
   100   1 H        0.926     0.051     2.303     2.373
   101   1 H        0.926     0.039     2.458     2.452
   102   1 H        0.926     0.032     2.556     2.500
   103   1 H        0.926     0.050     2.317     2.380
   104   1 H        0.926     0.041     2.431     2.438
   105   1 H        0.926     0.042     2.420     2.433
   106   1 H        0.926     0.044     2.395     2.420
   107   1 H        0.926     0.045     2.387     2.416
   108   1 H        0.926     0.041     2.432     2.439
   109   1 H        0.926     0.039     2.456     2.451
   110   1 H        0.926     0.036     2.504     2.475
   111   1 H        0.926     0.032     2.555     2.500
   112   1 H        0.926     0.046     2.370     2.407

molecular dipole:
                 x           y           z       tot (Debye)
 q only:       -7.174      -1.363      -0.119
   full:       -7.009      -1.598      -0.193      18.278

 projected vibrational frequencies (cm⁻¹)
eigval :       -0.00    -0.00    -0.00    -0.00     0.00     0.00
eigval :        9.61    11.72    12.99    21.86    24.40    31.64
eigval :       33.91    36.19    44.39    48.53    55.38    56.92
eigval :       65.11    72.69    72.74    81.02    84.24    91.00
eigval :       94.43   102.74   108.63   113.67   115.57   117.99
eigval :      127.84   131.74   135.27   145.32   148.37   158.96
eigval :      163.37   176.44   178.87   183.27   200.71   214.19
eigval :      217.71   220.12   233.67   238.75   243.76   253.82
eigval :      259.93   266.11   275.14   277.63   288.29   301.64
eigval :      307.77   311.46   317.26   330.24   343.22   354.73
eigval :      360.80   364.11   366.24   371.12   378.51   383.06
eigval :      388.06   390.04   392.08   392.53   396.18   401.91
eigval :      412.74   414.47   418.15   422.58   425.64   433.66
eigval :      435.75   441.31   448.81   453.38   461.36   472.54
eigval :      486.99   498.99   502.02   504.92   515.89   520.89
eigval :      525.20   536.16   540.06   541.49   546.70   559.65
eigval :      580.81   581.87   582.34   591.23   594.55   596.85
eigval :      597.91   600.92   615.53   622.22   627.16   629.93
eigval :      648.20   657.46   664.30   667.97   671.85   673.73
eigval :      676.34   678.63   693.86   694.86   705.52   710.31
eigval :      718.03   731.19   746.46   753.76   755.19   758.10
eigval :      768.87   772.81   775.00   780.61   785.24   789.96
eigval :      801.83   803.84   805.03   821.12   822.96   833.87
eigval :      855.03   862.11   865.48   868.40   868.87   874.80
eigval :      880.28   883.94   896.77   899.33   901.84   903.22
eigval :      904.72   905.19   906.07   909.67   912.29   913.59
eigval :      915.38   918.05   919.77   921.70   922.95   923.28
eigval :      924.52   926.44   927.85   932.95   937.56   945.53
eigval :      954.16   959.53   959.62   961.10   963.91   974.32
eigval :      997.94  1008.31  1010.55  1011.11  1023.05  1032.47
eigval :     1034.26  1055.03  1065.52  1070.47  1071.25  1074.68
eigval :     1083.00  1086.31  1099.78  1102.39  1105.31  1116.43
eigval :     1116.59  1120.49  1135.22  1137.34  1142.11  1142.64
eigval :     1146.46  1149.45  1158.22  1173.79  1176.29  1177.44
eigval :     1178.23  1181.34  1182.13  1182.31  1184.28  1193.44
eigval :     1200.94  1205.17  1213.78  1225.26  1231.43  1232.19
eigval :     1236.67  1240.54  1244.32  1249.19  1251.23  1251.97
eigval :     1262.74  1263.42  1273.94  1282.89  1283.75  1285.56
eigval :     1291.46  1292.96  1297.91  1301.23  1312.25  1313.56
eigval :     1323.59  1329.71  1333.20  1335.05  1335.96  1354.13
eigval :     1355.99  1359.84  1362.01  1383.36  1389.01  1392.27
eigval :     1393.36  1397.15  1402.37  1407.45  1408.12  1411.73
eigval :     1420.83  1422.82  1426.47  1426.74  1427.15  1434.98
eigval :     1445.25  1446.33  1457.29  1465.67  1467.89  1480.02
eigval :     1484.81  1487.78  1489.25  1490.53  1491.36  1495.38
eigval :     1498.95  1502.57  1510.98  1515.78  1521.05  1539.08
eigval :     1542.89  1546.94  1549.10  1557.83  1562.15  1562.58
eigval :     1570.33  1571.34  1581.50  1584.01  1586.29  1588.83
eigval :     1590.06  1592.91  1608.73  3023.31  3023.47  3027.09
eigval :     3027.87  3031.38  3033.33  3039.06  3046.46  3049.99
eigval :     3074.89  3078.89  3079.79  3080.14  3081.70  3082.30
eigval :     3084.26  3085.55  3086.83  3087.06  3087.17  3087.23
eigval :     3087.83  3087.95  3088.38  3091.40  3093.37  3094.90
eigval :     3096.18  3096.64  3097.34  3097.72  3098.97  3099.83
eigval :     3100.03  3101.17  3101.37  3104.41  3106.38  3107.12
eigval :     3107.74  3108.19  3111.72  3115.12  3122.71  3129.44

   temp. (K)  partition function   enthalpy   heat capacity  entropy
                                   cal/mol     cal/K/mol   cal/K/mol   J/K/mol
 298.15  VIB  0.815E+25            33268.266    210.754    205.919
         ROT  0.151E+09              888.752      2.981     40.404
         INT  0.123E+34            34157.018    213.735    246.323
         TR   0.254E+29             1481.254      4.968     46.193
         TOT                       35638.2720   218.7034   292.5166  1223.8895

       T/K    H(0)-H(T)+PV         H(T)/Eh          T*S/Eh         G(T)/Eh
   ------------------------------------------------------------------------
    298.15    0.567932E-01    0.921216E+00    0.138984E+00    0.782232E+00
   ------------------------------------------------------------------------

         :::::::::::::::::::::::::::::::::::::::::::::::::::::
         ::                  THERMODYNAMIC                  ::
         :::::::::::::::::::::::::::::::::::::::::::::::::::::
         :: total free energy        -173.003928837021 Eh   ::
         ::.................................................::
         :: total energy             -173.786160899148 Eh   ::
         :: zero point energy           0.864422943287 Eh   ::
         :: G(RRHO) w/o ZPVE           -0.082190881160 Eh   ::
         :: G(RRHO) contrib.            0.782232062128 Eh   ::
         :::::::::::::::::::::::::::::::::::::::::::::::::::::

           -------------------------------------------------
          | TOTAL ENERGY             -173.786160899148 Eh   |
          | TOTAL ENTHALPY           -172.864944754356 Eh   |
          | TOTAL FREE ENERGY        -173.003928837021 Eh   |
          | GRADIENT NORM               0.000132779844 Eh/α |
          | HOMO-LUMO GAP               0.586944805045 eV   |
           -------------------------------------------------

 * finished run on 2025/09/07 at 02:56:24.988
