   * xtb version 6.7.1 (edcfbbe) compiled by 'albert@albert-system' on 2024-07-22

   ID    Z sym.   atoms
    1    6 C      1-8, 10-18, 22-29, 31-50, 52-67
    2    7 N      9, 30, 51
    3   16 S      19
    4    8 O      20, 21
    5    1 H      68-112

          program call               : xtb data2507/toluene/PSBC/PSBC_toluene_S0_crest.xyz --gfn 2 --gbsa toluene --ohess vtight --parallel 40 --molden --ceasefiles --namespace data2507/toluene/PSBC/PSBC_toluene_S0_finalOpt
      * Solvation model:               GBSA
        Solvent                        toluene
        Solvent mass                       9.2140E+01 g/mol
          :  Hamiltonian                  GFN2-xTB          :
 * total energy  :  -173.8650815 Eh     change       -0.2963759E-08 Eh
 * total energy  :  -173.8652871 Eh     change       -0.2056558E-03 Eh
 * total energy  :  -173.8654831 Eh     change       -0.1959594E-03 Eh
 * total energy  :  -173.8655651 Eh     change       -0.8199134E-04 Eh
 * total energy  :  -173.8656696 Eh     change       -0.1044901E-03 Eh
 * total energy  :  -173.8657718 Eh     change       -0.1022325E-03 Eh
 * total energy  :  -173.8658441 Eh     change       -0.7230393E-04 Eh
 * total energy  :  -173.8658865 Eh     change       -0.4237952E-04 Eh
 * total energy  :  -173.8659216 Eh     change       -0.3512469E-04 Eh
 * total energy  :  -173.8659532 Eh     change       -0.3153361E-04 Eh
 * total energy  :  -173.8660629 Eh     change       -0.7563897E-06 Eh
 * total energy  :  -173.8660634 Eh     change       -0.5421076E-06 Eh
 * total energy  :  -173.8660638 Eh     change       -0.4103086E-06 Eh
 * total energy  :  -173.8660642 Eh     change       -0.3605053E-06 Eh
 * total energy  :  -173.8660645 Eh     change       -0.3105485E-06 Eh
 * total energy  :  -173.8660647 Eh     change       -0.2551000E-06 Eh
 * total energy  :  -173.8660650 Eh     change       -0.2057180E-06 Eh
 * total energy  :  -173.8660652 Eh     change       -0.2027668E-06 Eh
 * total energy  :  -173.8660652 Eh     change       -0.3080373E-08 Eh
   *** GEOMETRY OPTIMIZATION CONVERGED AFTER 44 ITERATIONS ***

 final structure:
================
112
 xtb: 6.7.1 (edcfbbe)
C           -1.56382790178937       -7.45281081205284        0.50618550056992
C           -0.65099880772500       -6.49161259598252       -0.26961448858330
C           -0.76735718057110       -6.82265424707872       -1.76064200961201
C            0.80992361817559       -6.69953486871824        0.15724702983296
C           -1.05295961319129       -5.05962742643418        0.04627265548384
C           -1.02100542715492       -4.61231165990372        1.36564538374870
C           -1.36695377711399       -3.31819462143894        1.70095043741176
C           -1.75928915361814       -2.42716806092362        0.71021256535266
N           -2.06354324864340       -1.09181408926055        1.06157306479011
C           -1.15779189220712       -0.24091071113172        1.64942072123946
C            0.26301563744725       -0.51168664972437        1.79441277969890
C            0.93793423957970       -0.03548720120930        2.91931689543237
C            2.30863553692774       -0.15256380661982        3.02238950846313
C            3.05414766582601       -0.73519408284057        1.99619426705068
C            4.51746175858127       -0.63943177760577        1.92357075112780
C            5.27228724083905       -1.56339541890770        1.19450713654278
C            6.54323573113777       -1.24069342127123        0.75937450682778
C            7.08910361235756       -0.01363629255916        1.09468284740387
S            8.21997911932203        0.76182996242879       -0.06580295936614
O            8.97643174533030        1.82581671941386        0.55690043603147
O            8.96373385719394       -0.22676606899620       -0.81545980074942
C            6.84785358064668        1.42017502704579       -1.02840358783625
C            6.19303631033906        0.56737729432120       -1.89917721720246
C            4.87360673379797        0.81239752079018       -2.23264976166269
C            4.18888803689789        1.88439587683511       -1.65914622170408
C            2.72266528618638        1.96118249109872       -1.74975319994712
C            2.03061801295092        1.73871123649784       -2.93747738486004
C            0.64887524205148        1.73585684158415       -2.95911632773716
C           -0.07307849736746        1.92220285736231       -1.78191006685627
N           -1.47482585380498        1.89480012438836       -1.78838174780385
C           -2.27114612732126        0.92663373913298       -2.36799315851332
C           -1.91284714969588       -0.22894607467501       -3.04812838023236
C           -2.92661035343422       -1.04212670530330       -3.52342614244175
C           -4.26825969355564       -0.73097424389376       -3.31554636466242
C           -4.63133325910373        0.41002995794259       -2.62811397837661
C           -3.63203891826318        1.24900605153178       -2.15418765566416
C           -3.64837610441743        2.49316099822004       -1.43867027499350
C           -4.66936394887629        3.33693804717625       -1.02209908369632
C           -4.33426817366104        4.52172755056585       -0.39990788556358
C           -3.00103816929636        4.86825638740476       -0.19310062421680
C           -1.96851747322285        4.04672374048485       -0.60163272933719
C           -2.29897558293089        2.85092014748493       -1.22247723437226
C            0.61170605507649        2.14033616560944       -0.58848350954546
C            1.99070993847346        2.17371926434960       -0.58068679975835
C            4.90224750452656        2.80053686437120       -0.88406487460748
C            6.22650820302857        2.56784968988270       -0.56640829427190
C            6.43295010028584        0.82491470833805        1.98069632935560
C            5.15709593909837        0.50843533961085        2.40082221434297
C            2.36555250027626       -1.26005255728463        0.90023988838674
C            0.99547852983435       -1.15412179054486        0.79811784299381
N           -1.70522379072214        0.89405634788423        2.01555802617835
C           -3.01615815890487        0.80144757060652        1.66783461215721
C           -4.04274509041337        1.75695495469753        1.90333561394915
C           -3.77684029642643        2.96113853262924        2.56312499703819
C           -4.79042463441028        3.84819480656495        2.82545848535983
C           -6.08885771532827        3.53990381605573        2.42527952914335
C           -6.36034269804932        2.36254134059401        1.76863582026439
C           -5.35132809722256        1.42971236921810        1.48317453650619
C           -5.61196397988071        0.16191709006326        0.82395945907831
C           -6.89281378622061       -0.17371403403825        0.36161733916565
C           -7.16645603529699       -1.39127728725967       -0.21535818997309
C           -6.15995877714131       -2.34319451860876       -0.34202882009997
C           -4.88764038671618       -2.04690080421270        0.08038184051498
C           -4.58037088332531       -0.80044544726504        0.64385122289586
C           -3.27296190681943       -0.43244037258126        1.07049097564519
C           -1.79579941060662       -2.85139224912712       -0.61065735791821
C           -1.44924353295453       -4.15236827100615       -0.93059349919512
H           -1.46866031737826       -7.31491059957640        1.57955306315918
H           -2.60419524074721       -7.28886451478137        0.23169459194769
H           -1.30430181503641       -8.48302511055849        0.27233486089093
H           -0.47626502442422       -7.85826918990818       -1.92369297416744
H           -1.79060538381262       -6.70375298193773       -2.10970534928992
H           -0.10967785119442       -6.19329411566415       -2.35566169391179
H            0.93921953276358       -6.53551695628577        1.22346818977417
H            1.45966664707381       -6.00819791887491       -0.37577164370392
H            1.12418610008400       -7.71538580681340       -0.07221007566441
H           -0.72078811248889       -5.27996570452632        2.15798266100972
H           -1.33327952954996       -2.99120935517994        2.73034711161056
H            0.36873248236027        0.44762146836846        3.69894502944197
H            2.80557434591596        0.21829422967129        3.90603632603230
H            4.83845259688579       -2.50971731229483        0.91124279549316
H            7.10023899916198       -1.89938049752472        0.11106477890113
H            6.71356785399792       -0.30443577220957       -2.26421371100093
H            4.34538489260009        0.12143042471743       -2.87168888180479
H            2.57839535071292        1.59411682151424       -3.85672728839415
H            0.12123918595566        1.59786552394578       -3.89110198639032
H           -0.87687016273756       -0.49246642240037       -3.20004520957262
H           -2.67141106588046       -1.94124671475308       -4.06581991140696
H           -5.03077152905522       -1.39381023178105       -3.69661176747748
H           -5.67001367767712        0.64822472731465       -2.45684461938530
H           -5.70130459632839        3.07193695527849       -1.19525864381153
H           -5.11252840709449        5.19494615494728       -0.07325652597709
H           -2.76903850448515        5.80620264321172        0.28988058251014
H           -0.93958988997826        4.33761124616977       -0.45593643606939
H            0.05589587485441        2.25247469943442        0.33051537372620
H            2.51151537436075        2.32196108463724        0.35255277504425
H            4.40220495710722        3.67413450677609       -0.49485975743466
H            6.77790025639555        3.23755359623757        0.07504349772711
H            6.90600472907986        1.75016821545877        2.27007331086950
H            4.61799657637073        1.20757013051348        3.02031090919657
H            2.91603638477216       -1.70608434519008        0.08710245076809
H            0.49964758031524       -1.52847138063695       -0.08371363205407
H           -2.75895698939808        3.15997126507067        2.86180804744983
H           -4.58879913531519        4.77630701637641        3.34003338809723
H           -6.89259800107463        4.23142607611108        2.63494583792188
H           -7.38203242531433        2.16456821278919        1.48506149592697
H           -7.69818567702100        0.53749245821572        0.45272252969645
H           -8.16595169705951       -1.61117688626130       -0.56179220272447
H           -6.37580174268032       -3.30933288588615       -0.77407866319384
H           -4.11201173193067       -2.78859828235144       -0.01748873449691
H           -2.09645836235393       -2.15857531365288       -1.38293499598735
H           -1.49068823397655       -4.44388356891585       -1.96659053180176

          :  Hamiltonian                  GFN2-xTB          :
         :: gradient norm              0.000036437565 Eh/a0 ::
         :: HOMO-LUMO gap              2.134576185564 eV    ::
         :: SCC energy              -176.964779346670 Eh    ::
         :: -> dispersion             -0.188404737178 Eh    ::
         :: -> Gsolv                  -0.067695908878 Eh    ::
         :: repulsion energy           3.098714188217 Eh    ::

    * Orbital Energies and Occupations

         #    Occupation            Energy/Eh            Energy/eV
      -------------------------------------------------------------
         1        2.0000           -0.7763155             -21.1246
       ...           ...                  ...                  ...
       149        2.0000           -0.4145371             -11.2801
       150        2.0000           -0.4128842             -11.2352
       151        2.0000           -0.4066008             -11.0642
       152        2.0000           -0.4057850             -11.0420
       153        2.0000           -0.4047142             -11.0128
       154        2.0000           -0.4028909             -10.9632
       155        2.0000           -0.3971432             -10.8068
       156        2.0000           -0.3958679             -10.7721
       157        2.0000           -0.3837458             -10.4423
       158        2.0000           -0.3807738             -10.3614
       159        2.0000           -0.3768815             -10.2555
       160        2.0000           -0.3652752              -9.9396
       161        2.0000           -0.3624804              -9.8636 (HOMO)
       162                         -0.2840362              -7.7290 (LUMO)
       163                         -0.2657991              -7.2328
       164                         -0.2527165              -6.8768
       165                         -0.2498145              -6.7978
       166                         -0.2492716              -6.7830
       167                         -0.2459170              -6.6917
       168                         -0.2395943              -6.5197
       169                         -0.2373703              -6.4592
       170                         -0.2348703              -6.3911
       171                         -0.2343977              -6.3783
       172                         -0.2336160              -6.3570
       ...                                ...                  ...
       318                          1.1795447              32.0970
      -------------------------------------------------------------
                  HL-Gap            0.0784442 Eh            2.1346 eV

     #   Z          covCN         q      C6AA      α(0)
     1   6 C        3.761    -0.107    22.596     6.776
     2   6 C        3.902     0.027    20.069     6.368
     3   6 C        3.761    -0.110    22.654     6.785
     4   6 C        3.761    -0.108    22.604     6.777
     5   6 C        2.972     0.013    27.714     8.635
     6   6 C        2.928    -0.033    28.812     8.803
     7   6 C        2.920    -0.042    29.043     8.838
     8   6 C        2.913     0.059    26.669     8.468
     9   7 N        2.838    -0.056    22.322     7.017
    10   6 C        3.198     0.138    24.504     8.068
    11   6 C        2.974     0.000    28.024     8.683
    12   6 C        2.925    -0.028    28.701     8.786
    13   6 C        2.921    -0.031    28.776     8.797
    14   6 C        2.976     0.014    27.705     8.634
    15   6 C        2.977     0.021    27.534     8.607
    16   6 C        2.926    -0.030    28.741     8.792
    17   6 C        2.960    -0.029    28.729     8.791
    18   6 C        2.971    -0.084    30.111     9.001
    19  16 S        3.844     0.948   108.159    17.504
    20   8 O        0.860    -0.571    25.409     6.758
    21   8 O        0.860    -0.570    25.383     6.755
    22   6 C        2.970    -0.083    30.066     8.994
    23   6 C        2.960    -0.030    28.737     8.793
    24   6 C        2.926    -0.029    28.725     8.789
    25   6 C        2.978     0.022    27.521     8.605
    26   6 C        2.976     0.009    27.807     8.650
    27   6 C        2.922    -0.032    28.793     8.799
    28   6 C        2.920    -0.043    29.077     8.843
    29   6 C        2.912     0.065    26.550     8.449
    30   7 N        2.801    -0.050    22.200     6.998
    31   6 C        3.074     0.048    26.853     8.496
    32   6 C        2.910    -0.054    29.348     8.883
    33   6 C        2.923    -0.036    28.888     8.814
    34   6 C        2.919    -0.043    29.057     8.840
    35   6 C        2.912    -0.033    28.828     8.804
    36   6 C        3.068    -0.018    28.393     8.737
    37   6 C        3.068    -0.019    28.413     8.740
    38   6 C        2.913    -0.033    28.830     8.805
    39   6 C        2.920    -0.040    29.002     8.831
    40   6 C        2.925    -0.033    28.828     8.805
    41   6 C        2.910    -0.051    29.255     8.869
    42   6 C        3.076     0.051    26.783     8.485
    43   6 C        2.920    -0.042    29.047     8.838
    44   6 C        2.927    -0.031    28.785     8.799
    45   6 C        2.926    -0.029    28.730     8.790
    46   6 C        2.961    -0.029    28.725     8.791
    47   6 C        2.970    -0.031    28.758     8.796
    48   6 C        2.928    -0.030    28.742     8.792
    49   6 C        2.927    -0.033    28.829     8.805
    50   6 C        2.921    -0.034    28.838     8.806
    51   7 N        1.893    -0.323    29.216     8.013
    52   6 C        3.208     0.063    25.983     8.299
    53   6 C        2.985    -0.003    28.085     8.693
    54   6 C        2.922    -0.033    28.814     8.803
    55   6 C        2.917    -0.031    28.776     8.797
    56   6 C        2.918    -0.034    28.841     8.807
    57   6 C        2.922    -0.036    28.889     8.814
    58   6 C        2.980    -0.004    28.116     8.698
    59   6 C        2.980    -0.000    28.031     8.685
    60   6 C        2.923    -0.035    28.863     8.810
    61   6 C        2.916    -0.034    28.847     8.807
    62   6 C        2.917    -0.032    28.797     8.800
    63   6 C        2.920    -0.041    29.022     8.834
    64   6 C        2.978    -0.005    28.142     8.702
    65   6 C        3.075     0.026    27.355     8.575
    66   6 C        2.919    -0.044    29.086     8.844
    67   6 C        2.926    -0.038    28.934     8.821
    68   1 H        0.925     0.039     2.468     2.457
    69   1 H        0.925     0.035     2.522     2.484
    70   1 H        0.925     0.043     2.415     2.430
    71   1 H        0.925     0.041     2.433     2.439
    72   1 H        0.925     0.038     2.472     2.459
    73   1 H        0.925     0.039     2.461     2.453
    74   1 H        0.925     0.039     2.463     2.454
    75   1 H        0.925     0.036     2.503     2.474
    76   1 H        0.925     0.043     2.409     2.427
    77   1 H        0.926     0.045     2.385     2.415
    78   1 H        0.926     0.032     2.560     2.502
    79   1 H        0.926     0.048     2.340     2.392
    80   1 H        0.926     0.050     2.319     2.381
    81   1 H        0.926     0.064     2.150     2.293
    82   1 H        0.926     0.056     2.251     2.346
    83   1 H        0.926     0.055     2.259     2.350
    84   1 H        0.926     0.063     2.166     2.301
    85   1 H        0.926     0.050     2.323     2.383
    86   1 H        0.926     0.048     2.348     2.396
    87   1 H        0.926     0.032     2.562     2.503
    88   1 H        0.926     0.033     2.540     2.492
    89   1 H        0.926     0.028     2.618     2.530
    90   1 H        0.926     0.026     2.643     2.542
    91   1 H        0.926     0.027     2.623     2.533
    92   1 H        0.926     0.028     2.619     2.531
    93   1 H        0.926     0.032     2.551     2.498
    94   1 H        0.926     0.033     2.550     2.497
    95   1 H        0.926     0.049     2.329     2.386
    96   1 H        0.926     0.044     2.396     2.421
    97   1 H        0.926     0.063     2.169     2.303
    98   1 H        0.926     0.055     2.257     2.349
    99   1 H        0.926     0.055     2.261     2.352
   100   1 H        0.926     0.065     2.146     2.291
   101   1 H        0.926     0.046     2.366     2.406
   102   1 H        0.926     0.033     2.537     2.491
   103   1 H        0.926     0.041     2.433     2.439
   104   1 H        0.926     0.032     2.557     2.501
   105   1 H        0.926     0.031     2.569     2.506
   106   1 H        0.926     0.033     2.540     2.492
   107   1 H        0.926     0.035     2.517     2.481
   108   1 H        0.926     0.032     2.563     2.503
   109   1 H        0.926     0.031     2.569     2.506
   110   1 H        0.926     0.031     2.575     2.510
   111   1 H        0.926     0.042     2.418     2.432
   112   1 H        0.926     0.053     2.288     2.365

molecular dipole:
                 x           y           z       tot (Debye)
 q only:       -2.791      -1.756      -0.290
   full:       -2.787      -1.937      -0.387       8.682

 projected vibrational frequencies (cm⁻¹)
eigval :       -0.00    -0.00    -0.00     0.00     0.00     0.00
eigval :        8.00    11.96    16.45    18.40    20.80    25.88
eigval :       30.28    31.70    38.60    40.22    51.61    60.97
eigval :       62.60    66.24    73.66    75.35    82.14    86.18
eigval :       91.70    93.74   100.03   104.45   112.87   116.90
eigval :      129.85   132.68   134.97   140.89   146.12   151.75
eigval :      158.14   169.40   181.79   187.50   203.06   211.79
eigval :      216.97   223.52   226.62   236.67   246.07   255.37
eigval :      263.76   272.52   276.90   283.23   294.09   306.20
eigval :      310.27   311.33   317.30   333.89   352.71   362.45
eigval :      364.68   367.87   373.08   374.02   376.89   383.34
eigval :      385.17   388.74   392.54   396.97   400.08   409.73
eigval :      415.99   417.73   425.39   428.96   429.27   435.44
eigval :      444.66   450.10   452.81   466.42   480.22   483.41
eigval :      501.52   506.01   515.91   519.49   525.40   533.49
eigval :      534.80   537.41   543.17   547.85   550.08   565.78
eigval :      582.09   584.55   590.91   594.26   595.25   597.34
eigval :      602.97   609.29   615.92   629.04   644.18   648.36
eigval :      657.60   666.78   673.86   675.52   681.50   682.74
eigval :      687.18   695.10   697.85   707.56   710.40   712.81
eigval :      720.11   734.40   755.75   756.47   762.23   763.47
eigval :      770.44   773.94   780.55   783.57   796.83   807.04
eigval :      810.38   824.80   829.95   834.26   858.07   862.19
eigval :      865.06   866.77   868.92   871.65   874.84   875.64
eigval :      881.67   883.02   897.32   900.71   903.69   904.68
eigval :      912.05   913.76   916.90   917.86   920.20   920.70
eigval :      921.54   922.06   923.15   926.03   927.15   928.59
eigval :      929.73   930.91   936.58   939.06   940.66   952.36
eigval :      959.20   961.84   963.44   972.75   976.63   998.27
eigval :     1011.42  1012.17  1015.00  1032.74  1034.86  1035.97
eigval :     1064.58  1069.88  1070.55  1073.34  1073.75  1075.81
eigval :     1087.13  1103.06  1108.43  1113.93  1116.89  1119.77
eigval :     1120.03  1134.82  1136.53  1141.33  1145.34  1146.68
eigval :     1151.83  1152.60  1173.10  1174.49  1174.67  1179.27
eigval :     1180.11  1181.77  1182.96  1185.23  1195.03  1199.56
eigval :     1201.44  1209.11  1213.82  1225.40  1231.70  1234.97
eigval :     1242.63  1246.98  1250.54  1253.07  1258.36  1264.16
eigval :     1272.39  1275.87  1281.23  1283.95  1284.25  1285.86
eigval :     1298.15  1302.00  1310.64  1312.29  1315.35  1316.93
eigval :     1317.98  1325.21  1332.94  1339.30  1350.15  1358.14
eigval :     1362.06  1364.66  1375.09  1379.84  1381.82  1396.62
eigval :     1403.97  1405.85  1406.99  1407.95  1408.13  1420.65
eigval :     1427.04  1427.48  1427.60  1431.63  1436.19  1443.76
eigval :     1452.04  1474.43  1474.56  1487.15  1487.46  1488.62
eigval :     1490.15  1495.63  1498.85  1502.76  1510.76  1513.65
eigval :     1515.68  1516.07  1543.61  1554.34  1555.72  1562.87
eigval :     1563.91  1567.25  1567.83  1570.02  1570.42  1571.87
eigval :     1575.01  1588.80  1592.19  1594.01  1595.90  1598.55
eigval :     1598.73  1605.49  1615.19  3023.11  3023.88  3026.97
eigval :     3027.55  3031.27  3033.15  3039.04  3045.95  3049.26
eigval :     3067.22  3070.90  3072.68  3075.47  3077.24  3078.89
eigval :     3080.99  3081.78  3081.94  3082.80  3086.28  3089.05
eigval :     3089.24  3089.60  3090.60  3090.89  3091.35  3092.92
eigval :     3093.61  3094.33  3095.18  3095.32  3096.01  3097.50
eigval :     3097.99  3098.49  3099.11  3099.42  3100.66  3101.33
eigval :     3101.68  3105.22  3105.78  3107.64  3121.84  3122.61

   temp. (K)  partition function   enthalpy   heat capacity  entropy
                                   cal/mol     cal/K/mol   cal/K/mol   J/K/mol
 298.15  VIB  0.279E+26            33108.446    208.091    205.884
         ROT  0.162E+09              888.752      2.981     40.545
         INT  0.451E+34            33997.198    211.072    246.429
         TR   0.254E+29             1481.254      4.968     46.193
         TOT                       35478.4523   216.0397   292.6228  1224.3340

       T/K    H(0)-H(T)+PV         H(T)/Eh          T*S/Eh         G(T)/Eh
   ------------------------------------------------------------------------
    298.15    0.565385E-01    0.924648E+00    0.139035E+00    0.785613E+00
   ------------------------------------------------------------------------

         :::::::::::::::::::::::::::::::::::::::::::::::::::::
         ::                  THERMODYNAMIC                  ::
         :::::::::::::::::::::::::::::::::::::::::::::::::::::
         :: total free energy        -173.080451917150 Eh   ::
         ::.................................................::
         :: total energy             -173.866065157817 Eh   ::
         :: zero point energy           0.868109281723 Eh   ::
         :: G(RRHO) w/o ZPVE           -0.082496041055 Eh   ::
         :: G(RRHO) contrib.            0.785613240667 Eh   ::
         :::::::::::::::::::::::::::::::::::::::::::::::::::::

           -------------------------------------------------
          | TOTAL ENERGY             -173.866065157817 Eh   |
          | TOTAL ENTHALPY           -172.941417363446 Eh   |
          | TOTAL FREE ENERGY        -173.080451917150 Eh   |
          | GRADIENT NORM               0.000036439751 Eh/α |
          | HOMO-LUMO GAP               2.134576324764 eV   |
           -------------------------------------------------

 * finished run on 2025/09/07 at 02:39:40.248
