   * xtb version 6.7.1 (edcfbbe) compiled by 'albert@albert-system' on 2024-07-22

   ID    Z sym.   atoms
    1    6 C      1-9, 11-15, 17-20, 22-46
    2    7 N      10, 21
    3    8 O      16
    4    1 H      47-82

          program call               : xtb data2507/gas/DMAC-BP/DMAC-BP.xyz --gfn 2 --ohess vtight --parallel 40 --molden --ceasefiles --namespace data2507/gas/DMAC-BP/DMAC-BP_gas_S0_preOpt
          :  Hamiltonian                  GFN2-xTB          :
 * total energy  :  -120.3715007 Eh     change       -0.8433616E-08 Eh
 * total energy  :  -120.3897306 Eh     change       -0.1822991E-01 Eh
 * total energy  :  -120.3957297 Eh     change       -0.5999112E-02 Eh
 * total energy  :  -120.3968225 Eh     change       -0.1092733E-02 Eh
 * total energy  :  -120.3975771 Eh     change       -0.7546272E-03 Eh
 * total energy  :  -120.3978836 Eh     change       -0.3065394E-03 Eh
 * total energy  :  -120.3980490 Eh     change       -0.1653352E-03 Eh
 * total energy  :  -120.3981442 Eh     change       -0.9525550E-04 Eh
 * total energy  :  -120.3982460 Eh     change       -0.1018223E-03 Eh
 * total energy  :  -120.3983298 Eh     change       -0.8373845E-04 Eh
 * total energy  :  -120.3989355 Eh     change       -0.1083220E-05 Eh
 * total energy  :  -120.3989364 Eh     change       -0.8976714E-06 Eh
 * total energy  :  -120.3989371 Eh     change       -0.7102329E-06 Eh
 * total energy  :  -120.3989378 Eh     change       -0.7015142E-06 Eh
 * total energy  :  -120.3989387 Eh     change       -0.8347415E-06 Eh
 * total energy  :  -120.3989398 Eh     change       -0.1148534E-05 Eh
 * total energy  :  -120.3989413 Eh     change       -0.1439252E-05 Eh
 * total energy  :  -120.3989426 Eh     change       -0.1375322E-05 Eh
 * total energy  :  -120.3989427 Eh     change       -0.9340297E-08 Eh
   *** GEOMETRY OPTIMIZATION CONVERGED AFTER 152 ITERATIONS ***

 final structure:
================
82
 xtb: 6.7.1 (edcfbbe)
C           -7.85228302247677        2.36658921296551        0.58715278486836
C           -7.46522715388992        1.10821167499252       -0.21107783813742
C           -8.61203309726302        0.70073575843620       -1.15411746179144
C           -6.23981026835812        1.41877356274165       -1.04880272211281
C           -6.30228614991396        2.42960762452690       -1.99838478152611
C           -5.23015562099768        2.73967422205856       -2.81390665596674
C           -4.06058135074727        2.01125688192669       -2.69658628294117
C           -3.97103611081334        1.00242166114330       -1.76090301866720
C           -5.04411967819100        0.70552712530631       -0.91533754092867
N           -4.92179286689715       -0.31033597739972        0.02230902241634
C           -3.69209887786420       -1.00648105715280        0.12546921765599
C           -2.58772917459571       -0.38903945663853        0.70605630899847
C           -1.38196210236398       -1.05661501162063        0.78976760048865
C           -1.26510674753861       -2.35680471149787        0.30056119347083
C            0.00161074297693       -3.12570980349312        0.39480381457948
O            0.00293484855333       -4.33150933546655        0.54412557954777
C            1.26643424508832       -2.35446120405788        0.29704604981800
C            2.38843244628407       -2.82696675786718        0.97690150043574
C            3.58878048780804       -2.15121861175364        0.90503787044874
C            3.69202613932784       -0.99989240064539        0.12900539197545
N            4.92084970480499       -0.29926995126294        0.05422575397487
C            5.97426882889308       -0.85584034799538       -0.65937855080358
C            5.78822651407438       -2.06130593088101       -1.34235095734989
C            6.81804790418398       -2.64186765148778       -2.05204651761375
C            8.05419278367189       -2.02372735766681       -2.10230163381828
C            8.23177387375523       -0.81678821534983       -1.45259130959766
C            7.21198625199784       -0.20924230441346       -0.73236859914525
C            7.46471866447686        1.13262776212157       -0.07248267520185
C            7.85373953501842        2.14864823312004       -1.16193126027388
C            8.60945013536411        0.97682926332750        0.94526646898624
C            6.23776806449523        1.64426211922245        0.65728637224246
C            6.29914376696149        2.86198129833541        1.32126963562128
C            5.22621352418200        3.36736839633705        2.03118297997451
C            4.05725712808098        2.63191539847132        2.10102605536522
C            3.96886259917531        1.41965062113742        1.44998491749733
C            5.04225371194463        0.92000585537321        0.70640472106321
C            2.58351225592994       -0.54160469349798       -0.57766072877488
C            1.37867278620752       -1.21042604677581       -0.49173135149102
C           -2.38335783711072       -2.98181207651607       -0.24988887486383
C           -3.58461461888362       -2.31095493860741       -0.34875125940337
C           -5.97361974553874       -0.66913000015850        0.85475032819983
C           -5.78653671082771       -1.66578779806367        1.81694890051325
C           -6.81471754846880       -2.04839207976774        2.65223513541834
C           -8.05009370461890       -1.43522828619151        2.54947747675744
C           -8.22899103219567       -0.42987947366127        1.61794396185956
C           -7.21097300798447       -0.02384522270949        0.76561740194637
H           -8.05315179341257        3.20184510337360       -0.07797067161126
H           -8.74057005629379        2.18861675688416        1.18671926259382
H           -7.03872524183211        2.64641510484698        1.25395768468342
H           -8.32934995823479       -0.18596575557381       -1.71860236690171
H           -8.83827400004904        1.49697303839767       -1.85782740076515
H           -9.51470448256658        0.47627113400754       -0.59273162771409
H           -7.21517866663570        2.99442298770237       -2.11179384523114
H           -5.31240881271696        3.53407355858289       -3.53979984130439
H           -3.21619607315298        2.22294254965567       -3.33558210200729
H           -3.05923891050560        0.42974230306266       -1.68812560392689
H           -2.68587597153237        0.61665788439040        1.08735927081032
H           -0.53623091306271       -0.57858535144962        1.26157658357653
H            2.29370592792874       -3.72390890392905        1.57036087672018
H            4.45573750240089       -2.50780011421721        1.44100398165944
H            4.82374073027262       -2.54479191640426       -1.32176292030445
H            6.65009448996029       -3.57547069590249       -2.56771608640130
H            8.86990736202452       -2.46985361661738       -2.65034616747920
H            9.19652703333993       -0.33631017930493       -1.51362192740053
H            8.05274298482905        3.12508745286152       -0.72909968816089
H            7.04189336576486        2.25013798672632       -1.87984973391291
H            8.74361615356722        1.82558997929615       -1.69481236656213
H            8.83505018028305        1.92521707315107        1.42488395362947
H            8.32499043879528        0.26204921853075        1.71530539548144
H            9.51299147419581        0.61726467376716        0.46083852926995
H            7.21186547230530        3.43743858359214        1.28937070677127
H            5.30748926788842        4.31936268764952        2.53302985748057
H            3.21241897454674        2.99709090482944        2.66582829296294
H            3.05758344368123        0.84643937232457        1.52449629291851
H            2.67783595511590        0.34231373654352       -1.19105022621448
H            0.52998625083740       -0.86087780851026       -1.06084836362641
H           -2.28500568712760       -3.99539012796516       -0.60860054137288
H           -4.44879549256205       -2.78792553739569       -0.78659766673114
H           -4.82260148241291       -2.14089784491186        1.91477959052885
H           -6.64612615025424       -2.82344559015663        3.38477951848668
H           -8.86438983297738       -1.72825887152877        3.19432382353969
H           -9.19338799812971        0.05157325471453        1.55886610275511

          :  Hamiltonian                  GFN2-xTB          :
         :: gradient norm              0.000071442656 Eh/a0 ::
         :: HOMO-LUMO gap              1.475832515521 eV    ::
         :: SCC energy              -122.547934413285 Eh    ::
         :: -> dispersion             -0.112532127340 Eh    ::
         :: repulsion energy           2.148991757832 Eh    ::

    * Orbital Energies and Occupations

         #    Occupation            Energy/Eh            Energy/eV
      -------------------------------------------------------------
         1        2.0000           -0.7084725             -19.2785
       ...           ...                  ...                  ...
       100        2.0000           -0.4094776             -11.1425
       101        2.0000           -0.4091537             -11.1336
       102        2.0000           -0.4084224             -11.1137
       103        2.0000           -0.4082031             -11.1078
       104        2.0000           -0.4042843             -11.0011
       105        2.0000           -0.4041436             -10.9973
       106        2.0000           -0.3987427             -10.8503
       107        2.0000           -0.3986172             -10.8469
       108        2.0000           -0.3953397             -10.7577
       109        2.0000           -0.3933291             -10.7030
       110        2.0000           -0.3932155             -10.6999
       111        2.0000           -0.3483137              -9.4781
       112        2.0000           -0.3480999              -9.4723 (HOMO)
       113                         -0.2938640              -7.9964 (LUMO)
       114                         -0.2490837              -6.7779
       115                         -0.2456554              -6.6846
       116                         -0.2427747              -6.6062
       117                         -0.2250360              -6.1235
       118                         -0.2248891              -6.1195
       119                         -0.2202358              -5.9929
       120                         -0.2200332              -5.9874
       121                         -0.2186272              -5.9492
       122                         -0.2184934              -5.9455
       123                         -0.2015123              -5.4834
       ...                                ...                  ...
       220                          0.6792111              18.4823
      -------------------------------------------------------------
                  HL-Gap            0.0542359 Eh            1.4758 eV

     #   Z          covCN         q      C6AA      α(0)
     1   6 C        3.761    -0.103    22.516     6.764
     2   6 C        3.909     0.021    20.156     6.381
     3   6 C        3.761    -0.103    22.515     6.764
     4   6 C        2.980    -0.013    28.340     8.732
     5   6 C        2.928    -0.036    28.892     8.815
     6   6 C        2.917    -0.044    29.100     8.846
     7   6 C        2.920    -0.033    28.823     8.804
     8   6 C        2.924    -0.059    29.469     8.902
     9   6 C        2.928     0.058    26.704     8.475
    10   7 N        2.754    -0.070    22.600     7.061
    11   6 C        2.928     0.077    26.291     8.409
    12   6 C        2.920    -0.037    28.931     8.820
    13   6 C        2.920    -0.027    28.671     8.781
    14   6 C        2.972    -0.014    28.356     8.735
    15   6 C        2.828     0.226    23.259     7.903
    16   8 O        0.858    -0.367    21.036     6.149
    17   6 C        2.972    -0.014    28.359     8.735
    18   6 C        2.924    -0.018    28.454     8.748
    19   6 C        2.919    -0.037    28.915     8.818
    20   6 C        2.928     0.076    26.293     8.409
    21   7 N        2.754    -0.070    22.595     7.060
    22   6 C        2.927     0.058    26.709     8.475
    23   6 C        2.924    -0.059    29.456     8.900
    24   6 C        2.920    -0.032    28.810     8.802
    25   6 C        2.917    -0.044    29.089     8.844
    26   6 C        2.928    -0.036    28.896     8.816
    27   6 C        2.980    -0.014    28.345     8.733
    28   6 C        3.909     0.021    20.156     6.381
    29   6 C        3.761    -0.103    22.516     6.764
    30   6 C        3.761    -0.103    22.515     6.764
    31   6 C        2.980    -0.013    28.339     8.732
    32   6 C        2.928    -0.036    28.892     8.815
    33   6 C        2.917    -0.044    29.098     8.846
    34   6 C        2.920    -0.033    28.822     8.804
    35   6 C        2.924    -0.059    29.469     8.902
    36   6 C        2.927     0.058    26.704     8.475
    37   6 C        2.920    -0.038    28.933     8.821
    38   6 C        2.920    -0.027    28.672     8.781
    39   6 C        2.924    -0.018    28.454     8.748
    40   6 C        2.919    -0.037    28.912     8.818
    41   6 C        2.927     0.058    26.708     8.475
    42   6 C        2.924    -0.059    29.458     8.901
    43   6 C        2.920    -0.033    28.810     8.802
    44   6 C        2.917    -0.044    29.091     8.845
    45   6 C        2.928    -0.036    28.896     8.816
    46   6 C        2.980    -0.014    28.346     8.733
    47   1 H        0.925     0.039     2.458     2.452
    48   1 H        0.925     0.040     2.455     2.450
    49   1 H        0.925     0.031     2.570     2.507
    50   1 H        0.925     0.031     2.566     2.505
    51   1 H        0.925     0.039     2.458     2.452
    52   1 H        0.925     0.040     2.454     2.450
    53   1 H        0.926     0.031     2.577     2.510
    54   1 H        0.926     0.027     2.634     2.538
    55   1 H        0.926     0.027     2.631     2.537
    56   1 H        0.926     0.021     2.717     2.577
    57   1 H        0.926     0.047     2.357     2.401
    58   1 H        0.926     0.042     2.425     2.435
    59   1 H        0.926     0.061     2.186     2.312
    60   1 H        0.926     0.049     2.328     2.386
    61   1 H        0.926     0.025     2.660     2.551
    62   1 H        0.926     0.029     2.602     2.523
    63   1 H        0.926     0.027     2.628     2.535
    64   1 H        0.926     0.030     2.579     2.512
    65   1 H        0.925     0.039     2.457     2.451
    66   1 H        0.925     0.031     2.569     2.507
    67   1 H        0.925     0.040     2.454     2.450
    68   1 H        0.925     0.039     2.458     2.452
    69   1 H        0.925     0.031     2.566     2.505
    70   1 H        0.925     0.040     2.453     2.449
    71   1 H        0.926     0.031     2.576     2.510
    72   1 H        0.926     0.027     2.633     2.537
    73   1 H        0.926     0.027     2.630     2.536
    74   1 H        0.926     0.021     2.713     2.576
    75   1 H        0.926     0.047     2.358     2.401
    76   1 H        0.926     0.042     2.426     2.435
    77   1 H        0.926     0.061     2.186     2.312
    78   1 H        0.926     0.049     2.328     2.386
    79   1 H        0.926     0.025     2.663     2.552
    80   1 H        0.926     0.029     2.603     2.523
    81   1 H        0.926     0.027     2.629     2.536
    82   1 H        0.926     0.030     2.580     2.512

molecular dipole:
                 x           y           z       tot (Debye)
 q only:        0.012       1.015      -0.126
   full:        0.012       1.122      -0.139       2.874

 projected vibrational frequencies (cm⁻¹)
eigval :       -0.00    -0.00     0.00     0.00     0.00     0.00
eigval :        7.77     8.10    10.81    20.42    21.16    31.90
eigval :       39.75    43.89    55.52    59.72    75.56    98.88
eigval :      100.39   101.50   103.42   116.71   127.96   128.07
eigval :      136.91   164.83   166.81   182.59   189.70   189.83
eigval :      212.96   219.20   219.67   224.29   235.22   237.59
eigval :      281.71   286.30   306.00   308.40   326.46   331.43
eigval :      331.98   341.38   344.35   345.18   370.45   377.52
eigval :      379.31   379.60   390.52   392.87   409.30   409.58
eigval :      425.21   439.39   451.55   451.92   483.69   486.64
eigval :      492.00   497.04   515.07   515.09   541.26   547.39
eigval :      547.40   552.83   568.61   577.19   583.64   590.76
eigval :      598.32   602.87   611.85   626.48   651.01   658.45
eigval :      673.75   682.67   682.76   693.71   693.78   694.93
eigval :      709.50   735.88   738.92   766.02   776.45   776.54
eigval :      778.17   778.26   817.50   821.19   828.66   830.29
eigval :      865.37   865.59   867.95   868.18   872.57   877.68
eigval :      891.53   913.03   913.15   914.18   914.24   915.09
eigval :      916.05   920.24   920.66   921.06   921.39   921.80
eigval :      922.22   925.90   929.35   935.57   938.39   939.03
eigval :      956.52   957.31   957.33  1014.39  1014.45  1014.63
eigval :     1028.76  1077.21  1077.23  1086.13  1086.16  1114.41
eigval :     1114.66  1120.21  1120.26  1129.07  1130.22  1141.19
eigval :     1141.20  1160.40  1160.40  1168.15  1172.22  1176.92
eigval :     1180.95  1185.68  1187.56  1187.97  1188.49  1188.55
eigval :     1203.65  1213.19  1242.98  1246.58  1250.34  1250.43
eigval :     1259.45  1261.77  1261.88  1269.41  1269.55  1295.15
eigval :     1295.25  1311.02  1314.08  1319.13  1320.93  1326.04
eigval :     1326.19  1335.01  1335.08  1341.43  1341.83  1400.16
eigval :     1401.95  1403.14  1403.21  1421.15  1421.19  1436.52
eigval :     1436.62  1443.10  1443.27  1472.53  1474.45  1480.13
eigval :     1480.34  1489.95  1489.97  1490.96  1490.98  1496.74
eigval :     1497.20  1500.51  1500.53  1505.30  1505.32  1557.09
eigval :     1558.64  1576.07  1576.07  1581.99  1584.15  1591.51
eigval :     1591.57  1593.39  1593.41  1602.86  1603.04  1691.83
eigval :     3026.48  3026.52  3028.63  3028.72  3039.94  3040.04
eigval :     3042.64  3042.73  3048.76  3048.87  3052.71  3052.77
eigval :     3078.21  3078.36  3079.55  3079.67  3081.10  3083.10
eigval :     3083.50  3083.65  3084.10  3084.26  3089.03  3089.17
eigval :     3093.56  3093.95  3094.29  3094.69  3094.93  3095.19
eigval :     3099.41  3099.60  3100.00  3100.24  3101.81  3102.01

   temp. (K)  partition function   enthalpy   heat capacity  entropy
                                   cal/mol     cal/K/mol   cal/K/mol   J/K/mol
 298.15  VIB  0.282E+19            23124.602    145.123    144.292
         ROT  0.455E+08              888.752      2.981     38.021
         INT  0.128E+27            24013.354    148.104    182.313
         TR   0.141E+29             1481.254      4.968     45.022
         TOT                       25494.6078   153.0720   227.3358   951.1729

       T/K    H(0)-H(T)+PV         H(T)/Eh          T*S/Eh         G(T)/Eh
   ------------------------------------------------------------------------
    298.15    0.406282E-01    0.695342E+00    0.108015E+00    0.587328E+00
   ------------------------------------------------------------------------

         :::::::::::::::::::::::::::::::::::::::::::::::::::::
         ::                  THERMODYNAMIC                  ::
         :::::::::::::::::::::::::::::::::::::::::::::::::::::
         :: total free energy        -119.811614835564 Eh   ::
         ::.................................................::
         :: total energy             -120.398942655453 Eh   ::
         :: zero point energy           0.654714141754 Eh   ::
         :: G(RRHO) w/o ZPVE           -0.067386321866 Eh   ::
         :: G(RRHO) contrib.            0.587327819889 Eh   ::
         :::::::::::::::::::::::::::::::::::::::::::::::::::::

           -------------------------------------------------
          | TOTAL ENERGY             -120.398942655453 Eh   |
          | TOTAL ENTHALPY           -119.703600270019 Eh   |
          | TOTAL FREE ENERGY        -119.811614835564 Eh   |
          | GRADIENT NORM               0.000071429507 Eh/α |
          | HOMO-LUMO GAP               1.475833896838 eV   |
           -------------------------------------------------

 * finished run on 2025/09/14 at 06:25:00.432
