   * xtb version 6.7.1 (edcfbbe) compiled by 'albert@albert-system' on 2024-07-22

   ID    Z sym.   atoms
    1    6 C      1-9, 11-15, 17-20, 22-46
    2    7 N      10, 21
    3    8 O      16
    4    1 H      47-82

          program call               : xtb data2507/gas/DMAC-BP/DMAC-BP_gas_S0_crest.xyz --gfn 2 --ohess vtight --parallel 40 --molden --ceasefiles --namespace data2507/gas/DMAC-BP/DMAC-BP_gas_S0_finalOpt
          :  Hamiltonian                  GFN2-xTB          :
 * total energy  :  -120.3989323 Eh     change       -0.1796465E-08 Eh
 * total energy  :  -120.3989339 Eh     change       -0.1668705E-05 Eh
 * total energy  :  -120.3989359 Eh     change       -0.1955842E-05 Eh
 * total energy  :  -120.3989384 Eh     change       -0.2514501E-05 Eh
 * total energy  :  -120.3989409 Eh     change       -0.2436273E-05 Eh
 * total energy  :  -120.3989432 Eh     change       -0.2398442E-05 Eh
 * total energy  :  -120.3989454 Eh     change       -0.2127267E-05 Eh
 * total energy  :  -120.3989465 Eh     change       -0.1099173E-05 Eh
 * total energy  :  -120.3989465 Eh     change       -0.4671047E-07 Eh
 * total energy  :  -120.3989471 Eh     change       -0.5418922E-06 Eh
 * total energy  :  -120.3989489 Eh     change       -0.2417154E-06 Eh
 * total energy  :  -120.3989492 Eh     change       -0.3191390E-06 Eh
 * total energy  :  -120.3989497 Eh     change       -0.4668592E-06 Eh
 * total energy  :  -120.3989501 Eh     change       -0.4543052E-06 Eh
 * total energy  :  -120.3989504 Eh     change       -0.3183539E-06 Eh
 * total energy  :  -120.3989507 Eh     change       -0.2733493E-06 Eh
 * total energy  :  -120.3989511 Eh     change       -0.4005748E-06 Eh
 * total energy  :  -120.3989517 Eh     change       -0.5848983E-06 Eh
 * total energy  :  -120.3989517 Eh     change       -0.8722466E-08 Eh
   *** GEOMETRY OPTIMIZATION CONVERGED AFTER 22 ITERATIONS ***

 final structure:
================
82
 xtb: 6.7.1 (edcfbbe)
C           -7.87232642668536        2.50543775551641        0.75389206365541
C           -7.47059696945461        1.36352781997594       -0.19752505707900
C           -8.60378770420389        1.08077705760705       -1.20069420760733
C           -6.23588351599349        1.78401857757590       -0.97113330523627
C           -6.29046818828175        2.91027412685917       -1.78107158646819
C           -5.20928228037632        3.32708364369508       -2.53469149723371
C           -4.03855454034446        2.59197153515904       -2.49882520822563
C           -3.95687963886062        1.46941171440482       -1.70231257273551
C           -5.03904488904450        1.06242856599789       -0.91619559242626
N           -4.92435652381627       -0.06687884813547       -0.11758723432444
C           -3.69224803080866       -0.76494774997318       -0.08508084963430
C           -2.59816540479146       -0.21769748679608        0.57938163191978
C           -1.39149511652532       -0.88830618234936        0.60174971324242
C           -1.26327193347531       -2.12214195545110       -0.03444016014781
C            0.00260138610477       -2.89722093362100       -0.00636813315964
O            0.00331052623119       -4.11229759554820       -0.00419068333702
C            1.26740534075811       -2.12051094892074        0.02087785791614
C            2.37112126143965       -2.66901221653067        0.67287837990046
C            3.57101415270418       -1.99001949277392        0.71334268349943
C            3.69323606904226       -0.75728027137000        0.07768589411936
N            4.92306204681331       -0.05613013613089        0.11535269979100
C            5.99836540574306       -0.53864537894289       -0.61965853166706
C            5.83430220092543       -1.66594241269883       -1.42998434093693
C            6.88620995303224       -2.17328858086269       -2.16295957486597
C            8.12338506777116       -1.55751690117382       -2.10953152409054
C            8.27977741713338       -0.42450681936842       -1.33358778908342
C            7.23741697820661        0.10863404044159       -0.58717292556102
C            7.46856114976922        1.37533756231712        0.21397655292068
C            7.89111500641192        2.49621406019102       -0.75328615123569
C            8.58072235998245        1.11314836329881        1.24589326972067
C            6.21900873758454        1.81314474341127        0.95327888971416
C            6.25868246130231        2.95733910106276        1.73862935071976
C            5.16407191094710        3.39031445756601        2.46310037658441
C            3.99484248390573        2.65303687677055        2.42351287925950
C            3.92784405153635        1.51300062837858        1.65082133659685
C            5.02335179934458        1.09004388580018        0.89203531530648
C            2.60337964725158       -0.21953791265517       -0.60162944407460
C            1.39822158126005       -0.89275975016185       -0.62646600878405
C           -2.37071218817664       -2.67900301312797       -0.67296935343789
C           -3.57266353709477       -2.00334454041151       -0.70993961054681
C           -5.98535048702418       -0.53393543930615        0.64713433075959
C           -5.80628944614357       -1.64591874589003        1.47519259757515
C           -6.84364180602630       -2.13677891505718        2.23949029291003
C           -8.08059874091619       -1.51953908968476        2.19969672573448
C           -8.25172867298003       -0.40231313973693        1.40414507292667
C           -7.22435799586639        0.11391437384949        0.62580248417935
H           -8.06606649754737        3.42090661580186        0.20183796162689
H           -8.76840865070712        2.24926058430600        1.31211681037505
H           -7.06891515327868        2.69560365838283        1.46324411065162
H           -8.31028226585534        0.27677654249531       -1.87317107635810
H           -8.82463249026518        1.96207660751672       -1.79642890912765
H           -9.51244106387285        0.78206508571833       -0.68545113677305
H           -7.20417019275821        3.48283954173369       -1.83165601911904
H           -5.28538513710050        4.20972615762057       -3.15105085267505
H           -3.18709300081937        2.88729472998320       -3.09372139224128
H           -3.04410967985382        0.89373684903386       -1.69401000184424
H           -2.70554119210868        0.73569813565044        1.07533671773013
H           -0.55457272556213       -0.46780074481782        1.13940001007497
H            2.26227846064452       -3.62854721119428        1.15569495384471
H            4.42361861530329       -2.40644834364342        1.22878913658897
H            4.86977886757514       -2.14578660987778       -1.49109625382364
H            6.73455854533870       -3.04780031452676       -2.77774319704779
H            8.95623358635245       -1.94735892080016       -2.67444938780532
H            9.24580671128167        0.05686255744192       -1.31420292063296
H            8.07856733484825        3.42212107429700       -0.21670904519296
H            7.10100078281980        2.67446217129658       -1.48043795150227
H            8.79591711092124        2.22574152125596       -1.29028948956801
H            8.78796643488865        2.00577170578109        1.82954820832241
H            8.27404319383892        0.32144676233235        1.92703057542551
H            9.50034103293112        0.80623955523502        0.75552590106867
H            7.17125539255170        3.53135119038714        1.79289662412444
H            5.22871789300181        4.28676662138946        3.06053910272998
H            3.13305270741049        2.96024307680164        2.99713958551737
H            3.01588224848954        0.93616292610595        1.64049088713516
H            2.71243931336294        0.72892505142650       -1.10661102444724
H            0.56456040409276       -0.47927771696835       -1.17457101201760
H           -2.26344961118815       -3.64297571839462       -1.14723737497038
H           -4.42866186620684       -2.42685396241166       -1.21385330600855
H           -4.84147217614784       -2.12654555936987        1.52502974957739
H           -6.68084760931619       -2.99956576406585        2.86785412714634
H           -8.90201917104710       -1.89629719249776        2.78967850040464
H           -9.21742258462801        0.08005161507766        1.39495172195894

          :  Hamiltonian                  GFN2-xTB          :
         :: gradient norm              0.000059050703 Eh/a0 ::
         :: HOMO-LUMO gap              1.483451760753 eV    ::
         :: SCC energy              -122.548042765073 Eh    ::
         :: -> dispersion             -0.112540933552 Eh    ::
         :: repulsion energy           2.149091054969 Eh    ::

    * Orbital Energies and Occupations

         #    Occupation            Energy/Eh            Energy/eV
      -------------------------------------------------------------
         1        2.0000           -0.7082174             -19.2716
       ...           ...                  ...                  ...
       100        2.0000           -0.4094935             -11.1429
       101        2.0000           -0.4091743             -11.1342
       102        2.0000           -0.4084154             -11.1135
       103        2.0000           -0.4082164             -11.1081
       104        2.0000           -0.4043188             -11.0021
       105        2.0000           -0.4041918             -10.9986
       106        2.0000           -0.3987628             -10.8509
       107        2.0000           -0.3986496             -10.8478
       108        2.0000           -0.3951191             -10.7517
       109        2.0000           -0.3933453             -10.7035
       110        2.0000           -0.3932476             -10.7008
       111        2.0000           -0.3483721              -9.4797
       112        2.0000           -0.3481603              -9.4739 (HOMO)
       113                         -0.2936444              -7.9905 (LUMO)
       114                         -0.2489129              -6.7733
       115                         -0.2454469              -6.6790
       116                         -0.2425927              -6.6013
       117                         -0.2250830              -6.1248
       118                         -0.2249424              -6.1210
       119                         -0.2202785              -5.9941
       120                         -0.2200724              -5.9885
       121                         -0.2186474              -5.9497
       122                         -0.2185358              -5.9467
       123                         -0.2014890              -5.4828
       ...                                ...                  ...
       220                          0.6792498              18.4833
      -------------------------------------------------------------
                  HL-Gap            0.0545158 Eh            1.4835 eV

     #   Z          covCN         q      C6AA      α(0)
     1   6 C        3.761    -0.103    22.516     6.764
     2   6 C        3.909     0.021    20.156     6.381
     3   6 C        3.761    -0.103    22.515     6.764
     4   6 C        2.980    -0.013    28.340     8.732
     5   6 C        2.928    -0.036    28.893     8.815
     6   6 C        2.917    -0.044    29.099     8.846
     7   6 C        2.920    -0.033    28.822     8.804
     8   6 C        2.924    -0.059    29.468     8.902
     9   6 C        2.927     0.058    26.704     8.475
    10   7 N        2.754    -0.070    22.596     7.060
    11   6 C        2.928     0.076    26.293     8.409
    12   6 C        2.920    -0.038    28.933     8.821
    13   6 C        2.920    -0.027    28.672     8.781
    14   6 C        2.972    -0.014    28.359     8.735
    15   6 C        2.828     0.226    23.260     7.903
    16   8 O        0.858    -0.368    21.042     6.150
    17   6 C        2.972    -0.014    28.360     8.735
    18   6 C        2.924    -0.018    28.456     8.748
    19   6 C        2.919    -0.037    28.917     8.818
    20   6 C        2.928     0.076    26.298     8.410
    21   7 N        2.754    -0.070    22.590     7.059
    22   6 C        2.927     0.058    26.710     8.476
    23   6 C        2.924    -0.059    29.456     8.900
    24   6 C        2.920    -0.032    28.810     8.802
    25   6 C        2.917    -0.044    29.088     8.844
    26   6 C        2.928    -0.036    28.896     8.816
    27   6 C        2.980    -0.013    28.344     8.733
    28   6 C        3.909     0.021    20.156     6.381
    29   6 C        3.761    -0.103    22.516     6.764
    30   6 C        3.761    -0.103    22.515     6.764
    31   6 C        2.980    -0.013    28.338     8.732
    32   6 C        2.928    -0.036    28.893     8.815
    33   6 C        2.917    -0.044    29.098     8.846
    34   6 C        2.920    -0.033    28.823     8.804
    35   6 C        2.924    -0.059    29.468     8.902
    36   6 C        2.927     0.058    26.705     8.475
    37   6 C        2.920    -0.038    28.936     8.821
    38   6 C        2.920    -0.027    28.673     8.781
    39   6 C        2.924    -0.018    28.454     8.748
    40   6 C        2.919    -0.037    28.914     8.818
    41   6 C        2.928     0.058    26.709     8.475
    42   6 C        2.924    -0.059    29.458     8.901
    43   6 C        2.920    -0.033    28.810     8.802
    44   6 C        2.917    -0.044    29.090     8.844
    45   6 C        2.928    -0.036    28.896     8.816
    46   6 C        2.980    -0.014    28.345     8.733
    47   1 H        0.925     0.039     2.457     2.451
    48   1 H        0.925     0.040     2.454     2.450
    49   1 H        0.925     0.031     2.570     2.507
    50   1 H        0.925     0.031     2.566     2.505
    51   1 H        0.925     0.039     2.458     2.452
    52   1 H        0.925     0.040     2.454     2.450
    53   1 H        0.926     0.031     2.577     2.510
    54   1 H        0.926     0.027     2.633     2.538
    55   1 H        0.926     0.027     2.630     2.536
    56   1 H        0.926     0.021     2.713     2.576
    57   1 H        0.926     0.047     2.359     2.402
    58   1 H        0.926     0.042     2.426     2.435
    59   1 H        0.926     0.061     2.189     2.313
    60   1 H        0.926     0.049     2.329     2.387
    61   1 H        0.926     0.025     2.656     2.549
    62   1 H        0.926     0.029     2.601     2.522
    63   1 H        0.926     0.027     2.627     2.535
    64   1 H        0.926     0.031     2.579     2.511
    65   1 H        0.925     0.039     2.457     2.451
    66   1 H        0.925     0.031     2.569     2.507
    67   1 H        0.925     0.040     2.454     2.450
    68   1 H        0.925     0.039     2.458     2.452
    69   1 H        0.925     0.031     2.566     2.505
    70   1 H        0.925     0.040     2.453     2.449
    71   1 H        0.926     0.031     2.576     2.510
    72   1 H        0.926     0.027     2.633     2.537
    73   1 H        0.926     0.027     2.630     2.536
    74   1 H        0.926     0.021     2.711     2.575
    75   1 H        0.926     0.047     2.359     2.402
    76   1 H        0.926     0.042     2.427     2.436
    77   1 H        0.926     0.061     2.186     2.312
    78   1 H        0.926     0.049     2.328     2.386
    79   1 H        0.926     0.025     2.660     2.550
    80   1 H        0.926     0.029     2.603     2.523
    81   1 H        0.926     0.027     2.628     2.535
    82   1 H        0.926     0.030     2.580     2.512

molecular dipole:
                 x           y           z       tot (Debye)
 q only:        0.009       1.029       0.001
   full:        0.010       1.138       0.001       2.893

 projected vibrational frequencies (cm⁻¹)
eigval :       -0.00    -0.00     0.00     0.00     0.00     0.00
eigval :        7.88     8.30    10.78    20.32    20.99    33.17
eigval :       39.96    44.35    55.74    59.90    76.12    99.16
eigval :      100.74   101.55   103.73   116.86   127.93   128.04
eigval :      136.93   164.76   166.98   182.77   189.64   189.74
eigval :      213.23   219.19   219.68   224.62   235.38   237.66
eigval :      281.85   286.54   306.04   308.44   326.42   331.49
eigval :      332.08   341.45   344.34   345.26   370.62   377.49
eigval :      379.38   379.89   390.42   392.90   409.37   409.58
eigval :      425.07   439.54   451.75   452.15   483.69   486.69
eigval :      492.28   497.32   515.03   515.06   541.37   547.39
eigval :      547.40   552.85   568.62   577.22   583.63   590.75
eigval :      598.39   602.96   611.92   626.40   651.02   658.55
eigval :      673.75   682.73   682.83   693.75   693.84   694.83
eigval :      709.58   735.89   738.73   766.00   776.54   776.60
eigval :      778.19   778.28   817.71   821.31   828.70   830.32
eigval :      865.61   865.80   868.02   868.31   872.77   877.93
eigval :      891.53   913.06   913.18   914.21   914.26   915.09
eigval :      916.01   920.25   920.65   921.08   921.43   921.82
eigval :      922.36   926.12   929.49   935.67   938.39   939.03
eigval :      956.60   957.34   957.34  1014.39  1014.46  1014.71
eigval :     1028.83  1077.20  1077.22  1086.09  1086.13  1114.57
eigval :     1114.73  1120.24  1120.33  1129.21  1130.36  1141.23
eigval :     1141.25  1160.42  1160.45  1168.27  1172.28  1176.98
eigval :     1180.99  1185.75  1187.59  1188.04  1188.55  1188.62
eigval :     1203.71  1213.26  1243.10  1246.64  1250.36  1250.46
eigval :     1259.56  1261.89  1262.15  1269.38  1269.54  1295.19
eigval :     1295.27  1311.24  1314.30  1319.15  1320.98  1326.11
eigval :     1326.28  1334.98  1335.07  1341.19  1341.65  1400.41
eigval :     1402.18  1403.14  1403.24  1421.17  1421.20  1436.49
eigval :     1436.60  1443.02  1443.20  1472.59  1474.52  1480.05
eigval :     1480.24  1489.92  1489.95  1490.95  1490.96  1496.73
eigval :     1497.13  1500.50  1500.50  1505.27  1505.30  1557.08
eigval :     1558.63  1576.08  1576.11  1581.95  1584.13  1591.52
eigval :     1591.61  1593.38  1593.40  1602.86  1603.04  1691.49
eigval :     3026.48  3026.52  3028.64  3028.67  3040.02  3040.05
eigval :     3042.71  3042.75  3048.81  3048.85  3052.72  3052.79
eigval :     3078.29  3078.38  3079.65  3079.78  3081.07  3083.03
eigval :     3083.56  3083.68  3084.24  3084.36  3089.00  3089.13
eigval :     3093.48  3093.91  3094.30  3094.68  3095.14  3095.43
eigval :     3099.41  3099.61  3100.05  3100.32  3102.14  3102.40

   temp. (K)  partition function   enthalpy   heat capacity  entropy
                                   cal/mol     cal/K/mol   cal/K/mol   J/K/mol
 298.15  VIB  0.256E+19            23116.498    145.154    144.203
         ROT  0.910E+08              888.752      2.981     39.399
         INT  0.233E+27            24005.251    148.135    183.602
         TR   0.141E+29             1481.254      4.968     45.022
         TOT                       25486.5045   153.1032   228.6244   956.5646

       T/K    H(0)-H(T)+PV         H(T)/Eh          T*S/Eh         G(T)/Eh
   ------------------------------------------------------------------------
    298.15    0.406153E-01    0.695362E+00    0.108627E+00    0.586735E+00
   ------------------------------------------------------------------------

         :::::::::::::::::::::::::::::::::::::::::::::::::::::
         ::                  THERMODYNAMIC                  ::
         :::::::::::::::::::::::::::::::::::::::::::::::::::::
         :: total free energy        -119.812216504752 Eh   ::
         ::.................................................::
         :: total energy             -120.398951710104 Eh   ::
         :: zero point energy           0.654746719877 Eh   ::
         :: G(RRHO) w/o ZPVE           -0.068011514525 Eh   ::
         :: G(RRHO) contrib.            0.586735205353 Eh   ::
         :::::::::::::::::::::::::::::::::::::::::::::::::::::

           -------------------------------------------------
          | TOTAL ENERGY             -120.398951710104 Eh   |
          | TOTAL ENTHALPY           -119.703589660050 Eh   |
          | TOTAL FREE ENERGY        -119.812216504752 Eh   |
          | GRADIENT NORM               0.000059045574 Eh/α |
          | HOMO-LUMO GAP               1.483451463598 eV   |
           -------------------------------------------------

 * finished run on 2025/09/14 at 06:31:35.676
