   * xtb version 6.7.1 (edcfbbe) compiled by 'albert@albert-system' on 2024-07-22

   ID    Z sym.   atoms
    1    6 C      1-9, 11-15, 17-20, 22-46
    2    7 N      10, 21
    3    8 O      16
    4    1 H      47-82

          program call               : xtb data2507/gas/DMAC-BP/DMAC-BP_gas_T1_crest.xyz --gfn 2 --spinpol --tblite --uhf 2 --ohess vtight --parallel 40 --molden --ceasefiles --namespace data2507/gas/DMAC-BP/DMAC-BP_gas_T1_finalOpt
 * total energy  :  -120.3252131 Eh     change       -0.2862066E-09 Eh
 * total energy  :  -120.3252502 Eh     change       -0.3710114E-04 Eh
 * total energy  :  -120.3252621 Eh     change       -0.1189602E-04 Eh
 * total energy  :  -120.3252631 Eh     change       -0.1003229E-05 Eh
 * total energy  :  -120.3252639 Eh     change       -0.8336726E-06 Eh
 * total energy  :  -120.3252651 Eh     change       -0.1149703E-05 Eh
 * total energy  :  -120.3252666 Eh     change       -0.1517553E-05 Eh
 * total energy  :  -120.3252679 Eh     change       -0.1309518E-05 Eh
 * total energy  :  -120.3252689 Eh     change       -0.9993195E-06 Eh
 * total energy  :  -120.3252701 Eh     change       -0.1166176E-05 Eh
 * total energy  :  -120.3252919 Eh     change       -0.2765768E-06 Eh
 * total energy  :  -120.3252921 Eh     change       -0.1972944E-06 Eh
 * total energy  :  -120.3252924 Eh     change       -0.2785694E-06 Eh
 * total energy  :  -120.3252927 Eh     change       -0.3039781E-06 Eh
 * total energy  :  -120.3252930 Eh     change       -0.3658037E-06 Eh
 * total energy  :  -120.3252934 Eh     change       -0.3588285E-06 Eh
 * total energy  :  -120.3252936 Eh     change       -0.1618961E-06 Eh
 * total energy  :  -120.3252937 Eh     change       -0.1572183E-06 Eh
 * total energy  :  -120.3252937 Eh     change       -0.2739296E-07 Eh
   *** GEOMETRY OPTIMIZATION CONVERGED AFTER 44 ITERATIONS ***

 final structure:
================
82
 xtb: 6.7.1 (edcfbbe)
C           -7.97444888769177        2.60284911955296        0.51883472749981
C           -7.65408086470896        1.26424645888843       -0.17280252595672
C           -8.90305531197049        0.72709594859549       -0.89679401311032
C           -6.56318511333331        1.49473223646907       -1.19809561626320
C           -6.77880887015444        2.38136216873228       -2.24379283332833
C           -5.82243526512549        2.61555692757497       -3.21463341763200
C           -4.61263579504288        1.94265577782109       -3.15534562809433
C           -4.36991592711648        1.05825736103411       -2.12873347989016
C           -5.33070231530357        0.82868043002922       -1.13457036704537
N           -5.05247208632589       -0.05718652624734       -0.11513773017966
C           -3.77840519027397       -0.69536791602631       -0.08328844730884
C           -2.67870924375599       -0.02212976942786        0.44779676276634
C           -1.44253830099531       -0.62449946820682        0.47796386955004
C           -1.26281438909124       -1.92050539353066       -0.03754256237313
C           -0.00097853631981       -2.63277835783992        0.00095943149863
O           -0.00118328452415       -3.90200173271142        0.00044536762449
C            1.26094119619729       -1.92082063411728        0.03966446069095
C            2.39576501864869       -2.60646707745281        0.52143999227377
C            3.62668404092516       -2.00221006287865        0.55557698402497
C            3.77723422712650       -0.69690167476878        0.08412775659907
N            5.05200029243739       -0.06005919400281        0.11486024639943
C            5.96686984282454       -0.34432035696702       -0.87754314580598
C            5.61986680751614       -1.23867865852459       -1.89926316728906
C            6.51372052800959       -1.55037294846305       -2.89873669166581
C            7.77298927947292       -0.97225025488761       -2.90335268976191
C            8.11456445082996       -0.07882793805183       -1.90477051699160
C            7.23474267924992        0.25508914166046       -0.88470533529931
C            7.65845430038037        1.25175533959822        0.17448722409466
C            7.98673353161847        2.59020899579297       -0.51369275997134
C            8.90387476023163        0.70602062835435        0.89820820831707
C            6.56797734378628        1.48553166222301        1.19949402657591
C            6.78665485112233        2.37023565996363        2.24619369561710
C            5.83083786866265        2.60718382851578        3.21691242370966
C            4.61852865206766        1.93891639834798        3.15659102549357
C            4.37291745390304        1.05619947722107        2.12921014444410
C            5.33312833049488        0.82395977728417        1.13511742296402
C            2.67709242822418       -0.02219207847281       -0.44419616485684
C            1.44060509157514       -0.62392468359612       -0.47371724107690
C           -2.39729157516653       -2.60489155455778       -0.52181436437310
C           -3.62789472872741       -1.99997378555411       -0.55664467921083
C           -5.96903527534835       -0.34102333339087        0.87578788948119
C           -5.62599960657041       -1.23957819520761        1.89516757632210
C           -6.52166988146198       -1.55088610072171        2.89312632872382
C           -7.77871900755451       -0.96795757450941        2.89871880305560
C           -8.11633863083291       -0.07041415869054        1.90249178820484
C           -7.23477591597069        0.26289310109421        0.88373064549690
H           -8.76632602543495        2.47987933114547        1.25221150274332
H           -7.08892472613979        2.97744735725128        1.02883160671547
H           -8.29361855885238        3.34650390430001       -0.20588261669444
H           -8.67022656885816       -0.21716132314338       -1.38528231450357
H           -9.24494292146239        1.42897476442575       -1.65212367033003
H           -9.71533413419305        0.55947820030819       -0.19531042836294
H           -7.71922380632723        2.90715412678076       -2.30941903678870
H           -6.02251451504215        3.31306106214201       -4.01346474624171
H           -3.85894824632498        2.10602481163761       -3.91065439367932
H           -3.43111349502274        0.52905319273519       -2.08588222660936
H           -2.81355206957584        0.97290065129228        0.84852273320211
H           -0.61615812632116       -0.10934175657598        0.94308085339195
H            2.26246049299202       -3.61728724871902        0.87516470015770
H            4.48845709885051       -2.52548574104711        0.94424453263778
H            4.63794731654329       -1.68454044269660       -1.89955679550172
H            6.22750530266218       -2.24342033461580       -3.67508437404600
H            8.48235452083166       -1.21099839115533       -3.68082216393643
H            9.09661993152968        0.36864667902344       -1.92734922810535
H            8.30789794019803        3.33089207496427        0.21316289895623
H            7.10413497258554        2.97005337151752       -1.02487431618134
H            8.77965816373068        2.46500336292272       -1.24554888204138
H            9.24765975117424        1.40323721310223        1.65699641172618
H            8.66606468106585       -0.23920122059821        1.38241939287657
H            9.71643754293788        0.53764913445580        0.19721330277810
H            7.72911942495772        2.89223304604388        2.31276889875929
H            6.03328816666644        3.30319509809929        4.01644765670141
H            3.86516771589018        2.10451192132144        3.91173999656345
H            3.43221216326256        0.53044931792428        2.08567133837578
H            2.81185066425981        0.97345911660485       -0.84340763296428
H            0.61386687452022       -0.10752967885699       -0.93681348170279
H           -2.26399576699639       -3.61517998730929       -0.87705930617527
H           -4.48937198937677       -2.52215556953352       -0.94743328143799
H           -4.64573374725698       -1.68906482426187        1.89480781953054
H           -6.23859618857948       -2.24734657552662        3.66757014486014
H           -8.48941081064173       -1.20617938243118        3.67513862056567
H           -9.09660432810244        0.38093220261780        1.92598706051012

 projected vibrational frequencies (cm⁻¹)
eigval :       -0.00    -0.00    -0.00     0.00     0.00     0.00
eigval :        6.51     7.20    11.94    21.87    23.66    28.89
eigval :       36.74    49.84    59.80    65.15    84.84    95.76
eigval :       98.86   100.76   102.57   121.33   129.26   129.77
eigval :      130.13   168.45   171.65   181.55   192.21   192.23
eigval :      216.18   217.72   217.76   233.30   233.70   236.50
eigval :      278.50   300.50   305.67   306.02   327.67   327.76
eigval :      335.56   336.20   342.42   344.31   373.40   378.32
eigval :      379.05   384.56   392.31   396.39   405.66   410.62
eigval :      421.63   423.02   450.84   450.97   462.91   477.71
eigval :      507.00   508.24   508.26   510.26   529.96   544.25
eigval :      544.35   545.25   557.26   564.17   581.20   583.55
eigval :      591.68   593.11   604.29   608.77   616.10   651.36
eigval :      664.54   671.69   680.55   686.37   686.40   699.22
eigval :      699.22   703.60   731.32   761.30   775.01   775.11
eigval :      776.78   776.80   795.72   809.30   825.61   826.11
eigval :      844.57   860.50   868.75   868.83   870.03   870.06
eigval :      882.13   897.07   904.39   910.32   912.99   913.76
eigval :      913.77   914.64   914.65   915.35   915.37   922.17
eigval :      922.18   922.80   922.81   935.94   936.93   937.95
eigval :      942.64   957.71   957.71  1001.90  1008.57  1013.66
eigval :     1013.67  1076.19  1076.19  1085.41  1085.73  1107.24
eigval :     1107.94  1114.46  1114.47  1124.56  1129.82  1138.77
eigval :     1138.78  1153.93  1153.94  1158.11  1163.82  1169.36
eigval :     1171.22  1184.47  1184.52  1185.24  1185.28  1187.63
eigval :     1200.96  1215.80  1238.86  1243.15  1243.83  1243.84
eigval :     1248.65  1253.92  1260.13  1260.55  1263.02  1294.80
eigval :     1294.81  1308.89  1312.27  1319.25  1319.28  1325.28
eigval :     1327.19  1332.35  1332.39  1335.39  1335.43  1401.78
eigval :     1401.82  1404.12  1405.55  1419.78  1419.89  1425.41
eigval :     1426.96  1427.04  1431.21  1433.74  1442.49  1456.68
eigval :     1460.67  1460.69  1481.67  1484.07  1488.35  1488.35
eigval :     1489.00  1489.00  1490.44  1493.24  1498.86  1498.88
eigval :     1502.68  1502.68  1550.48  1559.48  1559.51  1573.99
eigval :     1574.24  1582.30  1582.32  1587.46  1593.39  1593.77
eigval :     3028.81  3028.82  3030.86  3030.89  3042.37  3042.38
eigval :     3044.83  3044.84  3051.30  3051.30  3054.55  3054.74
eigval :     3069.14  3069.79  3076.19  3076.26  3082.58  3082.62
eigval :     3082.97  3082.99  3087.92  3087.93  3089.10  3089.12
eigval :     3090.61  3092.90  3098.10  3098.27  3098.71  3099.02
eigval :     3099.84  3100.19  3108.38  3108.55  3110.76  3110.80

   temp. (K)  partition function   enthalpy   heat capacity  entropy
                                   cal/mol     cal/K/mol   cal/K/mol   J/K/mol
 298.15  VIB  0.256E+19            23210.400    146.413    144.597
         ROT  0.471E+08              888.752      2.981     38.092
         INT  0.121E+27            24099.153    149.394    182.689
         TR   0.141E+29             1481.254      4.968     45.022
         TOT                       25580.4065   154.3622   227.7115   952.7451

       T/K    H(0)-H(T)+PV         H(T)/Eh          T*S/Eh         G(T)/Eh
   ------------------------------------------------------------------------
    298.15    0.407650E-01    0.692624E+00    0.108193E+00    0.584431E+00
   ------------------------------------------------------------------------

         :::::::::::::::::::::::::::::::::::::::::::::::::::::
         ::                  THERMODYNAMIC                  ::
         :::::::::::::::::::::::::::::::::::::::::::::::::::::
         :: total free energy        -119.740862436415 Eh   ::
         ::.................................................::
         :: total energy             -120.325293747563 Eh   ::
         :: zero point energy           0.651859436606 Eh   ::
         :: G(RRHO) w/o ZPVE           -0.067428125458 Eh   ::
         :: G(RRHO) contrib.            0.584431311148 Eh   ::
         :::::::::::::::::::::::::::::::::::::::::::::::::::::

           -------------------------------------------------
          | TOTAL ENERGY             -120.325293747563 Eh   |
          | TOTAL ENTHALPY           -119.632669338351 Eh   |
          | TOTAL FREE ENERGY        -119.740862436415 Eh   |
          | GRADIENT NORM               0.000048960010 Eh/α |
           -------------------------------------------------

 * finished run on 2025/09/14 at 06:39:29.922
