   * xtb version 6.7.1 (edcfbbe) compiled by 'albert@albert-system' on 2024-07-22

   ID    Z sym.   atoms
    1    6 C      1-9, 11-15, 17-20, 22-46
    2    7 N      10, 21
    3    8 O      16
    4    1 H      47-82

          program call               : xtb data2507/gas/DMAC-BP/DMAC-BP_gas_S0_finalOpt.xtbopt.xyz --gfn 2 --spinpol --tblite --uhf 2 --ohess vtight --parallel 40 --molden --ceasefiles --namespace data2507/gas/DMAC-BP/DMAC-BP_gas_T1_preOpt
 * total energy  :  -120.3186017 Eh     change       -0.4641448E-07 Eh
 * total energy  :  -120.3225243 Eh     change       -0.3922590E-02 Eh
 * total energy  :  -120.3234689 Eh     change       -0.9446475E-03 Eh
 * total energy  :  -120.3235965 Eh     change       -0.1276298E-03 Eh
 * total energy  :  -120.3237050 Eh     change       -0.1084590E-03 Eh
 * total energy  :  -120.3238013 Eh     change       -0.9628411E-04 Eh
 * total energy  :  -120.3239202 Eh     change       -0.1188990E-03 Eh
 * total energy  :  -120.3240080 Eh     change       -0.8783996E-04 Eh
 * total energy  :  -120.3240497 Eh     change       -0.4172231E-04 Eh
 * total energy  :  -120.3240898 Eh     change       -0.4008453E-04 Eh
 * total energy  :  -120.3251698 Eh     change       -0.1035868E-05 Eh
 * total energy  :  -120.3251708 Eh     change       -0.1028080E-05 Eh
 * total energy  :  -120.3251720 Eh     change       -0.1142894E-05 Eh
 * total energy  :  -120.3251731 Eh     change       -0.1157126E-05 Eh
 * total energy  :  -120.3251744 Eh     change       -0.1281351E-05 Eh
 * total energy  :  -120.3251757 Eh     change       -0.1302353E-05 Eh
 * total energy  :  -120.3251771 Eh     change       -0.1357026E-05 Eh
 * total energy  :  -120.3251786 Eh     change       -0.1506708E-05 Eh
 * total energy  :  -120.3251786 Eh     change       -0.1530050E-07 Eh
   *** GEOMETRY OPTIMIZATION CONVERGED AFTER 94 ITERATIONS ***

 final structure:
================
82
 xtb: 6.7.1 (edcfbbe)
C           -8.02801623104784        2.55653424068342        0.43162660554391
C           -7.65384204107189        1.27023110522858       -0.32884687279287
C           -8.85285699725264        0.77506193955396       -1.15942196467994
C           -6.50854750747168        1.57544230407446       -1.27181268323329
C           -6.67339735849351        2.53032020221834       -2.26542685176257
C           -5.66941270835578        2.82974671554340       -3.16772143348361
C           -4.46372799386128        2.15103282020125       -3.09411494041864
C           -4.27087576863793        1.19999377702770       -2.11770791341165
C           -5.27766881071564        0.90873049172058       -1.18715352946058
N           -5.04695468946053       -0.03874619897738       -0.21138084286082
C           -3.77348573986638       -0.67422117397831       -0.15195914609689
C           -2.68572792745878        0.00051203738120        0.40243034743761
C           -1.45037505393913       -0.60093874676276        0.46097767541496
C           -1.25894653761339       -1.89891018492011       -0.04561574158992
C            0.00156914682264       -2.61033282369196        0.02995590853480
O            0.00232806137139       -3.87927590521467        0.04252222694229
C            1.26132560104234       -1.89615489324156        0.09149941336033
C            2.38459825434639       -2.57028198517765        0.61447006593573
C            3.61290625800000       -1.96234547841925        0.66889873387187
C            3.77440958737083       -0.66664490363804        0.17415023811549
N            5.04706335268352       -0.02855189768701        0.22140711361925
C            6.01508553281225       -0.39522573837259       -0.69125125489348
C            5.72004133392829       -1.36565408756008       -1.65859089536670
C            6.66963968627197       -1.76511066963039       -2.57172324142079
C            7.93435461809613       -1.19981867866841       -2.54450090691242
C            8.22312399414189       -0.22645923484242       -1.60588117054895
C            7.28609998116126        0.19736798998934       -0.67389473540897
C            7.65227099883521        1.28582789416624        0.31380953936845
C            8.02613434058728        2.55569948235721       -0.47393263906707
C            8.85064236415510        0.81018682422613        1.15663510289880
C            6.50534215142102        1.61011260748740        1.24838165206104
C            6.66775935351392        2.58658556576167        2.22119279199481
C            5.66234422958106        2.90416610595365        3.11565081023866
C            4.45772089364698        2.22224982361748        3.05554340650732
C            4.26726899133077        1.24997427365345        2.09979950232264
C            5.27543964166886        0.94007515178439        1.17678159676629
C            2.68615488335292       -0.00460099429682       -0.39440398089436
C            1.45152120787313       -0.60854648959824       -0.44130560937757
C           -2.38168999445356       -2.58478077404727       -0.55428751946692
C           -3.61073619992638       -1.97950720648635       -0.62038539951198
C           -6.01339173222011       -0.38681127475978        0.71017019643799
C           -5.71601033217682       -1.33598156689530        1.69767271256587
C           -6.66393863625923       -1.71669590080852        2.62049414098601
C           -7.92926731206908       -1.15336934351273        2.58291635420467
C           -8.22037960647632       -0.20075919614664        1.62395036820580
C           -7.28509310323262        0.20387213346038        0.68174469723787
H           -8.30964925178496        3.34674211279845       -0.25852854095044
H           -8.86173848891706        2.37933009723166        1.10507220386046
H           -7.17861358464048        2.89959788253171        1.01933445118699
H           -8.58123678724867       -0.13096357264081       -1.69776131564538
H           -9.15900532637579        1.52523990955337       -1.88301030927737
H           -9.70205380777716        0.55262608434671       -0.51961793647172
H           -7.61147286959288        3.05843034174351       -2.34438099604622
H           -5.83019801521842        3.58025459402577       -3.92636602803737
H           -3.67423136648670        2.36151444445258       -3.79954819744743
H           -3.33554448996608        0.66557438364608       -2.06684429597591
H           -2.82983709196972        0.99625211542047        0.79820758000850
H           -0.63383946228925       -0.08394013923431        0.94135771992748
H            2.24409313098590       -3.57418886050974        0.98466458699538
H            4.46485599811433       -2.47562429688829        1.09122836938176
H            4.73389359023166       -1.80088513341120       -1.68711696678878
H            6.42228845641658       -2.51651081770968       -3.30599403194467
H            8.68776619756849       -1.50832520459770       -3.25290244508354
H            9.20894588352535        0.21321369567147       -1.60595742182652
H            8.30562108581124        3.36115649212089        0.19925903342954
H            7.17729588385131        2.88475286478064       -1.07039454121876
H            8.86121002099090        2.36490413518315       -1.14196704285423
H            9.15515852806626        1.57640510118765        1.86392369565761
H            8.57909913210448       -0.08400044866373        1.71444777818495
H            9.70088427531239        0.57447133252729        0.52299941066218
H            7.60504086284381        3.11755250827292        2.28971987942817
H            5.82122903858180        3.67122717977306        3.85796421424513
H            3.66717406213662        2.44681278915255        3.75543844123108
H            3.33277118778124        0.71319466244745        2.05963848212392
H            2.82932425826255        0.98304487075713       -0.81029188886738
H            0.63462374275596       -0.10237055670496       -0.93247561807276
H           -2.24018431600303       -3.59583324076846       -0.90409683303568
H           -4.46231308985072       -2.50224493283594       -1.03172250263519
H           -4.72938551226945       -1.76954030742659        1.73410162579527
H           -6.41479884207588       -2.45188439053726        3.37040271003653
H           -8.68135524959353       -1.44728804175031        3.29888568761044
H           -9.20668161802335        0.23776131230724        1.61591749316389

 projected vibrational frequencies (cm⁻¹)
eigval :       -0.00    -0.00    -0.00     0.00     0.00     0.00
eigval :        8.01     8.07    11.99    21.54    23.38    32.46
eigval :       37.96    50.73    60.53    65.36    85.01    96.70
eigval :      100.14   100.98   103.87   121.94   129.11   129.61
eigval :      130.49   168.63   172.00   182.47   192.01   192.02
eigval :      216.50   217.77   218.12   234.01   234.54   236.75
eigval :      278.13   300.66   306.04   306.13   327.95   328.09
eigval :      334.54   336.36   342.31   345.15   374.07   378.48
eigval :      378.73   384.41   391.87   396.24   405.55   410.85
eigval :      420.59   423.65   451.37   451.45   462.81   477.11
eigval :      507.09   508.25   508.34   510.87   530.24   544.32
eigval :      544.41   545.27   557.18   564.38   581.09   583.61
eigval :      591.22   593.15   604.26   608.88   616.38   651.03
eigval :      664.35   671.23   680.12   686.42   686.45   699.25
eigval :      699.25   703.44   731.40   761.14   775.09   775.20
eigval :      776.87   776.89   796.32   809.66   825.64   826.13
eigval :      845.03   861.01   868.87   869.01   870.31   870.33
eigval :      881.88   898.00   904.92   910.96   912.95   913.53
eigval :      913.54   914.72   914.73   915.41   915.41   922.16
eigval :      922.17   922.88   922.88   935.01   936.85   937.83
eigval :      942.45   957.72   957.73  1001.65  1008.57  1013.72
eigval :     1013.72  1076.13  1076.15  1085.19  1085.56  1107.84
eigval :     1108.53  1114.82  1114.84  1125.06  1129.96  1138.90
eigval :     1138.91  1153.90  1153.92  1157.99  1164.25  1169.70
eigval :     1171.27  1184.70  1184.74  1185.23  1185.32  1187.76
eigval :     1200.99  1215.62  1239.05  1243.15  1244.04  1244.09
eigval :     1248.81  1254.31  1260.15  1260.47  1263.05  1294.82
eigval :     1294.82  1308.39  1311.95  1317.68  1317.68  1326.23
eigval :     1328.43  1331.54  1331.55  1335.48  1335.55  1401.84
eigval :     1401.85  1404.85  1406.97  1419.64  1419.67  1425.79
eigval :     1426.72  1427.32  1430.99  1432.81  1442.19  1456.70
eigval :     1460.42  1460.44  1482.34  1483.26  1488.38  1488.39
eigval :     1489.02  1489.02  1489.77  1492.83  1498.87  1498.88
eigval :     1502.71  1502.72  1548.48  1559.38  1559.39  1573.65
eigval :     1573.99  1582.08  1582.10  1586.53  1593.37  1593.83
eigval :     3028.62  3028.66  3030.65  3030.69  3042.33  3042.34
eigval :     3044.75  3044.76  3050.88  3050.89  3054.28  3054.42
eigval :     3068.63  3069.29  3075.55  3075.65  3082.49  3082.50
eigval :     3082.87  3082.90  3087.67  3087.68  3088.95  3088.96
eigval :     3089.59  3092.08  3098.05  3098.21  3098.70  3099.02
eigval :     3099.77  3100.10  3109.23  3109.29  3111.78  3111.80

   temp. (K)  partition function   enthalpy   heat capacity  entropy
                                   cal/mol     cal/K/mol   cal/K/mol   J/K/mol
 298.15  VIB  0.154E+19            23188.839    146.506    144.118
         ROT  0.469E+08              888.752      2.981     38.084
         INT  0.723E+26            24077.591    149.487    182.202
         TR   0.141E+29             1481.254      4.968     45.022
         TOT                       25558.8449   154.4555   227.2248   950.7084

       T/K    H(0)-H(T)+PV         H(T)/Eh          T*S/Eh         G(T)/Eh
   ------------------------------------------------------------------------
    298.15    0.407306E-01    0.692619E+00    0.107962E+00    0.584657E+00
   ------------------------------------------------------------------------

         :::::::::::::::::::::::::::::::::::::::::::::::::::::
         ::                  THERMODYNAMIC                  ::
         :::::::::::::::::::::::::::::::::::::::::::::::::::::
         :: total free energy        -119.740521770358 Eh   ::
         ::.................................................::
         :: total energy             -120.325178467018 Eh   ::
         :: zero point energy           0.651887900697 Eh   ::
         :: G(RRHO) w/o ZPVE           -0.067231204037 Eh   ::
         :: G(RRHO) contrib.            0.584656696660 Eh   ::
         :::::::::::::::::::::::::::::::::::::::::::::::::::::

           -------------------------------------------------
          | TOTAL ENERGY             -120.325178467018 Eh   |
          | TOTAL ENTHALPY           -119.632559954411 Eh   |
          | TOTAL FREE ENERGY        -119.740521770358 Eh   |
          | GRADIENT NORM               0.000088143217 Eh/α |
           -------------------------------------------------

 * finished run on 2025/09/14 at 06:31:53.805
