   * xtb version 6.7.1 (edcfbbe) compiled by 'albert@albert-system' on 2024-07-22

   ID    Z sym.   atoms
    1    6 C      1-14, 16-20, 22-36, 39-50
    2    7 N      15, 21
    3   15 P      37
    4    8 O      38
    5    1 H      51-87

          program call               : xtb data2507/toluene/DCzPO/DCzPO.xyz --gfn 2 --gbsa toluene --ohess vtight --parallel 40 --molden --ceasefiles --namespace data2507/toluene/DCzPO/DCzPO_toluene_S0_preOpt
      * Solvation model:               GBSA
        Solvent                        toluene
        Solvent mass                       9.2140E+01 g/mol
          :  Hamiltonian                  GFN2-xTB          :
 * total energy  :  -129.9811425 Eh     change       -0.5899210E-09 Eh
 * total energy  :  -129.9982786 Eh     change       -0.1713613E-01 Eh
 * total energy  :  -130.0035269 Eh     change       -0.5248256E-02 Eh
 * total energy  :  -130.0051290 Eh     change       -0.1602119E-02 Eh
 * total energy  :  -130.0061969 Eh     change       -0.1067918E-02 Eh
 * total energy  :  -130.0066433 Eh     change       -0.4463773E-03 Eh
 * total energy  :  -130.0069501 Eh     change       -0.3067597E-03 Eh
 * total energy  :  -130.0071946 Eh     change       -0.2445506E-03 Eh
 * total energy  :  -130.0073516 Eh     change       -0.1569443E-03 Eh
 * total energy  :  -130.0074903 Eh     change       -0.1387163E-03 Eh
 * total energy  :  -130.0091719 Eh     change       -0.5142924E-06 Eh
 * total energy  :  -130.0091737 Eh     change       -0.1832659E-05 Eh
 * total energy  :  -130.0091747 Eh     change       -0.9644513E-06 Eh
 * total energy  :  -130.0091753 Eh     change       -0.6360061E-06 Eh
 * total energy  :  -130.0091759 Eh     change       -0.5601720E-06 Eh
 * total energy  :  -130.0091762 Eh     change       -0.3425139E-06 Eh
 * total energy  :  -130.0091765 Eh     change       -0.2595564E-06 Eh
 * total energy  :  -130.0091767 Eh     change       -0.1694358E-06 Eh
 * total energy  :  -130.0091767 Eh     change       -0.5537800E-08 Eh
   *** GEOMETRY OPTIMIZATION CONVERGED AFTER 63 ITERATIONS ***

 final structure:
================
87
 xtb: 6.7.1 (edcfbbe)
C            7.01418837547982        3.01283540000992        0.21679640579005
C            5.78687674797786        2.26699137742659       -0.21799707054797
C            4.71697743233570        2.97341367493823       -0.77753279803429
C            3.55471524434149        2.34884676569658       -1.18285693557774
C            3.47102976846433        0.97332331607441       -1.02983769310955
C            4.53858950296057        0.23900687617635       -0.47105775267601
C            5.69347086699510        0.89475123530936       -0.06504589621677
C            4.12822969086597       -1.13778708432979       -0.46359256958764
C            4.75555404947348       -2.32001184196821       -0.09109077464200
C            4.09979605789961       -3.52436531445395       -0.27620438368626
C            4.73605797783448       -4.82191492858409        0.12893788532073
C            2.82858460948955       -3.53566779195265       -0.86127394896084
C            2.18244085733044       -2.37623794691597       -1.23791656202417
C            2.82467000730456       -1.17194629475482       -1.00224929493392
N            2.42455563709599        0.11584204722416       -1.31243863613925
C            1.19705797075573        0.47658200569566       -1.87799032366312
C            1.18625616038889        1.12913485076699       -3.10815437282252
C           -0.01283003626993        1.47623121141865       -3.70198016893344
C           -1.20718252679906        1.12822935734460       -3.09915024817548
C           -1.20782436704340        0.47573857440040       -1.86899919579201
N           -2.43060209170947        0.11399312247994       -1.29365618877041
C           -2.83033945050414       -1.17480635425290       -0.98724252795131
C           -2.19075020153634       -2.37856098343521       -1.23279077276826
C           -2.83659819450873       -3.53916127892545       -0.85960216498810
C           -4.10465312049454       -3.52941913312938       -0.26757229681286
C           -4.74603643511377       -4.83037060992484        0.11852263796083
C           -4.75732951330684       -2.32531852383944       -0.07093135902710
C           -4.13049390441260       -1.14175056177980       -0.44039556615087
C           -4.53988554103363        0.23541829052087       -0.44011872613578
C           -5.69205273826683        0.89068870298553       -0.02566722432659
C           -5.78559788019653        2.26340734220924       -0.17459242063469
C           -7.01587501759602        3.00698642606028        0.25580363898131
C           -4.71886524327622        2.97075780654824       -0.73887631846146
C           -3.55908768279272        2.34678718748743       -1.15210227948250
C           -3.47518741742305        0.97091841228789       -1.00286760029546
C           -0.00284858351944        0.18694646157212       -1.21873140732642
P            0.00123948944482       -0.44217403488319        0.51256786842338
O           -0.00356192919780       -1.90526702692790        0.67547573650783
C            1.43154548685437        0.33220283324055        1.33763768072924
C            2.23618558691906       -0.51599516519892        2.08619412566145
C            3.30687504126414       -0.01185136956235        2.80150934169590
C            3.56877623862628        1.34784322725975        2.78281586952988
C            2.76516555973166        2.19824602059914        2.04134600622750
C            1.70190815545788        1.69432806209179        1.31542154074353
C           -1.41888184841211        0.34228547872890        1.34567756858504
C           -1.68038061040260        1.70615282399089        1.32361440559229
C           -2.73686567667791        2.21762358595774        2.05409604940011
C           -3.54268639892089        1.37316458061601        2.79996563625534
C           -3.28917543716009        0.01189196786286        2.81910324513738
C           -2.22514711169700       -0.49991208219153        2.09924153333704
H            6.77015396847591        3.70508435969721        1.02252567478963
H            7.42100508418745        3.59484213329134       -0.60936525228149
H            7.78031472896891        2.32756237918027        0.57025288104926
H            4.80541583692221        4.04463321239384       -0.89079665268595
H            2.73768070508697        2.91692580295522       -1.60237413100017
H            6.50863556858453        0.33410957015977        0.36838023758313
H            5.74977342169057       -2.29540674144751        0.33087167821389
H            4.74795181053926       -5.51994673223595       -0.70713709814129
H            4.16864606264029       -5.28223927377636        0.93804938129213
H            5.75687881245171       -4.66512586101109        0.46822060274367
H            2.33954862695324       -4.48535485555210       -1.02527961181767
H            1.20770882760431       -2.41073775738000       -1.70044479611387
H            2.12653538295361        1.34852302840563       -3.59118823570509
H           -0.01658938939533        1.98769946359084       -4.65226391976308
H           -2.15134368634365        1.34689066785939       -3.57491019851173
H           -1.21825147611748       -2.41151209451614       -1.70012052361230
H           -2.35021688396966       -4.48879885158260       -1.03163773364078
H           -5.70351312943068       -4.66258606906941        0.60517165646902
H           -4.10036925923865       -5.38477129336435        0.79876532363788
H           -4.90853856969295       -5.44955885976200       -0.76366943361535
H           -5.74907899316700       -2.30181221211516        0.35688902581444
H           -6.50492244479560        0.32939007584630        0.41128261878347
H           -7.52392051779197        3.43172528916571       -0.61016922906529
H           -7.70824057364901        2.34666075983749        0.77151209298657
H           -6.75270006524930        3.82756253234988        0.92184076628931
H           -4.80787149317547        4.04215242952994       -0.84986410443922
H           -2.74415651124961        2.91543599362017       -1.57489426064776
H            2.01188305661171       -1.57354021968578        2.08543866499023
H            3.93489751600800       -0.68011327018103        3.37197059336882
H            4.40127593868385        1.74596628577064        3.34337434957079
H            2.97227795024319        3.25771529475836        2.02150983028886
H            1.09479544770636        2.35912112870239        0.71974061159080
H           -1.07172791339275        2.36639605221435        0.72444524478639
H           -2.93706711936356        3.27842060536409        2.03459464146076
H           -4.37041820915082        1.77735238315653        3.36322776527084
H           -3.91874665688934       -0.65181939571128        3.39317617597887
H           -2.00771741126921       -1.55889665841844        2.09866366689258

          :  Hamiltonian                  GFN2-xTB          :
         :: gradient norm              0.000119801393 Eh/a0 ::
         :: HOMO-LUMO gap              2.627084953701 eV    ::
         :: SCC energy              -132.367226847261 Eh    ::
         :: -> dispersion             -0.149790315009 Eh    ::
         :: -> Gsolv                  -0.048503180621 Eh    ::
         :: repulsion energy           2.358050177676 Eh    ::

    * Orbital Energies and Occupations

         #    Occupation            Energy/Eh            Energy/eV
      -------------------------------------------------------------
         1        2.0000           -0.6973797             -18.9767
       ...           ...                  ...                  ...
       109        2.0000           -0.4146389             -11.2829
       110        2.0000           -0.4125850             -11.2270
       111        2.0000           -0.4115362             -11.1985
       112        2.0000           -0.4103522             -11.1663
       113        2.0000           -0.4096587             -11.1474
       114        2.0000           -0.4046856             -11.0121
       115        2.0000           -0.4007368             -10.9046
       116        2.0000           -0.3955012             -10.7621
       117        2.0000           -0.3950846             -10.7508
       118        2.0000           -0.3735096             -10.1637
       119        2.0000           -0.3734724             -10.1627
       120        2.0000           -0.3604337              -9.8079
       121        2.0000           -0.3577987              -9.7362 (HOMO)
       122                         -0.2612551              -7.1091 (LUMO)
       123                         -0.2514861              -6.8433
       124                         -0.2508335              -6.8255
       125                         -0.2413539              -6.5676
       126                         -0.2402483              -6.5375
       127                         -0.2336726              -6.3586
       128                         -0.2324507              -6.3253
       129                         -0.2301479              -6.2626
       130                         -0.2163505              -5.8872
       131                         -0.2161414              -5.8815
       132                         -0.1920624              -5.2263
       ...                                ...                  ...
       242                          1.2145661              33.0500
      -------------------------------------------------------------
                  HL-Gap            0.0965437 Eh            2.6271 eV

     #   Z          covCN         q      C6AA      α(0)
     1   6 C        3.758    -0.109    22.627     6.782
     2   6 C        2.966     0.007    27.872     8.660
     3   6 C        2.930    -0.045    29.118     8.849
     4   6 C        2.908    -0.054    29.336     8.881
     5   6 C        3.077     0.044    26.927     8.508
     6   6 C        3.067    -0.020    28.437     8.744
     7   6 C        2.918    -0.045    29.122     8.849
     8   6 C        3.067    -0.022    28.477     8.750
     9   6 C        2.918    -0.046    29.154     8.854
    10   6 C        2.966     0.006    27.881     8.661
    11   6 C        3.758    -0.107    22.606     6.779
    12   6 C        2.930    -0.041    29.024     8.835
    13   6 C        2.909    -0.038    28.937     8.821
    14   6 C        3.077     0.052    26.755     8.480
    15   7 N        2.805    -0.057    22.350     7.021
    16   6 C        2.968     0.071    26.410     8.430
    17   6 C        2.922    -0.048    29.188     8.860
    18   6 C        2.917    -0.025    28.625     8.773
    19   6 C        2.922    -0.048    29.188     8.860
    20   6 C        2.969     0.071    26.409     8.429
    21   7 N        2.805    -0.058    22.350     7.022
    22   6 C        3.077     0.052    26.752     8.480
    23   6 C        2.909    -0.038    28.936     8.820
    24   6 C        2.930    -0.041    29.025     8.835
    25   6 C        2.966     0.006    27.882     8.661
    26   6 C        3.758    -0.108    22.607     6.779
    27   6 C        2.918    -0.046    29.153     8.854
    28   6 C        3.067    -0.022    28.477     8.750
    29   6 C        3.066    -0.020    28.438     8.744
    30   6 C        2.918    -0.045    29.123     8.850
    31   6 C        2.966     0.006    27.873     8.660
    32   6 C        3.758    -0.109    22.627     6.782
    33   6 C        2.930    -0.045    29.118     8.850
    34   6 C        2.908    -0.054    29.337     8.881
    35   6 C        3.077     0.044    26.927     8.508
    36   6 C        2.918    -0.013    28.331     8.728
    37  15 P        4.031     0.086   156.447    22.468
    38   8 O        0.808    -0.401    21.725     6.248
    39   6 C        2.919     0.007    27.863     8.656
    40   6 C        3.036    -0.020    28.463     8.751
    41   6 C        2.919    -0.026    28.662     8.779
    42   6 C        2.921    -0.024    28.605     8.771
    43   6 C        2.920    -0.027    28.675     8.781
    44   6 C        2.967    -0.026    28.656     8.781
    45   6 C        2.919     0.007    27.864     8.656
    46   6 C        2.967    -0.026    28.657     8.781
    47   6 C        2.920    -0.027    28.674     8.781
    48   6 C        2.921    -0.024    28.606     8.771
    49   6 C        2.919    -0.026    28.662     8.779
    50   6 C        3.036    -0.020    28.463     8.751
    51   1 H        0.925     0.047     2.353     2.399
    52   1 H        0.925     0.047     2.364     2.404
    53   1 H        0.925     0.042     2.422     2.434
    54   1 H        0.926     0.035     2.516     2.480
    55   1 H        0.926     0.026     2.637     2.539
    56   1 H        0.926     0.032     2.561     2.503
    57   1 H        0.926     0.032     2.558     2.501
    58   1 H        0.925     0.045     2.380     2.412
    59   1 H        0.925     0.046     2.374     2.410
    60   1 H        0.925     0.043     2.412     2.429
    61   1 H        0.926     0.031     2.574     2.509
    62   1 H        0.926     0.021     2.723     2.581
    63   1 H        0.926     0.055     2.256     2.349
    64   1 H        0.926     0.059     2.209     2.324
    65   1 H        0.926     0.055     2.257     2.350
    66   1 H        0.926     0.021     2.725     2.581
    67   1 H        0.926     0.031     2.574     2.509
    68   1 H        0.925     0.043     2.414     2.430
    69   1 H        0.925     0.045     2.383     2.414
    70   1 H        0.925     0.046     2.370     2.407
    71   1 H        0.926     0.032     2.558     2.501
    72   1 H        0.926     0.032     2.561     2.502
    73   1 H        0.925     0.047     2.356     2.400
    74   1 H        0.925     0.042     2.421     2.433
    75   1 H        0.925     0.047     2.363     2.404
    76   1 H        0.926     0.035     2.516     2.481
    77   1 H        0.926     0.026     2.638     2.540
    78   1 H        0.926     0.045     2.381     2.413
    79   1 H        0.926     0.042     2.417     2.431
    80   1 H        0.926     0.046     2.372     2.409
    81   1 H        0.926     0.044     2.397     2.421
    82   1 H        0.926     0.037     2.490     2.467
    83   1 H        0.926     0.037     2.490     2.468
    84   1 H        0.926     0.044     2.396     2.421
    85   1 H        0.926     0.046     2.371     2.408
    86   1 H        0.926     0.042     2.418     2.432
    87   1 H        0.926     0.045     2.381     2.413

molecular dipole:
                 x           y           z       tot (Debye)
 q only:        0.002       1.829      -0.137
   full:       -0.003       1.948      -0.254       4.994

 projected vibrational frequencies (cm⁻¹)
eigval :       -0.00    -0.00    -0.00     0.00     0.00     0.00
eigval :       14.86    16.51    20.71    25.30    39.10    40.45
eigval :       46.25    50.24    52.28    67.33    68.48    75.07
eigval :       77.97    86.25    87.46    90.25    98.79   100.84
eigval :      110.23   111.85   112.84   120.31   121.52   139.60
eigval :      142.00   163.64   190.83   192.06   201.52   204.46
eigval :      224.16   226.42   227.39   237.11   245.65   291.99
eigval :      293.89   296.78   300.01   312.25   324.98   325.23
eigval :      331.27   357.76   359.94   361.08   365.21   372.52
eigval :      383.18   396.53   398.99   408.98   413.37   417.11
eigval :      420.01   426.58   429.50   435.55   456.48   474.79
eigval :      476.84   485.75   509.09   522.01   527.67   538.30
eigval :      556.01   559.97   573.58   573.97   581.14   584.62
eigval :      586.26   601.20   604.19   620.90   645.24   652.01
eigval :      659.42   666.83   667.14   675.44   679.67   690.98
eigval :      704.89   705.12   707.49   714.05   732.83   734.87
eigval :      748.13   758.97   793.32   800.86   801.15   809.09
eigval :      809.86   811.94   816.43   867.82   868.18   871.64
eigval :      873.73   874.46   879.36   894.96   895.39   900.88
eigval :      902.82   906.59   909.22   910.38   911.81   921.60
eigval :      924.23   924.75   926.51   929.00   930.56   933.40
eigval :      947.50   953.86   972.27   972.91  1008.53  1009.09
eigval :     1014.10  1016.32  1030.89  1032.21  1032.87  1034.39
eigval :     1034.96  1039.11  1040.41  1053.81  1076.81  1082.95
eigval :     1109.87  1122.11  1123.08  1123.58  1126.89  1138.82
eigval :     1145.80  1152.58  1155.04  1167.42  1171.05  1177.65
eigval :     1178.33  1178.85  1189.14  1198.22  1198.74  1202.02
eigval :     1202.80  1203.98  1227.96  1241.78  1250.41  1252.93
eigval :     1254.29  1267.51  1277.45  1287.28  1296.99  1298.00
eigval :     1308.91  1309.88  1323.46  1325.38  1345.55  1353.42
eigval :     1353.72  1361.08  1363.32  1379.01  1400.72  1401.63
eigval :     1402.92  1403.11  1414.99  1415.54  1421.41  1423.92
eigval :     1424.19  1430.11  1448.15  1450.76  1453.49  1456.90
eigval :     1476.45  1476.70  1477.10  1477.22  1478.05  1478.64
eigval :     1478.90  1479.19  1495.19  1495.61  1503.85  1504.35
eigval :     1556.37  1559.64  1573.37  1573.93  1581.75  1583.73
eigval :     1585.93  1586.55  1587.84  1588.94  1609.40  1609.65
eigval :     1620.35  1621.05  2996.68  2997.45  2998.20  2998.94
eigval :     3013.43  3013.87  3014.31  3015.93  3041.79  3042.61
eigval :     3043.41  3044.36  3070.70  3070.75  3071.51  3072.02
eigval :     3072.11  3072.47  3074.72  3075.09  3075.56  3077.82
eigval :     3078.10  3079.12  3080.31  3082.31  3083.38  3083.52
eigval :     3085.42  3086.16  3086.57  3087.78  3089.15  3093.94
eigval :     3096.06  3097.31  3102.55

   temp. (K)  partition function   enthalpy   heat capacity  entropy
                                   cal/mol     cal/K/mol   cal/K/mol   J/K/mol
 298.15  VIB  0.436E+20            25996.762    160.579    163.173
         ROT  0.565E+08              888.752      2.981     38.454
         INT  0.247E+28            26885.514    163.560    201.627
         TR   0.166E+29             1481.254      4.968     45.344
         TOT                       28366.7683   168.5278   246.9709  1033.3262

       T/K    H(0)-H(T)+PV         H(T)/Eh          T*S/Eh         G(T)/Eh
   ------------------------------------------------------------------------
    298.15    0.452053E-01    0.726374E+00    0.117344E+00    0.609030E+00
   ------------------------------------------------------------------------

         :::::::::::::::::::::::::::::::::::::::::::::::::::::
         ::                  THERMODYNAMIC                  ::
         :::::::::::::::::::::::::::::::::::::::::::::::::::::
         :: total free energy        -129.400146379360 Eh   ::
         ::.................................................::
         :: total energy             -130.009176669384 Eh   ::
         :: zero point energy           0.681168800524 Eh   ::
         :: G(RRHO) w/o ZPVE           -0.072138510501 Eh   ::
         :: G(RRHO) contrib.            0.609030290023 Eh   ::
         :::::::::::::::::::::::::::::::::::::::::::::::::::::

           -------------------------------------------------
          | TOTAL ENERGY             -130.009176669384 Eh   |
          | TOTAL ENTHALPY           -129.282802546158 Eh   |
          | TOTAL FREE ENERGY        -129.400146379360 Eh   |
          | GRADIENT NORM               0.000119666024 Eh/α |
          | HOMO-LUMO GAP               2.627087184065 eV   |
           -------------------------------------------------

 * finished run on 2025/08/24 at 13:19:29.049
