   * xtb version 6.7.1 (edcfbbe) compiled by 'albert@albert-system' on 2024-07-22

   ID    Z sym.   atoms
    1    6 C      1-14, 16-20, 22-36, 39-50
    2    7 N      15, 21
    3   15 P      37
    4    8 O      38
    5    1 H      51-87

          program call               : xtb data2507/toluene/DCzPO/DCzPO_toluene_T1_crest.xyz --gfn 2 --uhf 2 --gbsa toluene --ohess vtight --parallel 40 --molden --ceasefiles --namespace data2507/toluene/DCzPO/DCzPO_toluene_T1_finalOpt
      * Solvation model:               GBSA
        Solvent                        toluene
        Solvent mass                       9.2140E+01 g/mol
          :  Hamiltonian                  GFN2-xTB          :
 * total energy  :  -129.9045960 Eh     change       -0.2016691E-08 Eh
 * total energy  :  -129.9047940 Eh     change       -0.1980213E-03 Eh
 * total energy  :  -129.9049320 Eh     change       -0.1379827E-03 Eh
 * total energy  :  -129.9049640 Eh     change       -0.3194698E-04 Eh
 * total energy  :  -129.9050055 Eh     change       -0.4155722E-04 Eh
 * total energy  :  -129.9050446 Eh     change       -0.3911017E-04 Eh
 * total energy  :  -129.9050822 Eh     change       -0.3758917E-04 Eh
 * total energy  :  -129.9051254 Eh     change       -0.4315646E-04 Eh
 * total energy  :  -129.9051723 Eh     change       -0.4691263E-04 Eh
 * total energy  :  -129.9052008 Eh     change       -0.2852581E-04 Eh
 * total energy  :  -129.9053393 Eh     change       -0.3777451E-06 Eh
 * total energy  :  -129.9053397 Eh     change       -0.3753194E-06 Eh
 * total energy  :  -129.9053400 Eh     change       -0.3486114E-06 Eh
 * total energy  :  -129.9053403 Eh     change       -0.2738798E-06 Eh
 * total energy  :  -129.9053405 Eh     change       -0.2302124E-06 Eh
 * total energy  :  -129.9053407 Eh     change       -0.1789934E-06 Eh
 * total energy  :  -129.9053409 Eh     change       -0.1552247E-06 Eh
 * total energy  :  -129.9053410 Eh     change       -0.1050822E-06 Eh
 * total energy  :  -129.9053411 Eh     change       -0.7974811E-07 Eh
   *** GEOMETRY OPTIMIZATION CONVERGED AFTER 41 ITERATIONS ***

 final structure:
================
87
 xtb: 6.7.1 (edcfbbe)
C            7.14547478085633        2.81743015680982        0.27308871641358
C            5.88418648966185        2.12830640331828       -0.14589640424629
C            4.84436067795253        2.87696509358736       -0.70624680875036
C            3.65296057088519        2.29842654484201       -1.10212879935783
C            3.50979648249708        0.92703746023277       -0.94226780067143
C            4.54450853682310        0.15324793581076       -0.36301087250510
C            5.72719607515233        0.75813773914737        0.03012770254685
C            4.06529359749156       -1.20220031429560       -0.32520924682541
C            4.62362665012806       -2.40143353475305        0.08423753893387
C            3.90224566635287       -3.58031241500766       -0.07876186706945
C            4.46651640970713       -4.89230848076842        0.36992418453007
C            2.63954088399056       -3.54217582172783       -0.68100370314298
C            2.06029258721659       -2.35859289265279       -1.09360775913712
C            2.76147815231075       -1.17996432463648       -0.88010041299387
N            2.43539890447260        0.11099408196732       -1.23118015714802
C            1.21294515436033        0.52934197850022       -1.76287777918549
C            1.20462230616574        1.31663175622516       -2.89801051598111
C            0.00215437064416        1.73118090220351       -3.47122107127707
C           -1.20078888033855        1.31595926190668       -2.89972764291532
C           -1.21026986197104        0.52845553821190       -1.76469004766018
N           -2.43304917133071        0.10901059848587       -1.23486302585800
C           -2.75767170159750       -1.18209788291685       -0.88302224371110
C           -2.05448273860140       -2.35986137440920       -1.09461265470657
C           -2.63248761591137       -3.54394066766656       -0.68170633303622
C           -3.89586733876624       -3.58336371928507       -0.08086671163114
C           -4.45892556995389       -4.89595967186082        0.36757722740003
C           -4.61901874189321       -2.40538448678900        0.08056990669511
C           -4.06195530332824       -1.20564423316289       -0.32917335796789
C           -4.54266658651719        0.14920534969552       -0.36782545558662
C           -5.72584836344111        0.75313232099576        0.02534764102225
C           -5.88398116202836        2.12317556096642       -0.15058209725720
C           -7.14574834184065        2.81122996354467        0.26872071517934
C           -4.84484289104172        2.87273574142922       -0.71099524225009
C           -3.65293532939192        2.29519176265424       -1.10690279017155
C           -3.50853065418710        0.92397411180804       -0.94686081672763
C            0.00105179099508        0.09704381010834       -1.13982054666179
P            0.00066921688269       -0.35034512118319        0.63930781213370
O            0.00492751273158       -1.80409412220206        0.90728976552623
C            1.40945950225689        0.47443147427616        1.43029813207572
C            2.25209405913062       -0.33255390801473        2.19487761842034
C            3.31855598506031        0.21218013726805        2.87738345371079
C            3.55887628395662        1.57883117943906        2.81455129998349
C            2.72988484186675        2.38719594553984        2.04982391121453
C            1.66942064034952        1.84370371904498        1.35506820299719
C           -1.41357126250686        0.46534500913891        1.43000593138734
C           -1.67940905897256        1.83378237529447        1.36009024630594
C           -2.74459640574732        2.36942262589044        2.05368545438229
C           -3.57256374183059        1.55399013802899        2.81205654670485
C           -3.32581397140981        0.18829990455764        2.87029923828362
C           -2.25469824205514       -0.34863174488429        2.18892470515656
H            7.88358239657938        2.10196432455167        0.62531381217736
H            6.93705976337611        3.52549577682677        1.07503522183354
H            7.56782225527608        3.37836305531516       -0.55968715321654
H            4.97613580131189        3.94247388685652       -0.82477026648958
H            2.85727650432511        2.90103749216320       -1.51203674381220
H            6.51623021560419        0.17037076177712        0.47448006258096
H            5.61107406255737       -2.42139081934850        0.52088195604850
H            5.49404538064441       -4.78268150708870        0.70640982498456
H            4.43491463001452       -5.61865085366014       -0.44095414815779
H            3.87181507178196       -5.29086855005982        1.19219166319986
H            2.10271374173360       -4.46795749020876       -0.82575732242833
H            1.09492222709595       -2.35013064652498       -1.57252091084339
H            2.14199954336786        1.57147742242019       -3.37068555856886
H            0.00263488884470        2.32768217256593       -4.36837233178377
H           -2.13764766872738        1.57028501650657       -3.37370030333510
H           -1.08855075889991       -2.35039249220026       -1.57238391721476
H           -2.09417603127821       -4.46907463337924       -0.82506386114815
H           -3.86039624991317       -5.29723344040033        1.18571845212088
H           -4.43216249152802       -5.62023109495307       -0.44539016042413
H           -5.48469156406224       -4.78631449137738        0.70940006669494
H           -5.60681670301604       -2.42637726529280        0.51637101755559
H           -6.51433175822365        0.16470425773012        0.46980306054394
H           -6.93754218795471        3.52040850920067        1.06972644371454
H           -7.56947604113123        3.37075872146489       -0.56429652483949
H           -7.88270688529741        2.09525187228774        0.62229964698055
H           -4.97751348336922        3.93814111971714       -0.82945834552006
H           -2.85771111947226        2.89852062695090       -1.51666110181927
H            2.04451609175148       -1.39325021975858        2.23578111799340
H            3.96449750300886       -0.42503621171217        3.46464007455723
H            4.38840885988592        2.00997654191169        3.35446658892070
H            2.91942112201010        3.44954535708319        1.99038630850145
H            1.05081538585708        2.47827572714992        0.73784436614297
H           -1.06146843706080        2.47396307851852        0.74807693468963
H           -2.93873066790437        3.43115376489661        1.99823808716650
H           -4.40621097020243        1.97890311362438        3.35056584415763
H           -3.97054063514559       -0.45436149029750        3.45293436531727
H           -2.04224303377762       -1.40849204389825        2.22626207582313

          :  Hamiltonian                  GFN2-xTB          :
         :: gradient norm              0.000070868312 Eh/a0 ::
         :: HOMO-LUMO gap              0.121532793460 eV    ::
         :: SCC energy              -132.241760559413 Eh    ::
         :: -> dispersion             -0.150422417091 Eh    ::
         :: -> Gsolv                  -0.050260418121 Eh    ::
         :: repulsion energy           2.336419493848 Eh    ::

    * Orbital Energies and Occupations

         #    Occupation            Energy/Eh            Energy/eV
      -------------------------------------------------------------
         1        2.0000           -0.6831977             -18.5908
       ...           ...                  ...                  ...
       110        2.0000           -0.4053996             -11.0315
       111        2.0000           -0.4046506             -11.0111
       112        2.0000           -0.4002005             -10.8900
       113        2.0000           -0.3994872             -10.8706
       114        2.0000           -0.3984554             -10.8425
       115        2.0000           -0.3973068             -10.8113
       116        2.0000           -0.3923323             -10.6759
       117        2.0000           -0.3877375             -10.5509
       118        2.0000           -0.3811262             -10.3710
       119        2.0000           -0.3810722             -10.3695
       120        1.6750           -0.3642396              -9.9115
       121        1.3250           -0.3628507              -9.8737
       122        0.9013           -0.2551169              -6.9421 (HOMO)
       123        0.0766           -0.2506506              -6.8206 (LUMO)
       124        0.0222           -0.2494182              -6.7870
       125                         -0.2360214              -6.4225
       126                         -0.2331490              -6.3443
       127                         -0.2270464              -6.1782
       128                         -0.2266200              -6.1666
       129                         -0.2227207              -6.0605
       130                         -0.2197780              -5.9805
       131                         -0.2173229              -5.9137
       132                         -0.1996046              -5.4315
       133                         -0.1915024              -5.2110
       ...                                ...                  ...
       242                          1.2124078              32.9913
      -------------------------------------------------------------
                  HL-Gap            0.0044663 Eh            0.1215 eV

     #   Z          covCN         q      C6AA      α(0)
     1   6 C        3.758    -0.112    22.693     6.792
     2   6 C        2.966     0.021    27.538     8.608
     3   6 C        2.927    -0.045    29.117     8.849
     4   6 C        2.908    -0.042    29.040     8.836
     5   6 C        3.077     0.047    26.868     8.498
     6   6 C        3.063    -0.014    28.287     8.722
     7   6 C        2.916    -0.040    29.005     8.832
     8   6 C        3.063    -0.015    28.324     8.727
     9   6 C        2.916    -0.040    28.998     8.830
    10   6 C        2.966     0.022    27.515     8.604
    11   6 C        3.758    -0.112    22.684     6.790
    12   6 C        2.927    -0.040    29.000     8.831
    13   6 C        2.908    -0.023    28.569     8.764
    14   6 C        3.078     0.057    26.645     8.463
    15   7 N        2.804    -0.014    21.514     6.889
    16   6 C        2.962     0.049    26.895     8.506
    17   6 C        2.916    -0.048    29.180     8.858
    18   6 C        2.914    -0.061    29.510     8.908
    19   6 C        2.916    -0.048    29.180     8.858
    20   6 C        2.962     0.049    26.897     8.507
    21   7 N        2.804    -0.014    21.513     6.889
    22   6 C        3.078     0.057    26.647     8.463
    23   6 C        2.908    -0.023    28.571     8.765
    24   6 C        2.927    -0.040    29.002     8.832
    25   6 C        2.966     0.022    27.515     8.604
    26   6 C        3.758    -0.111    22.683     6.790
    27   6 C        2.916    -0.040    28.998     8.830
    28   6 C        3.063    -0.015    28.325     8.727
    29   6 C        3.063    -0.014    28.287     8.722
    30   6 C        2.916    -0.040    29.005     8.832
    31   6 C        2.966     0.021    27.538     8.608
    32   6 C        3.758    -0.112    22.693     6.792
    33   6 C        2.927    -0.045    29.118     8.849
    34   6 C        2.908    -0.042    29.040     8.836
    35   6 C        3.077     0.047    26.868     8.498
    36   6 C        2.908    -0.037    28.926     8.819
    37  15 P        4.021    -0.027   161.414    22.822
    38   8 O        0.808    -0.408    21.864     6.268
    39   6 C        2.917     0.011    27.771     8.642
    40   6 C        3.033    -0.026    28.618     8.775
    41   6 C        2.917    -0.034    28.838     8.806
    42   6 C        2.920    -0.039    28.962     8.825
    43   6 C        2.918    -0.033    28.829     8.805
    44   6 C        2.965    -0.034    28.844     8.809
    45   6 C        2.917     0.011    27.772     8.642
    46   6 C        2.965    -0.034    28.845     8.809
    47   6 C        2.918    -0.033    28.830     8.805
    48   6 C        2.920    -0.039    28.963     8.825
    49   6 C        2.917    -0.034    28.838     8.806
    50   6 C        3.033    -0.026    28.618     8.775
    51   1 H        0.925     0.049     2.326     2.385
    52   1 H        0.925     0.057     2.240     2.340
    53   1 H        0.925     0.056     2.242     2.341
    54   1 H        0.926     0.043     2.410     2.428
    55   1 H        0.926     0.038     2.472     2.459
    56   1 H        0.926     0.043     2.413     2.429
    57   1 H        0.926     0.043     2.409     2.427
    58   1 H        0.925     0.050     2.317     2.380
    59   1 H        0.925     0.056     2.241     2.341
    60   1 H        0.924     0.057     2.238     2.339
    61   1 H        0.926     0.042     2.418     2.432
    62   1 H        0.926     0.039     2.464     2.455
    63   1 H        0.926     0.037     2.486     2.466
    64   1 H        0.926     0.033     2.544     2.494
    65   1 H        0.926     0.037     2.486     2.466
    66   1 H        0.926     0.039     2.464     2.455
    67   1 H        0.926     0.042     2.419     2.432
    68   1 H        0.924     0.057     2.238     2.340
    69   1 H        0.925     0.057     2.240     2.341
    70   1 H        0.925     0.050     2.317     2.380
    71   1 H        0.926     0.043     2.409     2.427
    72   1 H        0.926     0.043     2.413     2.429
    73   1 H        0.925     0.057     2.240     2.341
    74   1 H        0.925     0.056     2.242     2.341
    75   1 H        0.925     0.049     2.326     2.385
    76   1 H        0.926     0.043     2.410     2.428
    77   1 H        0.926     0.038     2.472     2.459
    78   1 H        0.925     0.032     2.553     2.498
    79   1 H        0.926     0.029     2.606     2.524
    80   1 H        0.926     0.030     2.583     2.513
    81   1 H        0.926     0.029     2.604     2.524
    82   1 H        0.926     0.022     2.707     2.573
    83   1 H        0.926     0.022     2.707     2.573
    84   1 H        0.926     0.029     2.605     2.524
    85   1 H        0.926     0.030     2.584     2.514
    86   1 H        0.926     0.029     2.606     2.524
    87   1 H        0.925     0.032     2.552     2.498

molecular dipole:
                 x           y           z       tot (Debye)
 q only:        0.002       0.378      -0.968
   full:        0.001       0.711      -0.942       3.000

 projected vibrational frequencies (cm⁻¹)
eigval :       -0.00    -0.00     0.00     0.00     0.00     0.00
eigval :       -5.50    18.36    20.42    26.85    37.13    37.80
eigval :       46.32    49.26    54.03    70.56    72.07    81.08
eigval :       82.41    86.86    89.88    95.54   102.03   103.28
eigval :      108.51   110.15   114.72   116.27   121.42   137.96
eigval :      142.55   158.87   186.78   189.07   203.90   212.85
eigval :      215.48   219.46   231.38   233.75   235.27   284.84
eigval :      290.60   295.08   301.38   302.64   315.03   315.25
eigval :      329.45   357.69   359.56   363.07   366.02   374.88
eigval :      382.56   386.33   389.47   400.86   401.53   411.67
eigval :      414.14   418.40   421.59   424.71   434.68   451.18
eigval :      469.87   470.76   493.90   504.06   511.67   547.14
eigval :      555.38   563.84   571.20   571.38   579.30   583.90
eigval :      584.71   587.95   588.19   608.88   630.23   630.67
eigval :      639.24   646.15   666.64   666.96   668.98   685.76
eigval :      688.93   700.82   700.97   704.78   718.48   728.08
eigval :      732.38   738.79   745.43   792.71   795.24   796.91
eigval :      806.42   809.57   810.08   850.75   851.86   852.30
eigval :      857.19   858.31   863.40   871.61   873.58   874.61
eigval :      877.54   886.40   894.26   903.47   906.97   907.25
eigval :      910.97   920.34   921.77   922.06   923.59   923.88
eigval :      940.07   950.42   967.72   968.20  1002.45  1005.19
eigval :     1006.67  1008.25  1014.37  1019.60  1023.78  1023.94
eigval :     1024.37  1024.89  1034.10  1034.41  1061.79  1070.53
eigval :     1075.13  1094.25  1095.65  1103.11  1112.91  1118.22
eigval :     1123.62  1125.36  1133.56  1141.13  1160.79  1166.48
eigval :     1175.88  1176.76  1180.80  1190.65  1191.47  1194.89
eigval :     1199.51  1200.73  1202.55  1209.82  1234.94  1238.56
eigval :     1242.11  1242.91  1260.77  1262.96  1266.77  1267.89
eigval :     1278.66  1283.44  1312.54  1316.07  1329.28  1330.21
eigval :     1331.88  1332.21  1350.43  1350.70  1364.42  1372.82
eigval :     1398.00  1398.11  1398.49  1398.92  1403.10  1405.68
eigval :     1418.16  1419.72  1422.68  1432.03  1442.27  1444.51
eigval :     1445.16  1449.73  1449.81  1462.30  1464.41  1467.59
eigval :     1468.82  1469.11  1469.56  1469.79  1479.78  1480.13
eigval :     1488.12  1495.11  1520.31  1529.88  1532.94  1539.76
eigval :     1540.40  1542.72  1557.07  1560.77  1561.02  1563.61
eigval :     1563.74  1595.10  2998.89  2999.25  3000.55  3000.61
eigval :     3016.38  3016.46  3017.43  3017.69  3046.88  3047.38
eigval :     3049.24  3049.29  3062.49  3062.70  3063.94  3067.35
eigval :     3071.45  3071.93  3074.79  3076.23  3077.03  3080.68
eigval :     3080.91  3081.34  3081.70  3081.77  3084.89  3085.88
eigval :     3086.14  3086.75  3089.03  3089.70  3094.24  3094.89
eigval :     3104.48  3107.54  3107.94

   temp. (K)  partition function   enthalpy   heat capacity  entropy
                                   cal/mol     cal/K/mol   cal/K/mol   J/K/mol
 298.15  VIB  0.119E+21            26317.115    163.149    165.399
         ROT  0.560E+08              888.752      2.981     38.435
         INT  0.667E+28            27205.867    166.130    203.833
         TR   0.166E+29             1481.254      4.968     45.344
         TOT                       28687.1209   171.0983   249.1773  1042.5580

       T/K    H(0)-H(T)+PV         H(T)/Eh          T*S/Eh         G(T)/Eh
   ------------------------------------------------------------------------
    298.15    0.457158E-01    0.720410E+00    0.118392E+00    0.602018E+00
   ------------------------------------------------------------------------

         :::::::::::::::::::::::::::::::::::::::::::::::::::::
         ::                  THERMODYNAMIC                  ::
         :::::::::::::::::::::::::::::::::::::::::::::::::::::
         :: total free energy        -129.303322782670 Eh   ::
         ::.................................................::
         :: total energy             -129.905341062993 Eh   ::
         :: zero point energy           0.674694642493 Eh   ::
         :: G(RRHO) w/o ZPVE           -0.072676362170 Eh   ::
         :: G(RRHO) contrib.            0.602018280323 Eh   ::
         :::::::::::::::::::::::::::::::::::::::::::::::::::::

           -------------------------------------------------
          | TOTAL ENERGY             -129.905341062993 Eh   |
          | TOTAL ENTHALPY           -129.184930583428 Eh   |
          | TOTAL FREE ENERGY        -129.303322782670 Eh   |
          | GRADIENT NORM               0.000071120913 Eh/α |
          | HOMO-LUMO GAP               0.121534919693 eV   |
           -------------------------------------------------

 * finished run on 2025/08/24 at 13:32:21.224
