   * xtb version 6.7.1 (edcfbbe) compiled by 'albert@albert-system' on 2024-07-22

   ID    Z sym.   atoms
    1    6 C      1-14, 16-20, 22-36, 39-50
    2    7 N      15, 21
    3   15 P      37
    4    8 O      38
    5    1 H      51-87

          program call               : xtb data2507/toluene/DCzPO/DCzPO_toluene_S0_finalOpt.xtbopt.xyz --gfn 2 --uhf 2 --gbsa toluene --ohess vtight --parallel 40 --molden --ceasefiles --namespace data2507/toluene/DCzPO/DCzPO_toluene_T1_preOpt
      * Solvation model:               GBSA
        Solvent                        toluene
        Solvent mass                       9.2140E+01 g/mol
          :  Hamiltonian                  GFN2-xTB          :
 * total energy  :  -129.9016526 Eh     change       -0.1737342E-07 Eh
 * total energy  :  -129.9035632 Eh     change       -0.1910591E-02 Eh
 * total energy  :  -129.9044687 Eh     change       -0.9054977E-03 Eh
 * total energy  :  -129.9046583 Eh     change       -0.1895950E-03 Eh
 * total energy  :  -129.9048282 Eh     change       -0.1698848E-03 Eh
 * total energy  :  -129.9048982 Eh     change       -0.7006934E-04 Eh
 * total energy  :  -129.9049696 Eh     change       -0.7140150E-04 Eh
 * total energy  :  -129.9050019 Eh     change       -0.3232433E-04 Eh
 * total energy  :  -129.9050245 Eh     change       -0.2253919E-04 Eh
 * total energy  :  -129.9050427 Eh     change       -0.1819769E-04 Eh
 * total energy  :  -129.9053197 Eh     change       -0.8495427E-06 Eh
 * total energy  :  -129.9053206 Eh     change       -0.8511547E-06 Eh
 * total energy  :  -129.9053214 Eh     change       -0.8338199E-06 Eh
 * total energy  :  -129.9053222 Eh     change       -0.7955650E-06 Eh
 * total energy  :  -129.9053230 Eh     change       -0.7806817E-06 Eh
 * total energy  :  -129.9053238 Eh     change       -0.7789485E-06 Eh
 * total energy  :  -129.9053245 Eh     change       -0.7825333E-06 Eh
 * total energy  :  -129.9053253 Eh     change       -0.7697729E-06 Eh
 * total energy  :  -129.9053253 Eh     change       -0.4859544E-08 Eh
   *** GEOMETRY OPTIMIZATION CONVERGED AFTER 94 ITERATIONS ***

 final structure:
================
87
 xtb: 6.7.1 (edcfbbe)
C            7.10461002781774        2.88107476175205        0.25921535297783
C            5.85145505724349        2.17492541681389       -0.15589367438180
C            4.80532660222112        2.90802338001368       -0.72487188527299
C            3.62427351669373        2.31206176158764       -1.12627097208641
C            3.49899742825037        0.93954098802386       -0.96255269475020
C            4.54136453348222        0.18038696684755       -0.37770610105135
C            5.71321271523946        0.80280972173057        0.02102944651652
C            4.07841367206687       -1.18048479410522       -0.33684919628193
C            4.64990919310782       -2.37180348601368        0.07766711654383
C            3.94174025045268       -3.55925358565726       -0.08078889979034
C            4.52119950750702       -4.86287736503999        0.37297610172988
C            2.67822676919929       -3.53788213035871       -0.68240196894022
C            2.08554085505796       -2.36256368896514       -1.10022008335789
C            2.77483862591219       -1.17580645336119       -0.89349854864908
N            2.43528225430626        0.10964308477108       -1.25074787687937
C            1.21025929194466        0.51571563571032       -1.78599360406779
C            1.20083809526516        1.29157742874580       -2.92921610944158
C           -0.00176042131178        1.69884552075742       -3.50675701073938
C           -1.20338772122049        1.28981352152108       -2.92846181383678
C           -1.21096425489339        0.51381314066866       -1.78532286962893
N           -2.43503382692817        0.10549330101323       -1.24958148063915
C           -2.77207592904184       -1.18070687308318       -0.89256932748939
C           -2.08080365028510       -2.36620380824260       -1.10001572860888
C           -2.67121093305153       -3.54269198543588       -0.68224724218221
C           -3.93438479438162       -3.56647845894913       -0.08002441059424
C           -4.51129122765231       -4.87127293579009        0.37361064546549
C           -4.64462937579212       -2.38035465860804        0.07899790185630
C           -4.07543828008923       -1.18793629866116       -0.33550543751165
C           -4.54108640809126        0.17200469946665       -0.37614320611354
C           -5.71429458433588        0.79186370038539        0.02254684686981
C           -5.85553223439074        2.16365619713114       -0.15445366274742
C           -7.11031394929339        2.86701005609995        0.26048834430520
C           -4.81093289467514        2.89896725051156       -0.72339795269971
C           -3.62858517389716        2.30554927146657       -1.12477614360087
C           -3.50034901199924        0.93328220992061       -0.96111834030893
C            0.00018714452681        0.08690101489446       -1.15846616812873
P            0.00081650413419       -0.36577659905469        0.61958889189111
O            0.00086161864443       -1.82101547944455        0.87971245476628
C            1.41369681887010        0.44845783394238        1.41499013866962
C            2.25863926499371       -0.36948242814295        2.16539645902537
C            3.33237445043599        0.16397038143602        2.84550702643654
C            3.57791738047377        1.53011320873746        2.79489427157465
C            2.74435774307413        2.34994316205222        2.04740228505565
C            1.67682558555424        1.81777543993892        1.35468231486793
C           -1.41195589701148        0.44874370530947        1.41485339317319
C           -1.67587189684263        1.81780154171383        1.35229902224852
C           -2.74304282444468        2.35063708786736        2.04507234408320
C           -3.57540686494492        1.53168050420541        2.79482312464803
C           -3.32922707052949        0.16572218222170        2.84746750191507
C           -2.25583576059021       -0.36836931205495        2.16730423202567
H            7.61071574978030        3.29355871296822       -0.61369809951074
H            7.78540611065808        2.20343402391415        0.76720140112077
H            6.86973071399733        3.70967472608485        0.92591298312572
H            4.92293758027253        3.97498620160414       -0.84509075186722
H            2.82230744285639        2.90245064996723       -1.54174415808339
H            6.50788776502050        0.22717693497537        0.47114259291335
H            5.63721721910017       -2.37894982598004        0.51500503008700
H            5.54613735468234       -4.73916954021825        0.71252750897549
H            4.50182257608352       -5.59135113452355       -0.43641292126590
H            3.92901049888755       -5.26738372075868        1.19414502240157
H            2.15148690117697       -4.47019843674428       -0.82210775360075
H            1.11891497951046       -2.36674549881066       -1.57701163924228
H            2.13842296577703        1.54289722798584       -3.40344334056158
H           -0.00247152511269        2.28579749604325       -4.41014872400498
H           -2.14163238543467        1.53979063838547       -3.40208991621029
H           -1.11442234911533       -2.36854803574337       -1.57731516879299
H           -2.14287353773252       -4.47402954054324       -0.82245095491485
H           -4.49185715472936       -5.59914951730922       -0.43631883268041
H           -5.53598468455601       -4.74934882747831        0.71453564597827
H           -3.91743203388101       -5.27545642132446        1.19372614701886
H           -5.63176342147734       -2.38935343517264        0.51669219398445
H           -6.50770282752412        0.21449992629159        0.47267464603382
H           -6.87743622386939        3.69585351599706        0.92758455173918
H           -7.61701374566160        3.27873136593775       -0.61243670841376
H           -7.78982361056580        2.18771816454007        0.76799646941700
H           -4.93084685530214        3.96566804166187       -0.84366363436518
H           -2.82793657803575        2.89769588774940       -1.54028989663379
H            2.04781148270710       -1.42986649197586        2.19643299455259
H            3.98051044920418       -0.48222116864076        3.42039530082391
H            4.41533202259178        1.95205474044229        3.32989254009244
H            2.93650364659108        3.41234182003183        1.99897617482488
H            1.05530900431431        2.46159719644213        0.75015185670076
H           -1.05536608434220        2.46079150492652        0.74582125015134
H           -2.93583164627551        3.41284082808564        1.99495171419836
H           -4.41243310787049        1.95416482701005        3.33000120995110
H           -3.97658184506510       -0.47978659875025        3.42400007332496
H           -2.04451884874450       -1.42861530435404        2.19981534671340

          :  Hamiltonian                  GFN2-xTB          :
         :: gradient norm              0.000065479856 Eh/a0 ::
         :: HOMO-LUMO gap              0.119263193804 eV    ::
         :: SCC energy              -132.241715812513 Eh    ::
         :: -> dispersion             -0.150640944369 Eh    ::
         :: -> Gsolv                  -0.050140519277 Eh    ::
         :: repulsion energy           2.336390503031 Eh    ::

    * Orbital Energies and Occupations

         #    Occupation            Energy/Eh            Energy/eV
      -------------------------------------------------------------
         1        2.0000           -0.6831978             -18.5908
       ...           ...                  ...                  ...
       110        2.0000           -0.4053895             -11.0312
       111        2.0000           -0.4045886             -11.0094
       112        2.0000           -0.4002549             -10.8915
       113        2.0000           -0.3994834             -10.8705
       114        2.0000           -0.3987669             -10.8510
       115        2.0000           -0.3973354             -10.8120
       116        2.0000           -0.3924298             -10.6786
       117        2.0000           -0.3877490             -10.5512
       118        2.0000           -0.3809870             -10.3672
       119        2.0000           -0.3809472             -10.3661
       120        1.6892           -0.3643698              -9.9150
       121        1.3108           -0.3628567              -9.8738
       122        0.8978           -0.2549711              -6.9381 (HOMO)
       123        0.0801           -0.2505877              -6.8188 (LUMO)
       124        0.0220           -0.2493024              -6.7839
       125                         -0.2361017              -6.4247
       126                         -0.2332836              -6.3480
       127                         -0.2270746              -6.1790
       128                         -0.2265201              -6.1639
       129                         -0.2227657              -6.0618
       130                         -0.2197527              -5.9798
       131                         -0.2173535              -5.9145
       132                         -0.1995521              -5.4301
       133                         -0.1915842              -5.2133
       ...                                ...                  ...
       242                          1.2117387              32.9731
      -------------------------------------------------------------
                  HL-Gap            0.0043834 Eh            0.1193 eV

     #   Z          covCN         q      C6AA      α(0)
     1   6 C        3.758    -0.112    22.693     6.792
     2   6 C        2.966     0.021    27.537     8.607
     3   6 C        2.927    -0.045    29.121     8.850
     4   6 C        2.908    -0.042    29.043     8.837
     5   6 C        3.077     0.047    26.867     8.498
     6   6 C        3.062    -0.014    28.290     8.722
     7   6 C        2.916    -0.041    29.007     8.832
     8   6 C        3.063    -0.015    28.327     8.728
     9   6 C        2.916    -0.040    29.001     8.831
    10   6 C        2.966     0.022    27.516     8.604
    11   6 C        3.758    -0.111    22.683     6.790
    12   6 C        2.927    -0.041    29.008     8.833
    13   6 C        2.908    -0.023    28.573     8.765
    14   6 C        3.077     0.057    26.649     8.464
    15   7 N        2.804    -0.014    21.516     6.889
    16   6 C        2.961     0.049    26.893     8.506
    17   6 C        2.916    -0.047    29.176     8.858
    18   6 C        2.914    -0.061    29.505     8.907
    19   6 C        2.916    -0.047    29.176     8.858
    20   6 C        2.961     0.049    26.893     8.506
    21   7 N        2.804    -0.014    21.516     6.889
    22   6 C        3.077     0.057    26.649     8.464
    23   6 C        2.908    -0.023    28.572     8.765
    24   6 C        2.927    -0.041    29.008     8.833
    25   6 C        2.966     0.022    27.516     8.604
    26   6 C        3.758    -0.111    22.683     6.790
    27   6 C        2.916    -0.040    29.001     8.831
    28   6 C        3.063    -0.015    28.327     8.728
    29   6 C        3.062    -0.014    28.290     8.722
    30   6 C        2.916    -0.041    29.007     8.832
    31   6 C        2.966     0.021    27.537     8.607
    32   6 C        3.758    -0.112    22.693     6.792
    33   6 C        2.927    -0.045    29.121     8.850
    34   6 C        2.908    -0.042    29.043     8.837
    35   6 C        3.077     0.047    26.868     8.498
    36   6 C        2.907    -0.037    28.921     8.818
    37  15 P        4.018    -0.025   161.347    22.818
    38   8 O        0.808    -0.408    21.871     6.269
    39   6 C        2.917     0.011    27.775     8.642
    40   6 C        3.034    -0.026    28.616     8.774
    41   6 C        2.917    -0.034    28.836     8.806
    42   6 C        2.920    -0.039    28.959     8.825
    43   6 C        2.918    -0.033    28.829     8.805
    44   6 C        2.965    -0.034    28.843     8.809
    45   6 C        2.917     0.011    27.775     8.642
    46   6 C        2.965    -0.034    28.842     8.809
    47   6 C        2.918    -0.033    28.829     8.805
    48   6 C        2.920    -0.039    28.959     8.825
    49   6 C        2.917    -0.034    28.836     8.806
    50   6 C        3.033    -0.026    28.616     8.774
    51   1 H        0.925     0.058     2.226     2.333
    52   1 H        0.925     0.049     2.328     2.386
    53   1 H        0.925     0.055     2.255     2.348
    54   1 H        0.926     0.043     2.412     2.429
    55   1 H        0.926     0.038     2.475     2.460
    56   1 H        0.926     0.043     2.415     2.430
    57   1 H        0.926     0.043     2.410     2.428
    58   1 H        0.925     0.050     2.317     2.380
    59   1 H        0.925     0.056     2.241     2.341
    60   1 H        0.924     0.057     2.239     2.340
    61   1 H        0.926     0.042     2.422     2.434
    62   1 H        0.926     0.039     2.466     2.456
    63   1 H        0.926     0.037     2.484     2.465
    64   1 H        0.926     0.033     2.540     2.492
    65   1 H        0.926     0.037     2.484     2.465
    66   1 H        0.926     0.039     2.466     2.456
    67   1 H        0.926     0.042     2.422     2.433
    68   1 H        0.925     0.056     2.241     2.341
    69   1 H        0.925     0.050     2.317     2.380
    70   1 H        0.924     0.057     2.239     2.340
    71   1 H        0.926     0.043     2.410     2.428
    72   1 H        0.926     0.043     2.415     2.430
    73   1 H        0.925     0.055     2.255     2.348
    74   1 H        0.925     0.058     2.226     2.333
    75   1 H        0.925     0.049     2.328     2.386
    76   1 H        0.926     0.043     2.412     2.429
    77   1 H        0.926     0.038     2.475     2.460
    78   1 H        0.925     0.032     2.551     2.498
    79   1 H        0.926     0.029     2.605     2.524
    80   1 H        0.926     0.031     2.578     2.511
    81   1 H        0.926     0.029     2.604     2.524
    82   1 H        0.926     0.022     2.705     2.572
    83   1 H        0.926     0.022     2.706     2.572
    84   1 H        0.926     0.029     2.604     2.523
    85   1 H        0.926     0.031     2.577     2.511
    86   1 H        0.926     0.029     2.605     2.524
    87   1 H        0.925     0.032     2.551     2.498

molecular dipole:
                 x           y           z       tot (Debye)
 q only:       -0.001       0.432      -0.958
   full:       -0.001       0.753      -0.945       3.071

 projected vibrational frequencies (cm⁻¹)
eigval :       -0.00    -0.00    -0.00     0.00     0.00     0.00
eigval :       -3.47    16.63    19.06    26.42    35.16    37.61
eigval :       44.93    47.35    54.44    70.17    70.72    84.22
eigval :       86.19    87.40    88.10    89.93    96.39   102.70
eigval :      107.71   109.64   115.17   115.37   121.67   137.76
eigval :      142.52   159.50   186.78   188.92   203.28   211.49
eigval :      214.96   218.80   230.40   234.08   234.85   284.33
eigval :      290.78   295.07   300.79   301.78   314.68   314.99
eigval :      329.32   356.94   358.97   363.41   366.29   374.80
eigval :      382.36   386.32   389.12   400.05   401.78   411.35
eigval :      414.00   417.94   421.19   424.96   434.30   450.60
eigval :      469.72   471.07   494.16   504.20   511.20   546.70
eigval :      555.06   563.40   570.49   570.72   579.63   583.96
eigval :      584.90   588.01   588.56   608.36   630.25   630.57
eigval :      639.18   646.09   666.24   666.64   668.49   685.72
eigval :      688.67   700.52   700.60   704.92   719.37   727.76
eigval :      732.46   734.53   745.21   793.30   795.19   796.97
eigval :      806.10   808.50   808.94   850.55   851.06   851.93
eigval :      856.44   858.04   862.70   872.24   873.31   876.28
eigval :      878.80   886.53   894.50   903.20   906.02   906.70
eigval :      911.16   920.65   922.00   922.98   924.10   924.44
eigval :      939.78   950.26   967.70   968.26  1002.85  1004.84
eigval :     1006.07  1007.50  1013.81  1019.40  1023.52  1023.54
eigval :     1025.26  1025.30  1033.93  1034.17  1061.84  1070.69
eigval :     1075.47  1094.03  1095.19  1104.50  1113.14  1118.51
eigval :     1123.59  1125.34  1133.33  1140.73  1160.92  1166.53
eigval :     1176.12  1176.99  1179.79  1191.23  1191.34  1194.66
eigval :     1199.32  1200.41  1203.10  1209.51  1234.83  1238.39
eigval :     1242.31  1242.50  1260.56  1262.25  1266.46  1268.25
eigval :     1278.95  1283.07  1312.41  1317.86  1328.82  1329.78
eigval :     1331.63  1332.03  1350.56  1351.47  1364.80  1373.20
eigval :     1397.77  1397.95  1399.20  1399.38  1402.66  1405.18
eigval :     1418.05  1419.68  1422.52  1432.20  1442.56  1444.66
eigval :     1445.07  1449.32  1449.34  1462.49  1464.44  1467.24
eigval :     1468.54  1468.96  1469.40  1469.85  1480.39  1480.48
eigval :     1488.32  1495.25  1520.57  1529.81  1532.75  1539.26
eigval :     1539.58  1542.40  1556.99  1560.27  1560.55  1563.36
eigval :     1563.52  1595.25  2998.93  2999.01  2999.32  2999.37
eigval :     3017.39  3017.52  3017.89  3017.94  3046.56  3046.70
eigval :     3048.17  3048.18  3062.73  3062.76  3064.17  3067.76
eigval :     3071.70  3072.11  3075.07  3075.89  3076.64  3080.67
eigval :     3080.73  3081.31  3081.59  3081.66  3084.67  3085.63
eigval :     3085.92  3086.51  3089.56  3090.08  3094.18  3094.86
eigval :     3103.06  3105.54  3107.80

   temp. (K)  partition function   enthalpy   heat capacity  entropy
                                   cal/mol     cal/K/mol   cal/K/mol   J/K/mol
 298.15  VIB  0.273E+21            26353.553    163.059    166.254
         ROT  0.560E+08              888.752      2.981     38.434
         INT  0.153E+29            27242.305    166.040    204.688
         TR   0.166E+29             1481.254      4.968     45.344
         TOT                       28723.5590   171.0083   250.0321  1046.1344

       T/K    H(0)-H(T)+PV         H(T)/Eh          T*S/Eh         G(T)/Eh
   ------------------------------------------------------------------------
    298.15    0.457739E-01    0.720356E+00    0.118798E+00    0.601558E+00
   ------------------------------------------------------------------------

         :::::::::::::::::::::::::::::::::::::::::::::::::::::
         ::                  THERMODYNAMIC                  ::
         :::::::::::::::::::::::::::::::::::::::::::::::::::::
         :: total free energy        -129.303767676569 Eh   ::
         ::.................................................::
         :: total energy             -129.905325309851 Eh   ::
         :: zero point energy           0.674582057268 Eh   ::
         :: G(RRHO) w/o ZPVE           -0.073024423986 Eh   ::
         :: G(RRHO) contrib.            0.601557633282 Eh   ::
         :::::::::::::::::::::::::::::::::::::::::::::::::::::

           -------------------------------------------------
          | TOTAL ENERGY             -129.905325309851 Eh   |
          | TOTAL ENTHALPY           -129.184969347726 Eh   |
          | TOTAL FREE ENERGY        -129.303767676569 Eh   |
          | GRADIENT NORM               0.000064906058 Eh/α |
          | HOMO-LUMO GAP               0.119279414366 eV   |
           -------------------------------------------------

 * finished run on 2025/08/24 at 13:25:02.274
