   * xtb version 6.7.1 (edcfbbe) compiled by 'albert@albert-system' on 2024-07-22

   ID    Z sym.   atoms
    1    6 C      1-14, 16-20, 22-36, 39-50
    2    7 N      15, 21
    3   15 P      37
    4    8 O      38
    5    1 H      51-87

          program call               : xtb data2507/toluene/DCzPO/DCzPO_toluene_S0_crest.xyz --gfn 2 --gbsa toluene --ohess vtight --parallel 40 --molden --ceasefiles --namespace data2507/toluene/DCzPO/DCzPO_toluene_S0_finalOpt
      * Solvation model:               GBSA
        Solvent                        toluene
        Solvent mass                       9.2140E+01 g/mol
          :  Hamiltonian                  GFN2-xTB          :
 * total energy  :  -130.0087706 Eh     change       -0.1111772E-08 Eh
 * total energy  :  -130.0088923 Eh     change       -0.1217071E-03 Eh
 * total energy  :  -130.0089715 Eh     change       -0.7914097E-04 Eh
 * total energy  :  -130.0090048 Eh     change       -0.3328509E-04 Eh
 * total energy  :  -130.0090314 Eh     change       -0.2664909E-04 Eh
 * total energy  :  -130.0090646 Eh     change       -0.3314919E-04 Eh
 * total energy  :  -130.0090948 Eh     change       -0.3024123E-04 Eh
 * total energy  :  -130.0091079 Eh     change       -0.1311628E-04 Eh
 * total energy  :  -130.0091312 Eh     change       -0.2323614E-04 Eh
 * total energy  :  -130.0091376 Eh     change       -0.6490304E-05 Eh
 * total energy  :  -130.0091733 Eh     change       -0.1762912E-05 Eh
 * total energy  :  -130.0091738 Eh     change       -0.4568307E-06 Eh
 * total energy  :  -130.0091745 Eh     change       -0.6489917E-06 Eh
 * total energy  :  -130.0091746 Eh     change       -0.1201876E-06 Eh
 * total energy  :  -130.0091748 Eh     change       -0.2205144E-06 Eh
 * total energy  :  -130.0091749 Eh     change       -0.1575618E-06 Eh
 * total energy  :  -130.0091751 Eh     change       -0.1161122E-06 Eh
 * total energy  :  -130.0091752 Eh     change       -0.1027728E-06 Eh
 * total energy  :  -130.0091753 Eh     change       -0.9032070E-07 Eh
   *** GEOMETRY OPTIMIZATION CONVERGED AFTER 29 ITERATIONS ***

 final structure:
================
87
 xtb: 6.7.1 (edcfbbe)
C            7.01406851556640        3.04098488320055        0.20933002940410
C            5.78453168972412        2.27938348167923       -0.19050527401099
C            4.71617356876756        2.96289272421602       -0.78061917888782
C            3.55572564326003        2.32235564132720       -1.16557666731478
C            3.47254356753864        0.95359807079778       -0.96062147239061
C            4.53848959591220        0.24217511650525       -0.37003913032623
C            5.69151017299778        0.91394839866361        0.01464482619550
C            4.12904704701021       -1.13369673109040       -0.31143242426990
C            4.75585889350720       -2.30030978373626        0.10834701634736
C            4.10169939766053       -3.51140302384433       -0.03306907258454
C            4.73839325640983       -4.79282762052663        0.41998034931984
C            2.83308982387448       -3.54628883338231       -0.62293478652082
C            2.18757130306506       -2.40270645894958       -1.04612090399834
C            2.82771453950616       -1.18962482968454       -0.85362841475391
N            2.42768024256539        0.08509440186351       -1.21407801628231
C            1.20226133428323        0.42323790750969       -1.79780632512446
C            1.19546770870640        1.02994441954043       -3.05121682836167
C           -0.00181663225047        1.35436430395987       -3.66131101329675
C           -1.19808538280347        1.02775230031199       -3.05036739907258
C           -1.20279297288438        0.42097577339701       -1.79700943662719
N           -2.42713041825934        0.08031991646619       -1.21237631893420
C           -2.82509848640627       -1.19553853506883       -0.85364371031943
C           -2.18328580382346       -2.40737081476454       -1.04839397401955
C           -2.82703233773736       -3.55261642600410       -0.62699291754394
C           -4.09549838108035       -3.52056296825261       -0.03666188835544
C           -4.73001076774316       -4.80351719774609        0.41515069800207
C           -4.75128455895454       -2.31061912710488        0.10716309188955
C           -4.12631379246003       -1.14238891610039       -0.31087905632393
C           -4.53797772437271        0.23291956515380       -0.36759405695674
C           -5.69194246974362        0.90239943915736        0.01823399918806
C           -5.78729213887574        2.26790500534333       -0.18545716365627
C           -7.01816180503029        3.02688016181640        0.21529416171626
C           -4.72037677354656        2.95376341238229       -0.77542340170035
C           -3.55899635698372        2.31554246692103       -1.16143742149439
C           -3.47341874687155        0.94675371993476       -0.95777228803119
C            0.00020917527935        0.15732779898694       -1.13255514178109
P            0.00056572703218       -0.40415793112867        0.62200208597304
O            0.00002104384135       -1.85985888591703        0.84144196471691
C            1.42552711214709        0.40597985010782        1.42184232749998
C            2.22892899690277       -0.41054755343919        2.20610865827159
C            3.29481219375971        0.12354585624339        2.90673742839327
C            3.55339174433614        1.48220317223961        2.83707759094241
C            2.75107005207356        2.30120110899446        2.05975096931241
C            1.69227954639617        1.76705657267659        1.34905564377405
C           -1.42384704430223        0.40702571920227        1.42172756629319
C           -1.68973203865730        1.76824900036322        1.34849898794438
C           -2.74833395976719        2.30325591248314        2.05881656331202
C           -3.55135295203699        1.48497301032911        2.83618008691992
C           -3.29358603662315        0.12619016876147        2.90633662432307
C           -2.22786447891157       -0.40877290727707        2.20612071806909
H            7.49818649362754        3.46814632400860       -0.66891662263501
H            7.72539959595533        2.39274421860966        0.71449644277638
H            6.75364018001637        3.86136374973448        0.87703380545978
H            4.80428026191315        4.02902160271923       -0.93468713904120
H            2.73970989991835        2.87342954769603       -1.60898644464640
H            6.50540035434298        0.37091075939293        0.47227592077819
H            5.74824157538603       -2.25866061360055        0.53329560824189
H            5.73892638966772       -4.61459571505080        0.80588857697734
H            4.80334711146001       -5.49984156211133       -0.40639883482038
H            4.13982634426999       -5.25399601554413        1.20553784609387
H            2.34564154949937       -4.50209983999683       -0.75234621446221
H            1.21481734916575       -2.45567899478183       -1.51106077969977
H            2.13730473607265        1.23211053634246       -3.53870978400841
H           -0.00259399509748        1.83093000824721       -4.62960311726978
H           -2.14065864774818        1.22821719587767       -3.53714047689624
H           -1.21066066166721       -2.45813645565313       -1.51386324403793
H           -2.33830217781291       -4.50750073065276       -0.75842154500545
H           -4.78044242501434       -5.51531415352013       -0.40804435593450
H           -5.73617122506832       -4.62936802900310        0.78808919630179
H           -4.13833410391319       -5.25674604181900        1.21057539785924
H           -5.74359979206138       -2.27113780852816        0.53247931516313
H           -6.50476431569730        0.35756993187327        0.47563529255703
H           -6.75802482860503        3.85357253621514        0.87518985715711
H           -7.50908171586680        3.44483345631206       -0.66364839087509
H           -7.72373567018496        2.37918855202227        0.72917681014820
H           -4.81035319321486        4.01987993048424       -0.92847415356150
H           -2.74407192138415        2.86835958072704       -1.60468232638585
H            2.00763589621208       -1.46800959265350        2.24471690473664
H            3.92174575368741       -0.52073580840360        3.50530743106363
H            4.38255218945290        1.90404168542659        3.38507393791929
H            2.95555349708061        3.35969970234329        2.00042217716847
H            1.08593664851687        2.40733467175332        0.72642483705116
H           -1.08290430083201        2.40793098645083        0.72572699698358
H           -2.95216244248747        3.36186388906422        1.99913717488603
H           -4.38035481144044        1.90747216103420        3.38390223336108
H           -3.92094737759691       -0.51747386540073        3.50512064932519
H           -2.00713383514909       -1.46633631172661        2.24519521049660

          :  Hamiltonian                  GFN2-xTB          :
         :: gradient norm              0.000078053698 Eh/a0 ::
         :: HOMO-LUMO gap              2.626738711269 eV    ::
         :: SCC energy              -132.367164106015 Eh    ::
         :: -> dispersion             -0.149767083618 Eh    ::
         :: -> Gsolv                  -0.048488412030 Eh    ::
         :: repulsion energy           2.357988847042 Eh    ::

    * Orbital Energies and Occupations

         #    Occupation            Energy/Eh            Energy/eV
      -------------------------------------------------------------
         1        2.0000           -0.6973464             -18.9758
       ...           ...                  ...                  ...
       109        2.0000           -0.4146253             -11.2825
       110        2.0000           -0.4125726             -11.2267
       111        2.0000           -0.4115172             -11.1980
       112        2.0000           -0.4103445             -11.1660
       113        2.0000           -0.4096658             -11.1476
       114        2.0000           -0.4046866             -11.0121
       115        2.0000           -0.4007185             -10.9041
       116        2.0000           -0.3955078             -10.7623
       117        2.0000           -0.3950937             -10.7510
       118        2.0000           -0.3734966             -10.1634
       119        2.0000           -0.3734615             -10.1624
       120        2.0000           -0.3604367              -9.8080
       121        2.0000           -0.3577965              -9.7361 (HOMO)
       122                         -0.2612657              -7.1094 (LUMO)
       123                         -0.2514669              -6.8428
       124                         -0.2508211              -6.8252
       125                         -0.2413494              -6.5675
       126                         -0.2402228              -6.5368
       127                         -0.2336130              -6.3569
       128                         -0.2324343              -6.3249
       129                         -0.2301142              -6.2617
       130                         -0.2163419              -5.8870
       131                         -0.2161323              -5.8813
       132                         -0.1920686              -5.2265
       ...                                ...                  ...
       242                          1.2144038              33.0456
      -------------------------------------------------------------
                  HL-Gap            0.0965308 Eh            2.6267 eV

     #   Z          covCN         q      C6AA      α(0)
     1   6 C        3.758    -0.109    22.627     6.782
     2   6 C        2.966     0.007    27.872     8.660
     3   6 C        2.930    -0.045    29.118     8.850
     4   6 C        2.908    -0.054    29.337     8.881
     5   6 C        3.077     0.044    26.927     8.508
     6   6 C        3.066    -0.020    28.438     8.744
     7   6 C        2.918    -0.045    29.123     8.849
     8   6 C        3.067    -0.022    28.477     8.750
     9   6 C        2.918    -0.046    29.154     8.854
    10   6 C        2.966     0.006    27.881     8.661
    11   6 C        3.758    -0.108    22.606     6.779
    12   6 C        2.930    -0.041    29.024     8.835
    13   6 C        2.909    -0.038    28.935     8.820
    14   6 C        3.077     0.052    26.754     8.480
    15   7 N        2.805    -0.057    22.349     7.021
    16   6 C        2.969     0.071    26.410     8.430
    17   6 C        2.922    -0.048    29.189     8.860
    18   6 C        2.917    -0.025    28.625     8.773
    19   6 C        2.922    -0.048    29.189     8.860
    20   6 C        2.969     0.071    26.410     8.429
    21   7 N        2.805    -0.057    22.349     7.021
    22   6 C        3.077     0.052    26.753     8.480
    23   6 C        2.909    -0.038    28.934     8.820
    24   6 C        2.930    -0.041    29.024     8.835
    25   6 C        2.966     0.006    27.881     8.661
    26   6 C        3.758    -0.107    22.606     6.779
    27   6 C        2.918    -0.046    29.154     8.854
    28   6 C        3.067    -0.022    28.477     8.750
    29   6 C        3.066    -0.020    28.438     8.744
    30   6 C        2.918    -0.045    29.123     8.850
    31   6 C        2.966     0.007    27.873     8.660
    32   6 C        3.758    -0.109    22.627     6.782
    33   6 C        2.930    -0.045    29.118     8.850
    34   6 C        2.908    -0.054    29.337     8.881
    35   6 C        3.077     0.044    26.927     8.508
    36   6 C        2.918    -0.013    28.331     8.728
    37  15 P        4.031     0.086   156.452    22.469
    38   8 O        0.808    -0.401    21.726     6.248
    39   6 C        2.919     0.007    27.863     8.656
    40   6 C        3.037    -0.020    28.463     8.751
    41   6 C        2.919    -0.026    28.662     8.779
    42   6 C        2.921    -0.024    28.606     8.771
    43   6 C        2.920    -0.027    28.675     8.781
    44   6 C        2.967    -0.026    28.657     8.781
    45   6 C        2.919     0.007    27.864     8.656
    46   6 C        2.967    -0.026    28.657     8.781
    47   6 C        2.920    -0.027    28.675     8.781
    48   6 C        2.921    -0.024    28.606     8.771
    49   6 C        2.919    -0.026    28.662     8.779
    50   6 C        3.037    -0.020    28.463     8.751
    51   1 H        0.925     0.047     2.357     2.401
    52   1 H        0.925     0.042     2.421     2.433
    53   1 H        0.925     0.047     2.360     2.402
    54   1 H        0.926     0.035     2.516     2.480
    55   1 H        0.926     0.026     2.637     2.539
    56   1 H        0.926     0.032     2.561     2.503
    57   1 H        0.926     0.032     2.559     2.501
    58   1 H        0.925     0.043     2.413     2.429
    59   1 H        0.925     0.046     2.376     2.411
    60   1 H        0.925     0.045     2.377     2.411
    61   1 H        0.926     0.031     2.574     2.509
    62   1 H        0.926     0.021     2.723     2.581
    63   1 H        0.926     0.055     2.257     2.349
    64   1 H        0.926     0.059     2.210     2.325
    65   1 H        0.926     0.055     2.257     2.349
    66   1 H        0.926     0.021     2.724     2.581
    67   1 H        0.926     0.031     2.574     2.509
    68   1 H        0.925     0.045     2.377     2.411
    69   1 H        0.925     0.043     2.413     2.429
    70   1 H        0.925     0.046     2.376     2.411
    71   1 H        0.926     0.032     2.559     2.501
    72   1 H        0.926     0.032     2.561     2.503
    73   1 H        0.925     0.047     2.361     2.403
    74   1 H        0.925     0.047     2.357     2.401
    75   1 H        0.925     0.042     2.421     2.433
    76   1 H        0.926     0.035     2.516     2.480
    77   1 H        0.926     0.026     2.637     2.539
    78   1 H        0.926     0.045     2.381     2.413
    79   1 H        0.926     0.042     2.418     2.431
    80   1 H        0.926     0.046     2.371     2.408
    81   1 H        0.926     0.044     2.397     2.421
    82   1 H        0.926     0.037     2.490     2.468
    83   1 H        0.926     0.037     2.490     2.468
    84   1 H        0.926     0.044     2.397     2.421
    85   1 H        0.926     0.046     2.371     2.408
    86   1 H        0.926     0.042     2.418     2.432
    87   1 H        0.926     0.045     2.381     2.413

molecular dipole:
                 x           y           z       tot (Debye)
 q only:        0.001       1.821      -0.205
   full:        0.001       1.937      -0.327       4.992

 projected vibrational frequencies (cm⁻¹)
eigval :       -0.00    -0.00    -0.00    -0.00     0.00     0.00
eigval :       14.03    14.87    22.45    25.37    37.46    38.59
eigval :       47.75    50.78    51.19    54.34    69.68    70.35
eigval :       75.90    76.79    81.68    91.19    98.60    99.89
eigval :      110.57   111.26   113.81   120.25   121.15   139.49
eigval :      141.97   163.49   191.60   191.83   201.61   204.36
eigval :      224.02   225.54   226.93   237.07   246.16   292.00
eigval :      293.47   296.97   299.18   312.43   324.87   325.15
eigval :      331.51   357.56   359.32   363.21   365.88   374.87
eigval :      384.00   396.78   399.19   409.32   413.81   417.35
eigval :      420.17   426.79   429.64   435.56   456.92   474.73
eigval :      476.97   486.16   509.25   522.44   527.88   538.63
eigval :      556.46   560.03   573.68   573.89   581.12   584.71
eigval :      586.38   601.17   604.43   620.94   645.64   653.59
eigval :      660.76   667.34   667.50   675.57   680.12   691.03
eigval :      705.06   705.20   707.02   714.23   732.93   733.74
eigval :      746.14   759.00   794.29   800.90   801.78   809.14
eigval :      810.21   811.91   818.00   868.20   868.57   871.82
eigval :      874.12   874.94   879.45   894.77   895.19   901.06
eigval :      902.72   905.73   908.99   910.30   912.11   920.63
eigval :      924.53   926.49   928.20   929.27   930.96   931.26
eigval :      947.41   953.73   972.36   973.02  1008.85  1009.13
eigval :     1014.29  1016.57  1032.38  1033.63  1033.74  1034.13
eigval :     1034.80  1039.09  1040.20  1053.74  1076.65  1082.84
eigval :     1109.36  1121.65  1123.30  1123.30  1128.28  1140.54
eigval :     1146.03  1152.45  1154.83  1167.07  1170.89  1177.06
eigval :     1177.84  1180.49  1188.55  1198.09  1199.03  1201.90
eigval :     1202.36  1203.93  1227.81  1241.79  1250.19  1252.64
eigval :     1253.99  1266.88  1276.65  1287.31  1296.97  1298.15
eigval :     1308.91  1309.80  1323.47  1325.41  1345.95  1353.38
eigval :     1353.62  1360.96  1363.21  1379.42  1402.35  1402.43
eigval :     1402.89  1403.53  1414.97  1415.46  1420.88  1423.52
eigval :     1424.34  1430.31  1448.37  1450.71  1453.45  1456.80
eigval :     1476.43  1476.68  1477.16  1477.22  1477.77  1478.22
eigval :     1478.46  1478.63  1495.10  1495.22  1503.77  1504.01
eigval :     1556.49  1559.84  1573.31  1573.87  1581.74  1583.71
eigval :     1585.85  1586.46  1587.79  1588.89  1609.44  1609.69
eigval :     1620.34  1621.04  2997.64  2998.20  2998.41  2998.54
eigval :     3013.23  3013.43  3014.09  3014.52  3041.63  3041.69
eigval :     3043.23  3043.40  3070.65  3070.68  3071.94  3072.28
eigval :     3072.35  3072.94  3074.89  3075.10  3076.14  3077.35
eigval :     3077.38  3079.12  3080.35  3082.44  3083.50  3083.57
eigval :     3085.55  3086.08  3086.64  3088.61  3089.47  3094.73
eigval :     3095.92  3097.31  3103.36

   temp. (K)  partition function   enthalpy   heat capacity  entropy
                                   cal/mol     cal/K/mol   cal/K/mol   J/K/mol
 298.15  VIB  0.740E+20            26037.302    160.221    163.762
         ROT  0.565E+08              888.752      2.981     38.454
         INT  0.418E+28            26926.055    163.202    202.216
         TR   0.166E+29             1481.254      4.968     45.344
         TOT                       28407.3087   168.1698   247.5600  1035.7912

       T/K    H(0)-H(T)+PV         H(T)/Eh          T*S/Eh         G(T)/Eh
   ------------------------------------------------------------------------
    298.15    0.452699E-01    0.726398E+00    0.117624E+00    0.608774E+00
   ------------------------------------------------------------------------

         :::::::::::::::::::::::::::::::::::::::::::::::::::::
         ::                  THERMODYNAMIC                  ::
         :::::::::::::::::::::::::::::::::::::::::::::::::::::
         :: total free energy        -129.400400826222 Eh   ::
         ::.................................................::
         :: total energy             -130.009175258591 Eh   ::
         :: zero point energy           0.681128270896 Eh   ::
         :: G(RRHO) w/o ZPVE           -0.072353838527 Eh   ::
         :: G(RRHO) contrib.            0.608774432369 Eh   ::
         :::::::::::::::::::::::::::::::::::::::::::::::::::::

           -------------------------------------------------
          | TOTAL ENERGY             -130.009175258591 Eh   |
          | TOTAL ENTHALPY           -129.282777059648 Eh   |
          | TOTAL FREE ENERGY        -129.400400826222 Eh   |
          | GRADIENT NORM               0.000078070199 Eh/α |
          | HOMO-LUMO GAP               2.626738078974 eV   |
           -------------------------------------------------

 * finished run on 2025/08/24 at 13:24:46.360
