   * xtb version 6.7.1 (edcfbbe) compiled by 'albert@albert-system' on 2024-07-22

   ID    Z sym.   atoms
    1    6 C      1-8, 10, 12-17, 19-32, 34-38, 40-55
    2    7 N      9, 18, 39
    3    8 O      11, 56
    4   16 S      33
    5    1 H      57-97

          program call               : xtb data2507/gas/p-PCzTPD/p-PCzTPD_gas_S0_crest.xyz --gfn 2 --ohess vtight --parallel 40 --molden --ceasefiles --namespace data2507/gas/p-PCzTPD/p-PCzTPD_gas_S0_finalOpt
          :  Hamiltonian                  GFN2-xTB          :
 * total energy  :  -148.2737925 Eh     change       -0.6263576E-08 Eh
 * total energy  :  -148.2737932 Eh     change       -0.7289727E-06 Eh
 * total energy  :  -148.2737946 Eh     change       -0.1348570E-05 Eh
 * total energy  :  -148.2737970 Eh     change       -0.2380085E-05 Eh
 * total energy  :  -148.2737999 Eh     change       -0.2943561E-05 Eh
 * total energy  :  -148.2738019 Eh     change       -0.1986088E-05 Eh
 * total energy  :  -148.2738032 Eh     change       -0.1319705E-05 Eh
 * total energy  :  -148.2738048 Eh     change       -0.1557183E-05 Eh
 * total energy  :  -148.2738068 Eh     change       -0.1996925E-05 Eh
 * total energy  :  -148.2738086 Eh     change       -0.1817897E-05 Eh
 * total energy  :  -148.2738361 Eh     change       -0.3969616E-06 Eh
 * total energy  :  -148.2738365 Eh     change       -0.3939658E-06 Eh
 * total energy  :  -148.2738369 Eh     change       -0.3452793E-06 Eh
 * total energy  :  -148.2738371 Eh     change       -0.2824056E-06 Eh
 * total energy  :  -148.2738374 Eh     change       -0.2687487E-06 Eh
 * total energy  :  -148.2738377 Eh     change       -0.2841834E-06 Eh
 * total energy  :  -148.2738380 Eh     change       -0.3291100E-06 Eh
 * total energy  :  -148.2738384 Eh     change       -0.3614934E-06 Eh
 * total energy  :  -148.2738384 Eh     change       -0.3043539E-08 Eh
   *** GEOMETRY OPTIMIZATION CONVERGED AFTER 44 ITERATIONS ***

 final structure:
================
97
 xtb: 6.7.1 (edcfbbe)
C            3.10860505639902       -0.80414394433516        2.87372769040242
C            3.07257842100895       -2.15557348572100        2.17171199481084
C            1.65615955088143       -2.71891705889359        2.07916557150595
C            1.62117316359520       -4.03165270048482        1.29927579677386
C            0.19642698468701       -4.54292815894070        1.09381718626708
C            0.10856910635630       -5.81606679545179        0.24525078747508
C            0.68625854338161       -5.73353131830651       -1.17098717959700
C           -0.12904499345843       -4.89931756501146       -2.16187581636028
N           -0.15429335070590       -3.49164772409240       -1.83283404935539
C           -1.32963950403073       -2.82030325602705       -1.52446417929710
O           -2.42415131410808       -3.33379013132819       -1.56567898710929
C           -0.91260457142615       -1.45917953378132       -1.16144772661253
C           -1.49834993479336       -0.30815809943757       -0.69237583084447
C           -2.87387708991902        0.05249825642911       -0.44965901530576
C           -3.92783001192460       -0.79820409659947       -0.80201749941305
C           -5.23478069951623       -0.42668752876182       -0.57482924571882
C           -5.53357763949439        0.80069195954362        0.01592898403737
N           -6.85725214358611        1.17278339210192        0.24886241135673
C           -7.42173076502134        2.39706164903727       -0.06221837585075
C           -6.86540651856889        3.48896840380678       -0.71256220861800
C           -7.67100774519047        4.59099313960209       -0.92910126749293
C           -9.00257718228827        4.61052020140318       -0.52172770872374
C           -9.57014490896269        3.51555878652647        0.09896313137939
C           -8.78004990653703        2.39721780417105        0.32772988842704
C           -9.03973548216125        1.10902079002123        0.90859021071203
C          -10.16499447912623        0.53280531201166        1.48246769801494
C          -10.06803826974364       -0.75005032439262        1.98344774599612
C           -8.86411285643937       -1.44834272278380        1.93311909096158
C           -7.73086482909787       -0.89530791984760        1.36724889807746
C           -7.82999593982656        0.38240810718924        0.83600942804425
C           -4.48802396718629        1.65238749684807        0.37514189270712
C           -3.18337785841310        1.28340576301072        0.14174290960104
S           -0.24049670016992        0.86760680169564       -0.37127313178451
C            1.05674801621671       -0.20386268754309       -0.86281510780899
C            2.42245220804999        0.23328608232182       -0.70866202994057
C            3.49818183119121       -0.58085283361388       -1.08107686924801
C            4.79471719376875       -0.17697715029531       -0.84954644270409
C            5.05967037175994        1.05064227491645       -0.24431625416441
N            6.37310640102500        1.43567732915544        0.02384727973837
C            7.32469987225548        0.65515756999358        0.65564736855958
C            7.20546240864371       -0.61523457904401        1.20014957857536
C            8.31693854742305       -1.15871016317314        1.81605029990072
C            9.51789591795670       -0.45833921242059        1.90052295531597
C            9.63350184276723        0.81722779075330        1.38488474181556
C            8.53001765249146        1.38492517162585        0.76216042031807
C            8.28856729345060        2.66532457740342        0.15631186280391
C            9.08281763443440        3.78337739397952       -0.05916967850966
C            8.53294793895526        4.86967875893802       -0.71040234120608
C            7.21478189990661        4.84329085289596       -1.15925683248459
C            6.40518046933945        3.74154229654949       -0.95721866688274
C            6.94417217609379        2.65768071550397       -0.27969805531852
C            3.99454268948121        1.88295030858671        0.09975064040790
C            2.70001990646633        1.47780059668489       -0.13025816395751
C            0.50995463912092       -1.39574934313071       -1.27206848060914
C            0.97824985306487       -2.69722505626396       -1.77139832540778
O            2.08191275131945       -3.07002489786373       -2.10077851689676
H            4.12627676031001       -0.42219487378230        2.92006215935221
H            2.72697963210079       -0.88996525824210        3.88882830164384
H            2.49807910064431       -0.08047718450402        2.33734347889874
H            3.47591384742855       -2.04660820293154        1.16198622199057
H            3.70746079398389       -2.86308294851028        2.70996510506566
H            1.01497355605855       -1.98681691568606        1.58026541101448
H            1.25583589092434       -2.87412957363827        3.08389581824989
H            2.20289346815562       -4.78810076703050        1.83138695985259
H            2.10385636006095       -3.86570078193296        0.33621565331580
H           -0.41408729430364       -3.75423692112539        0.65177109306134
H           -0.24045986430557       -4.76346372289474        2.07186363471274
H            0.64123950870559       -6.61175013430391        0.77259640114738
H           -0.94162881117991       -6.11140679324587        0.17787468530563
H            1.70655126803964       -5.35246592270477       -1.14388902411868
H            0.72832379667038       -6.74669885118033       -1.57714165580337
H           -1.17158688342585       -5.22749728457686       -2.17951127563341
H            0.30348506385409       -5.01374389273463       -3.16141287426863
H           -3.72002831242439       -1.75144410029171       -1.25835549807635
H           -6.03835598928362       -1.08076041668635       -0.87665768224193
H           -5.84141334770587        3.47834957740461       -1.05395306295751
H           -7.25890936127444        5.45461750512940       -1.42985181757344
H           -9.59832274660783        5.49191080305038       -0.70642170112019
H          -10.60762847670030        3.52162049109442        0.39700698680300
H          -11.09223280590552        1.08272299180240        1.53805217408785
H          -10.93182821639657       -1.21843419237313        2.43107205498160
H           -8.81272171046377       -2.44361033476223        2.34908720829663
H           -6.79904528874576       -1.43966517470995        1.35368768426443
H           -4.70791438743117        2.59238563275136        0.85791534671518
H           -2.38423045914863        1.94994328660632        0.43291332654345
H            3.31450767765023       -1.53010494288522       -1.55659670393947
H            5.61681283148251       -0.80884687337736       -1.14958605368899
H            6.27483440313519       -1.16055443582763        1.15817558436279
H            8.25058295289494       -2.14768649038089        2.24471313101331
H           10.36464895908721       -0.91939980361098        2.38667944812252
H           10.55820433219566        1.36811361086280        1.46688478314039
H           10.10997906882563        3.79612639133420        0.27256662962665
H            9.13256433786438        5.75033744371099       -0.88586073994614
H            6.81707905686008        5.70118835046290       -1.68103725240912
H            5.39164999745645        3.72421520134685       -1.32847307239861
H            4.19055373211773        2.83078720326883        0.57743535774048
H            1.88361013478866        2.12281882057749        0.16186071626632

          :  Hamiltonian                  GFN2-xTB          :
         :: gradient norm              0.000039075149 Eh/a0 ::
         :: HOMO-LUMO gap              1.696547739484 eV    ::
         :: SCC energy              -150.786726590408 Eh    ::
         :: -> dispersion             -0.137209601235 Eh    ::
         :: repulsion energy           2.512888200005 Eh    ::

    * Orbital Energies and Occupations

         #    Occupation            Energy/Eh            Energy/eV
      -------------------------------------------------------------
         1        2.0000           -0.7496943             -20.4002
       ...           ...                  ...                  ...
       125        2.0000           -0.4192403             -11.4081
       126        2.0000           -0.4173372             -11.3563
       127        2.0000           -0.4152556             -11.2997
       128        2.0000           -0.4143117             -11.2740
       129        2.0000           -0.4105705             -11.1722
       130        2.0000           -0.4082122             -11.1080
       131        2.0000           -0.4077038             -11.0942
       132        2.0000           -0.4075275             -11.0894
       133        2.0000           -0.3941137             -10.7244
       134        2.0000           -0.3812009             -10.3730
       135        2.0000           -0.3810279             -10.3683
       136        2.0000           -0.3672656              -9.9938
       137        2.0000           -0.3641054              -9.9078 (HOMO)
       138                         -0.3017585              -8.2113 (LUMO)
       139                         -0.2995374              -8.1508
       140                         -0.2479753              -6.7478
       141                         -0.2472876              -6.7290
       142                         -0.2391380              -6.5073
       143                         -0.2389130              -6.5012
       144                         -0.2337607              -6.3610
       145                         -0.2247749              -6.1164
       146                         -0.2244162              -6.1067
       147                         -0.2242180              -6.1013
       148                         -0.2223238              -6.0497
       ...                                ...                  ...
       270                          0.7501689              20.4131
      -------------------------------------------------------------
                  HL-Gap            0.0623470 Eh            1.6965 eV

     #   Z          covCN         q      C6AA      α(0)
     1   6 C        3.752    -0.099    22.452     6.757
     2   6 C        3.801    -0.052    21.509     6.603
     3   6 C        3.803    -0.054    21.546     6.608
     4   6 C        3.802    -0.060    21.647     6.624
     5   6 C        3.801    -0.053    21.517     6.604
     6   6 C        3.799    -0.058    21.623     6.621
     7   6 C        3.800    -0.064    21.731     6.637
     8   6 C        3.740     0.009    20.494     6.459
     9   7 N        2.802    -0.101    23.209     7.155
    10   6 C        2.825     0.278    22.303     7.738
    11   8 O        0.857    -0.403    21.737     6.251
    12   6 C        3.234    -0.054    28.442     8.655
    13   6 C        2.976     0.036    27.181     8.552
    14   6 C        3.004     0.006    27.862     8.659
    15   6 C        2.922    -0.036    28.892     8.815
    16   6 C        2.920    -0.041    29.007     8.832
    17   6 C        2.912     0.069    26.453     8.434
    18   7 N        2.802    -0.040    22.004     6.967
    19   6 C        3.072     0.046    26.889     8.502
    20   6 C        2.910    -0.050    29.251     8.868
    21   6 C        2.924    -0.033    28.822     8.804
    22   6 C        2.920    -0.040    28.986     8.829
    23   6 C        2.913    -0.032    28.804     8.801
    24   6 C        3.067    -0.015    28.325     8.727
    25   6 C        3.067    -0.016    28.328     8.727
    26   6 C        2.913    -0.032    28.806     8.801
    27   6 C        2.920    -0.039    28.980     8.828
    28   6 C        2.924    -0.032    28.808     8.802
    29   6 C        2.910    -0.050    29.242     8.867
    30   6 C        3.072     0.046    26.885     8.502
    31   6 C        2.920    -0.042    29.053     8.839
    32   6 C        2.926    -0.031    28.769     8.796
    33  16 S        2.410    -0.026   142.108    20.064
    34   6 C        2.977     0.038    27.148     8.547
    35   6 C        3.004     0.009    27.800     8.649
    36   6 C        2.922    -0.035    28.868     8.811
    37   6 C        2.921    -0.040    28.986     8.829
    38   6 C        2.913     0.070    26.440     8.432
    39   7 N        2.802    -0.040    22.013     6.968
    40   6 C        3.073     0.046    26.884     8.501
    41   6 C        2.910    -0.050    29.254     8.869
    42   6 C        2.924    -0.033    28.813     8.803
    43   6 C        2.920    -0.040    28.986     8.829
    44   6 C        2.913    -0.032    28.807     8.801
    45   6 C        3.067    -0.016    28.334     8.728
    46   6 C        3.068    -0.016    28.331     8.728
    47   6 C        2.913    -0.032    28.804     8.801
    48   6 C        2.920    -0.040    28.988     8.829
    49   6 C        2.924    -0.033    28.821     8.804
    50   6 C        2.910    -0.050    29.251     8.868
    51   6 C        3.072     0.046    26.886     8.502
    52   6 C        2.919    -0.041    29.024     8.835
    53   6 C        2.927    -0.030    28.747     8.793
    54   6 C        3.233    -0.052    28.402     8.650
    55   6 C        2.824     0.283    22.221     7.724
    56   8 O        0.857    -0.404    21.763     6.255
    57   1 H        0.925     0.030     2.580     2.512
    58   1 H        0.925     0.035     2.516     2.480
    59   1 H        0.925     0.028     2.615     2.529
    60   1 H        0.924     0.028     2.621     2.532
    61   1 H        0.924     0.030     2.581     2.513
    62   1 H        0.924     0.018     2.761     2.598
    63   1 H        0.924     0.029     2.604     2.524
    64   1 H        0.924     0.030     2.590     2.517
    65   1 H        0.925     0.036     2.510     2.477
    66   1 H        0.924     0.020     2.732     2.585
    67   1 H        0.924     0.029     2.602     2.523
    68   1 H        0.924     0.034     2.528     2.486
    69   1 H        0.924     0.037     2.490     2.468
    70   1 H        0.925     0.059     2.206     2.323
    71   1 H        0.924     0.041     2.438     2.442
    72   1 H        0.924     0.071     2.079     2.255
    73   1 H        0.924     0.053     2.288     2.365
    74   1 H        0.926     0.083     1.949     2.183
    75   1 H        0.926     0.050     2.314     2.379
    76   1 H        0.926     0.028     2.609     2.526
    77   1 H        0.926     0.031     2.578     2.511
    78   1 H        0.926     0.030     2.589     2.516
    79   1 H        0.926     0.033     2.549     2.497
    80   1 H        0.926     0.032     2.552     2.498
    81   1 H        0.926     0.030     2.586     2.515
    82   1 H        0.926     0.032     2.560     2.502
    83   1 H        0.926     0.031     2.566     2.505
    84   1 H        0.926     0.046     2.375     2.410
    85   1 H        0.926     0.048     2.347     2.396
    86   1 H        0.926     0.084     1.943     2.180
    87   1 H        0.926     0.049     2.327     2.385
    88   1 H        0.926     0.032     2.565     2.504
    89   1 H        0.926     0.031     2.566     2.505
    90   1 H        0.926     0.030     2.590     2.516
    91   1 H        0.926     0.032     2.554     2.499
    92   1 H        0.926     0.032     2.552     2.498
    93   1 H        0.926     0.030     2.592     2.518
    94   1 H        0.926     0.030     2.580     2.512
    95   1 H        0.926     0.028     2.612     2.527
    96   1 H        0.926     0.045     2.381     2.413
    97   1 H        0.926     0.047     2.358     2.402

molecular dipole:
                 x           y           z       tot (Debye)
 q only:        0.046       0.729       0.536
   full:        0.009       0.585       0.407       1.811

 projected vibrational frequencies (cm⁻¹)
eigval :       -0.00    -0.00    -0.00     0.00     0.00     0.00
eigval :        6.80     7.40    11.13    14.21    19.28    20.59
eigval :       32.05    33.32    41.76    54.70    60.88    65.99
eigval :       68.54    75.90    77.00    95.38    98.22   102.89
eigval :      108.23   110.93   115.21   117.81   122.05   140.53
eigval :      143.51   145.75   146.91   156.73   161.18   181.28
eigval :      205.11   221.06   231.98   235.13   244.72   247.42
eigval :      250.70   262.40   265.64   272.00   272.18   280.44
eigval :      293.30   321.50   327.77   345.85   362.14   372.19
eigval :      377.49   378.14   379.78   385.43   391.02   394.54
eigval :      395.76   407.56   418.55   424.86   425.09   434.80
eigval :      438.59   441.50   447.40   465.74   491.85   499.89
eigval :      515.76   518.05   518.47   534.02   534.81   540.93
eigval :      541.07   554.00   559.48   582.23   582.75   593.54
eigval :      594.20   598.26   606.50   616.62   618.13   637.47
eigval :      674.24   674.29   686.74   689.31   694.08   695.98
eigval :      707.66   709.19   712.45   720.72   722.41   755.36
eigval :      757.12   765.88   770.32   770.40   773.05   781.42
eigval :      781.49   782.26   796.45   823.93   825.16   834.33
eigval :      857.13   864.22   866.45   874.06   874.20   877.87
eigval :      879.96   890.73   897.65   898.04   902.75   902.80
eigval :      903.66   904.35   904.73   907.39   911.09   919.28
eigval :      919.43   922.00   922.80   927.54   928.40   936.80
eigval :      940.20   942.65   945.09   961.23   974.05   993.95
eigval :     1008.75  1012.04  1012.22  1014.70  1028.36  1058.24
eigval :     1060.30  1071.01  1071.55  1073.71  1074.66  1075.31
eigval :     1087.29  1101.57  1118.07  1118.43  1120.77  1129.94
eigval :     1145.72  1146.50  1147.53  1153.19  1154.01  1154.76
eigval :     1176.99  1177.02  1181.06  1181.14  1184.98  1185.36
eigval :     1209.41  1210.22  1212.17  1218.28  1235.83  1236.06
eigval :     1243.03  1244.46  1245.19  1261.37  1264.01  1269.18
eigval :     1270.24  1274.81  1282.51  1284.62  1288.11  1295.09
eigval :     1299.32  1300.10  1300.56  1301.06  1313.85  1322.90
eigval :     1325.14  1328.34  1337.76  1346.86  1351.41  1357.57
eigval :     1357.87  1360.62  1360.83  1364.86  1369.48  1369.58
eigval :     1370.55  1379.56  1410.50  1411.23  1418.38  1426.77
eigval :     1427.36  1427.46  1428.48  1438.85  1474.66  1474.99
eigval :     1481.69  1483.84  1485.64  1486.72  1487.36  1487.42
eigval :     1495.37  1500.31  1502.40  1505.21  1507.41  1512.27
eigval :     1528.35  1542.45  1547.81  1550.11  1575.70  1575.83
eigval :     1588.32  1588.71  1590.23  1590.50  1598.44  1598.56
eigval :     1613.73  1613.87  1735.80  1748.88  2942.87  2951.40
eigval :     2956.42  2961.77  2967.42  2971.97  2972.65  2976.06
eigval :     2977.57  2981.38  2982.95  3001.70  3014.05  3024.13
eigval :     3027.36  3029.66  3035.65  3076.30  3077.45  3077.86
eigval :     3078.10  3078.72  3078.97  3083.04  3083.34  3084.46
eigval :     3084.88  3090.10  3090.56  3091.99  3092.62  3096.41
eigval :     3096.99  3097.10  3098.23  3098.29  3098.55  3098.67
eigval :     3099.54  3130.37  3135.36

   temp. (K)  partition function   enthalpy   heat capacity  entropy
                                   cal/mol     cal/K/mol   cal/K/mol   J/K/mol
 298.15  VIB  0.105E+24            28171.687    173.751    178.299
         ROT  0.179E+09              888.752      2.981     40.742
         INT  0.188E+32            29060.440    176.731    219.041
         TR   0.198E+29             1481.254      4.968     45.695
         TOT                       30541.6935   181.6996   264.7359  1107.6549

       T/K    H(0)-H(T)+PV         H(T)/Eh          T*S/Eh         G(T)/Eh
   ------------------------------------------------------------------------
    298.15    0.486713E-01    0.814339E+00    0.125785E+00    0.688554E+00
   ------------------------------------------------------------------------

         :::::::::::::::::::::::::::::::::::::::::::::::::::::
         ::                  THERMODYNAMIC                  ::
         :::::::::::::::::::::::::::::::::::::::::::::::::::::
         :: total free energy        -147.585284054283 Eh   ::
         ::.................................................::
         :: total energy             -148.273838390403 Eh   ::
         :: zero point energy           0.765667600845 Eh   ::
         :: G(RRHO) w/o ZPVE           -0.077113264726 Eh   ::
         :: G(RRHO) contrib.            0.688554336120 Eh   ::
         :::::::::::::::::::::::::::::::::::::::::::::::::::::

           -------------------------------------------------
          | TOTAL ENERGY             -148.273838390403 Eh   |
          | TOTAL ENTHALPY           -147.459499502945 Eh   |
          | TOTAL FREE ENERGY        -147.585284054283 Eh   |
          | GRADIENT NORM               0.000039071028 Eh/α |
          | HOMO-LUMO GAP               1.696548112336 eV   |
           -------------------------------------------------

 * finished run on 2025/08/29 at 22:20:14.448
