   * xtb version 6.7.1 (edcfbbe) compiled by 'albert@albert-system' on 2024-07-22

   ID    Z sym.   atoms
    1    6 C      1-8, 10, 12-17, 19-32, 34-38, 40-55
    2    7 N      9, 18, 39
    3    8 O      11, 56
    4   16 S      33
    5    1 H      57-97

          program call               : xtb data2507/gas/p-PCzTPD/p-PCzTPD.xyz --gfn 2 --ohess vtight --parallel 40 --molden --ceasefiles --namespace data2507/gas/p-PCzTPD/p-PCzTPD_gas_S0_preOpt
          :  Hamiltonian                  GFN2-xTB          :
 * total energy  :  -148.2391123 Eh     change       -0.2217348E-08 Eh
 * total energy  :  -148.2549247 Eh     change       -0.1581235E-01 Eh
 * total energy  :  -148.2585318 Eh     change       -0.3607156E-02 Eh
 * total energy  :  -148.2591802 Eh     change       -0.6483832E-03 Eh
 * total energy  :  -148.2597162 Eh     change       -0.5359941E-03 Eh
 * total energy  :  -148.2599455 Eh     change       -0.2292783E-03 Eh
 * total energy  :  -148.2600835 Eh     change       -0.1380670E-03 Eh
 * total energy  :  -148.2601628 Eh     change       -0.7927467E-04 Eh
 * total energy  :  -148.2602256 Eh     change       -0.6275243E-04 Eh
 * total energy  :  -148.2602925 Eh     change       -0.6689427E-04 Eh
 * total energy  :  -148.2672463 Eh     change       -0.2505468E-06 Eh
 * total energy  :  -148.2672465 Eh     change       -0.1983625E-06 Eh
 * total energy  :  -148.2672467 Eh     change       -0.2135895E-06 Eh
 * total energy  :  -148.2672470 Eh     change       -0.2447856E-06 Eh
 * total energy  :  -148.2672472 Eh     change       -0.2899746E-06 Eh
 * total energy  :  -148.2672475 Eh     change       -0.3047485E-06 Eh
 * total energy  :  -148.2672478 Eh     change       -0.2838809E-06 Eh
 * total energy  :  -148.2672481 Eh     change       -0.2845559E-06 Eh
 * total energy  :  -148.2672481 Eh     change       -0.2493920E-08 Eh
   *** GEOMETRY OPTIMIZATION CONVERGED AFTER 185 ITERATIONS ***

 final structure:
================
97
 xtb: 6.7.1 (edcfbbe)
C           -6.21498193117807        5.37471067192675       -0.41153052379639
C           -5.00695863181853        5.03517626450917       -1.27684646527187
C           -3.80569971399162        5.94808531798318       -1.02613344306933
C           -3.18122366604011        5.73805791255872        0.35163609190310
C           -1.93761429654405        6.59738117129031        0.59048455514351
C           -0.76231116489041        6.32771250756607       -0.35541392703718
C           -0.37306989185620        4.85673993969579       -0.48951649738628
C            0.04782547732735        4.23000248648100        0.84002876195976
N            0.27894905068345        2.81073150977978        0.68748348350442
C           -0.76093565073780        1.89766622640518        0.62323404381676
O           -1.92687010991238        2.20831547343765        0.72254505469272
C           -0.11676855994030        0.59134930760702        0.43239139275651
C           -0.49768600702200       -0.72072931592582        0.28703625142589
C           -1.79100127724344       -1.35976077807730        0.26196582336012
C           -2.96986178162729       -0.63856717834515        0.48350572252698
C           -4.19393024169561       -1.27000385276406        0.45913933988852
C           -4.28418377562611       -2.63839428645420        0.20609778014656
N           -5.52528682862191       -3.27357927094010        0.17448615430064
C           -5.84615185012144       -4.45912815418733        0.81156388820131
C           -5.07806417996531       -5.24577367207366        1.65769113831014
C           -5.66156682280323       -6.37852104174621        2.19319554042414
C           -6.98068907307881       -6.72202129231763        1.90798266615591
C           -7.75943233473721       -5.92687089599379        1.09091509820326
C           -7.19461560148535       -4.78409771426869        0.54108623638239
C           -7.70496388682210       -3.74263871751581       -0.30694635167300
C           -8.93620960829691       -3.52381682914041       -0.91004630861826
C           -9.09281132574104       -2.40729298877368       -1.70687749043615
C           -8.03528441534794       -1.52634313705168       -1.91921460925831
C           -6.80063256211895       -1.72393263272309       -1.33022416457677
C           -6.64597918336705       -2.82826202406416       -0.50488502402428
C           -3.11371818977118       -3.36418777144699       -0.01952946364726
C           -1.89110430434445       -2.73393882866841        0.01230404488742
S            0.94153625052490       -1.70251426122499        0.10571965606358
C            2.03676724695703       -0.33988161766527        0.22299144969673
C            3.45780381819169       -0.57500181430382        0.13863652345317
C            4.37825738961075        0.47922132534065        0.15597116188975
C            5.73064423461151        0.23088171787215        0.07078821406809
C            6.21009982643520       -1.07487467484698       -0.02789241858952
N            7.58007533783800       -1.32361239699308       -0.10835529175271
C            8.19956649747979       -2.16365857995653       -1.01650876047151
C            7.65486984520407       -2.88828358964452       -2.06670397557099
C            8.51483917099190       -3.63185881407188       -2.85276786873907
C            9.88667161178261       -3.65100002624952       -2.61369933965524
C           10.43805193815890       -2.90840932306621       -1.58858952655447
C            9.59369129850725       -2.15410571651007       -0.78522769283459
C            9.81912913228569       -1.26804244334322        0.32307212135433
C           10.95895082829552       -0.87551007671150        1.01177967685065
C           10.82178954711022       -0.00710603074428        2.07627949160984
C            9.56666652556596        0.45352014360560        2.46633674822716
C            8.41811613477289        0.07646078038901        1.79631353055226
C            8.55278094955514       -0.77284924354157        0.70767241160240
C            5.29908899445730       -2.13192098266191       -0.04193302606818
C            3.94832635853486       -1.88260755378552        0.03674348785774
C            1.29550224158101        0.80484815571251        0.38979712859077
C            1.53730916705325        2.24686421513267        0.54792609324002
O            2.56304506188533        2.88753772708666        0.56942840809749
H           -6.49767832883616        6.41715730026407       -0.54422932812873
H           -6.00148117875735        5.20609676576340        0.64049601890877
H           -7.06352784537252        4.75225535648675       -0.68734864025711
H           -4.71085668310065        3.99960335107633       -1.09447303443908
H           -5.29433668251842        5.11760143651765       -2.32837354537072
H           -4.11431569675716        6.99145758841991       -1.13113570110320
H           -3.05854988334884        5.74571230336657       -1.79586270228314
H           -2.93943106513008        4.68199606021615        0.47916711972141
H           -3.91353895916327        5.99777965645753        1.11863193069682
H           -1.60895213997902        6.45048983659185        1.62184222130553
H           -2.21225340015426        7.65083484015491        0.49044554154922
H           -1.00701248314285        6.70464668504068       -1.35021252344523
H            0.10186336950173        6.89361222110148        0.00144902224232
H           -1.21331971522410        4.28910820627010       -0.89158607788369
H            0.45709444622581        4.77060149925931       -1.19534885618804
H           -0.74165464706325        4.35330237687617        1.58415382402088
H            0.97578275019682        4.67632684171421        1.20378614339154
H           -2.92365229665729        0.41884003353226        0.68328151355738
H           -5.09218610211874       -0.70629613832018        0.65927706134221
H           -4.06194001808789       -4.97881133547746        1.90554757542680
H           -5.08199425278529       -7.00865314727439        2.85155627091390
H           -7.39920179546592       -7.61701859659819        2.34352373428613
H           -8.78826764782213       -6.18083031165769        0.88537438618754
H           -9.74905899685545       -4.21806653485381       -0.75990159945497
H          -10.04304737773877       -2.21609075396520       -2.18266505678433
H           -8.18107363899686       -0.67076932262634       -2.56184477081218
H           -5.98382884306753       -1.04464315889195       -1.52045711426986
H           -3.17467736977714       -4.41856315381159       -0.24216294326745
H           -0.99434842184555       -3.30771258604509       -0.17259726427270
H            4.03005743361541        1.49596108861597        0.22869332603543
H            6.42735676674282        1.05498783787411        0.05833960345983
H            6.59640483846576       -2.86414189142175       -2.27713987624263
H            8.11348864915220       -4.20729166992694       -3.67387832752281
H           10.52496132142038       -4.24712280804073       -3.24860796940219
H           11.50342215944140       -2.90632797477938       -1.41472249532192
H           11.92903001803097       -1.24861718081188        0.72019548450408
H           11.69550189941127        0.31365383097408        2.62366399801480
H            9.48759824806653        1.11772203588185        3.31417067968208
H            7.44975784228539        0.42456104407943        2.12185004806471
H            5.66135462123334       -3.14747389297673       -0.09155838173317
H            3.25575803735977       -2.71204606562094        0.03327270277882

          :  Hamiltonian                  GFN2-xTB          :
         :: gradient norm              0.000035121118 Eh/a0 ::
         :: HOMO-LUMO gap              1.688167522023 eV    ::
         :: SCC energy              -150.780430618921 Eh    ::
         :: -> dispersion             -0.127746608611 Eh    ::
         :: repulsion energy           2.513182500241 Eh    ::

    * Orbital Energies and Occupations

         #    Occupation            Energy/Eh            Energy/eV
      -------------------------------------------------------------
         1        2.0000           -0.7495163             -20.3954
       ...           ...                  ...                  ...
       125        2.0000           -0.4169569             -11.3460
       126        2.0000           -0.4153372             -11.3019
       127        2.0000           -0.4142790             -11.2731
       128        2.0000           -0.4122307             -11.2174
       129        2.0000           -0.4098898             -11.1537
       130        2.0000           -0.4078584             -11.0984
       131        2.0000           -0.4076306             -11.0922
       132        2.0000           -0.4058438             -11.0436
       133        2.0000           -0.3945036             -10.7350
       134        2.0000           -0.3813576             -10.3773
       135        2.0000           -0.3811258             -10.3710
       136        2.0000           -0.3673880              -9.9971
       137        2.0000           -0.3641995              -9.9104 (HOMO)
       138                         -0.3021605              -8.2222 (LUMO)
       139                         -0.2994393              -8.1482
       140                         -0.2481351              -6.7521
       141                         -0.2474293              -6.7329
       142                         -0.2390263              -6.5042
       143                         -0.2387157              -6.4958
       144                         -0.2335619              -6.3555
       145                         -0.2251167              -6.1257
       146                         -0.2245693              -6.1108
       147                         -0.2243355              -6.1045
       148                         -0.2221892              -6.0461
       ...                                ...                  ...
       270                          0.7513539              20.4454
      -------------------------------------------------------------
                  HL-Gap            0.0620390 Eh            1.6882 eV

     #   Z          covCN         q      C6AA      α(0)
     1   6 C        3.751    -0.101    22.495     6.764
     2   6 C        3.800    -0.053    21.524     6.605
     3   6 C        3.801    -0.057    21.604     6.618
     4   6 C        3.801    -0.063    21.712     6.634
     5   6 C        3.800    -0.059    21.630     6.622
     6   6 C        3.800    -0.059    21.631     6.622
     7   6 C        3.802    -0.059    21.630     6.621
     8   6 C        3.742     0.009    20.502     6.460
     9   7 N        2.804    -0.107    23.344     7.176
    10   6 C        2.825     0.277    22.315     7.740
    11   8 O        0.857    -0.403    21.748     6.252
    12   6 C        3.234    -0.055    28.459     8.657
    13   6 C        2.976     0.037    27.167     8.550
    14   6 C        3.004     0.006    27.863     8.659
    15   6 C        2.922    -0.037    28.919     8.819
    16   6 C        2.920    -0.041    29.012     8.833
    17   6 C        2.912     0.069    26.456     8.434
    18   7 N        2.802    -0.039    22.002     6.967
    19   6 C        3.072     0.046    26.889     8.502
    20   6 C        2.910    -0.050    29.250     8.868
    21   6 C        2.924    -0.033    28.821     8.804
    22   6 C        2.920    -0.040    28.985     8.829
    23   6 C        2.913    -0.032    28.804     8.801
    24   6 C        3.067    -0.015    28.325     8.727
    25   6 C        3.067    -0.015    28.328     8.727
    26   6 C        2.913    -0.032    28.805     8.801
    27   6 C        2.920    -0.039    28.980     8.828
    28   6 C        2.924    -0.032    28.809     8.802
    29   6 C        2.910    -0.050    29.243     8.867
    30   6 C        3.072     0.046    26.885     8.502
    31   6 C        2.919    -0.042    29.053     8.839
    32   6 C        2.926    -0.031    28.772     8.797
    33  16 S        2.411    -0.024   142.055    20.060
    34   6 C        2.976     0.037    27.166     8.550
    35   6 C        3.004     0.006    27.862     8.659
    36   6 C        2.922    -0.037    28.917     8.818
    37   6 C        2.920    -0.041    29.007     8.832
    38   6 C        2.912     0.069    26.455     8.434
    39   7 N        2.802    -0.040    22.003     6.967
    40   6 C        3.072     0.046    26.888     8.502
    41   6 C        2.910    -0.050    29.250     8.868
    42   6 C        2.924    -0.033    28.822     8.804
    43   6 C        2.920    -0.040    28.986     8.829
    44   6 C        2.913    -0.032    28.804     8.801
    45   6 C        3.067    -0.015    28.325     8.727
    46   6 C        3.067    -0.016    28.328     8.727
    47   6 C        2.913    -0.032    28.805     8.801
    48   6 C        2.920    -0.039    28.980     8.828
    49   6 C        2.924    -0.032    28.808     8.802
    50   6 C        2.910    -0.050    29.242     8.867
    51   6 C        3.072     0.046    26.885     8.502
    52   6 C        2.919    -0.042    29.053     8.839
    53   6 C        2.927    -0.031    28.772     8.797
    54   6 C        3.234    -0.055    28.454     8.657
    55   6 C        2.823     0.277    22.322     7.741
    56   8 O        0.857    -0.400    21.684     6.243
    57   1 H        0.925     0.031     2.566     2.505
    58   1 H        0.925     0.035     2.514     2.480
    59   1 H        0.925     0.030     2.593     2.518
    60   1 H        0.924     0.033     2.543     2.494
    61   1 H        0.924     0.025     2.666     2.553
    62   1 H        0.924     0.027     2.630     2.536
    63   1 H        0.924     0.028     2.612     2.527
    64   1 H        0.924     0.050     2.322     2.383
    65   1 H        0.924     0.031     2.574     2.509
    66   1 H        0.924     0.027     2.633     2.537
    67   1 H        0.924     0.030     2.581     2.513
    68   1 H        0.924     0.037     2.491     2.468
    69   1 H        0.924     0.031     2.565     2.505
    70   1 H        0.924     0.051     2.302     2.373
    71   1 H        0.924     0.035     2.516     2.481
    72   1 H        0.924     0.065     2.136     2.286
    73   1 H        0.924     0.064     2.150     2.293
    74   1 H        0.926     0.084     1.936     2.176
    75   1 H        0.926     0.051     2.311     2.377
    76   1 H        0.926     0.029     2.607     2.525
    77   1 H        0.926     0.031     2.578     2.511
    78   1 H        0.926     0.030     2.589     2.516
    79   1 H        0.926     0.033     2.549     2.497
    80   1 H        0.926     0.032     2.551     2.498
    81   1 H        0.926     0.030     2.585     2.514
    82   1 H        0.926     0.032     2.561     2.502
    83   1 H        0.926     0.031     2.570     2.507
    84   1 H        0.926     0.046     2.375     2.410
    85   1 H        0.926     0.048     2.344     2.394
    86   1 H        0.926     0.085     1.932     2.174
    87   1 H        0.926     0.051     2.312     2.378
    88   1 H        0.926     0.028     2.608     2.525
    89   1 H        0.926     0.031     2.579     2.511
    90   1 H        0.926     0.030     2.589     2.516
    91   1 H        0.926     0.033     2.549     2.497
    92   1 H        0.926     0.032     2.551     2.498
    93   1 H        0.926     0.030     2.585     2.514
    94   1 H        0.926     0.032     2.562     2.503
    95   1 H        0.926     0.031     2.572     2.508
    96   1 H        0.926     0.046     2.374     2.410
    97   1 H        0.926     0.048     2.343     2.394

molecular dipole:
                 x           y           z       tot (Debye)
 q only:        0.028      -0.895      -0.176
   full:        0.039      -0.708      -0.134       1.834

 projected vibrational frequencies (cm⁻¹)
eigval :       -0.00    -0.00    -0.00     0.00     0.00     0.00
eigval :        6.31     6.91     7.77     8.51    13.12    18.49
eigval :       24.08    25.67    36.73    39.47    50.66    57.36
eigval :       59.62    62.81    77.32    78.69    81.65    99.52
eigval :      102.62   108.13   114.65   115.38   125.32   133.07
eigval :      143.08   145.07   146.56   152.13   161.06   189.25
eigval :      210.36   214.81   221.73   234.64   251.10   257.66
eigval :      261.61   268.82   272.15   272.18   277.58   284.75
eigval :      294.35   307.53   312.55   353.99   365.58   367.49
eigval :      372.12   377.79   378.92   390.54   390.84   394.35
eigval :      400.29   402.92   420.45   424.78   426.26   434.47
eigval :      439.70   441.72   447.09   466.76   500.22   505.86
eigval :      517.93   518.41   534.22   535.01   540.91   540.92
eigval :      551.50   558.85   560.73   582.33   582.63   593.89
eigval :      594.76   606.01   610.62   616.83   618.49   637.39
eigval :      674.25   674.31   687.86   689.69   694.37   697.23
eigval :      707.58   708.02   710.22   720.70   721.82   746.54
eigval :      755.35   757.30   770.27   770.28   771.76   781.15
eigval :      781.35   781.53   804.09   823.29   824.76   829.41
eigval :      845.87   864.83   864.99   874.13   874.22   878.72
eigval :      878.74   888.72   897.40   897.74   902.64   902.77
eigval :      903.12   904.13   904.45   907.39   917.32   919.33
eigval :      919.44   922.16   922.24   928.51   928.71   937.99
eigval :      938.24   944.45   955.38   961.85   981.89   993.40
eigval :     1009.48  1012.09  1012.18  1019.19  1031.07  1039.43
eigval :     1063.43  1070.87  1071.52  1071.59  1073.67  1075.07
eigval :     1075.32  1089.60  1118.29  1118.42  1127.51  1134.10
eigval :     1146.47  1146.62  1154.47  1154.57  1158.00  1160.91
eigval :     1177.06  1177.13  1181.05  1181.07  1184.94  1185.31
eigval :     1200.36  1207.30  1210.49  1210.65  1235.77  1235.79
eigval :     1243.87  1245.15  1245.72  1262.81  1263.33  1268.96
eigval :     1270.21  1270.58  1281.82  1290.55  1296.72  1299.15
eigval :     1299.76  1300.41  1301.21  1305.34  1312.59  1319.35
eigval :     1322.48  1327.27  1346.01  1354.70  1356.21  1357.21
eigval :     1357.69  1357.91  1360.60  1360.62  1367.11  1369.25
eigval :     1369.96  1379.87  1410.35  1411.07  1415.71  1426.56
eigval :     1427.33  1427.35  1428.27  1435.23  1474.62  1474.67
eigval :     1479.07  1483.41  1485.15  1487.36  1487.45  1491.47
eigval :     1493.94  1497.32  1501.64  1505.97  1511.31  1512.67
eigval :     1527.94  1541.83  1547.34  1549.51  1575.78  1575.83
eigval :     1588.20  1588.52  1590.10  1590.29  1598.43  1598.45
eigval :     1613.69  1613.82  1736.91  1749.18  2956.29  2958.21
eigval :     2961.67  2963.94  2968.49  2975.62  2979.33  2981.78
eigval :     2983.44  2986.36  2988.20  2991.59  3003.38  3007.14
eigval :     3027.59  3032.04  3047.23  3077.23  3077.80  3078.04
eigval :     3078.53  3078.87  3078.93  3083.33  3083.38  3084.75
eigval :     3084.86  3090.53  3090.60  3092.47  3092.59  3096.89
eigval :     3097.00  3098.04  3098.32  3098.45  3098.52  3099.25
eigval :     3099.42  3134.36  3135.06

   temp. (K)  partition function   enthalpy   heat capacity  entropy
                                   cal/mol     cal/K/mol   cal/K/mol   J/K/mol
 298.15  VIB  0.286E+25            28317.868    172.358    181.189
         ROT  0.231E+09              888.752      2.981     41.250
         INT  0.660E+33            29206.620    175.339    222.439
         TR   0.198E+29             1481.254      4.968     45.695
         TOT                       30687.8738   180.3067   268.1343  1121.8741

       T/K    H(0)-H(T)+PV         H(T)/Eh          T*S/Eh         G(T)/Eh
   ------------------------------------------------------------------------
    298.15    0.489042E-01    0.814502E+00    0.127399E+00    0.687103E+00
   ------------------------------------------------------------------------

         :::::::::::::::::::::::::::::::::::::::::::::::::::::
         ::                  THERMODYNAMIC                  ::
         :::::::::::::::::::::::::::::::::::::::::::::::::::::
         :: total free energy        -147.580145052058 Eh   ::
         ::.................................................::
         :: total energy             -148.267248118681 Eh   ::
         :: zero point energy           0.765598107692 Eh   ::
         :: G(RRHO) w/o ZPVE           -0.078495041070 Eh   ::
         :: G(RRHO) contrib.            0.687103066623 Eh   ::
         :::::::::::::::::::::::::::::::::::::::::::::::::::::

           -------------------------------------------------
          | TOTAL ENERGY             -148.267248118681 Eh   |
          | TOTAL ENTHALPY           -147.452745771156 Eh   |
          | TOTAL FREE ENERGY        -147.580145052058 Eh   |
          | GRADIENT NORM               0.000035117248 Eh/α |
          | HOMO-LUMO GAP               1.688167602399 eV   |
           -------------------------------------------------

 * finished run on 2025/08/29 at 21:40:13.386
