   * xtb version 6.7.1 (edcfbbe) compiled by 'albert@albert-system' on 2024-07-22

   ID    Z sym.   atoms
    1    6 C      1-8, 10, 12-17, 19-32, 34-38, 40-55
    2    7 N      9, 18, 39
    3    8 O      11, 56
    4   16 S      33
    5    1 H      57-97

          program call               : xtb data2507/gas/p-PCzTPD/p-PCzTPD_gas_S0_finalOpt.xtbopt.xyz --gfn 2 --spinpol --tblite --uhf 2 --ohess vtight --parallel 40 --molden --ceasefiles --namespace data2507/gas/p-PCzTPD/p-PCzTPD_gas_T1_preOpt
 * total energy  :  -148.1999357 Eh     change       -0.7834473E-08 Eh
 * total energy  :  -148.2042437 Eh     change       -0.4308088E-02 Eh
 * total energy  :  -148.2054617 Eh     change       -0.1217915E-02 Eh
 * total energy  :  -148.2055243 Eh     change       -0.6262819E-04 Eh
 * total energy  :  -148.2055510 Eh     change       -0.2668755E-04 Eh
 * total energy  :  -148.2055619 Eh     change       -0.1093442E-04 Eh
 * total energy  :  -148.2055693 Eh     change       -0.7431627E-05 Eh
 * total energy  :  -148.2055782 Eh     change       -0.8822602E-05 Eh
 * total energy  :  -148.2055590 Eh     change        0.1918835E-04 Eh
 * total energy  :  -148.2055788 Eh     change       -0.1982342E-04 Eh
 * total energy  :  -148.2056332 Eh     change       -0.1865105E-06 Eh
 * total energy  :  -148.2056334 Eh     change       -0.1908099E-06 Eh
 * total energy  :  -148.2056337 Eh     change       -0.2673776E-06 Eh
 * total energy  :  -148.2056340 Eh     change       -0.2917150E-06 Eh
 * total energy  :  -148.2056339 Eh     change        0.4641365E-07 Eh
 * total energy  :  -148.2056342 Eh     change       -0.2502145E-06 Eh
 * total energy  :  -148.2056340 Eh     change        0.1236815E-06 Eh
 * total energy  :  -148.2056344 Eh     change       -0.3738448E-06 Eh
 * total energy  :  -148.2056345 Eh     change       -0.8111491E-07 Eh
   *** GEOMETRY OPTIMIZATION CONVERGED AFTER 56 ITERATIONS ***

 final structure:
================
97
 xtb: 6.7.1 (edcfbbe)
C            3.13272647967254       -0.82689791106734        2.84305117515322
C            3.10924199907402       -2.17376792908342        2.13158766664476
C            1.69712679983098       -2.74592444904520        2.03153296551228
C            1.67119572718205       -4.05190288044254        1.24027020025657
C            0.25033006567259       -4.57774430859629        1.04528122347369
C            0.16673890828793       -5.83459963791846        0.17294763562430
C            0.70792304207700       -5.70920282200904       -1.25435153516015
C           -0.14135030492946       -4.85952292626095       -2.20305640722841
N           -0.16414996821212       -3.45923103784765       -1.84932219933137
C           -1.33244154615436       -2.79304621021660       -1.49217857707417
O           -2.42923542918995       -3.31550860878522       -1.50794894609121
C           -0.90716097666047       -1.44209938242576       -1.12385379440445
C           -1.52383425324750       -0.26591692440222       -0.63622648889670
C           -2.86617857759042        0.07448468166595       -0.40716256513699
C           -3.93383045957803       -0.81187004252936       -0.70258087283662
C           -5.23260044916666       -0.44897910304180       -0.47429891113906
C           -5.54777974514132        0.81567078339630        0.04729690682190
N           -6.87131562704161        1.18068232208286        0.26948438404369
C           -7.45027867503259        2.38439425697652       -0.08785218994474
C           -6.90728959082008        3.45466735157505       -0.78569673471150
C           -7.72541679182288        4.53892118659179       -1.04368876070468
C           -9.05566578104445        4.56014919129062       -0.63314996960600
C           -9.61181927715223        3.48283050280334        0.03176014457377
C           -8.80963180138252        2.38491208722991        0.30293622371669
C           -9.05428973359762        1.11443995197964        0.93159488848923
C          -10.17057994366492        0.54669438650770        1.52675068746614
C          -10.05567115080380       -0.71652347106946        2.07724950090810
C           -8.84219031173216       -1.39891236662663        2.05651608629801
C           -7.71571959088820       -0.85212244539363        1.47032377556251
C           -7.83357893691347        0.40165877298236        0.88594309064635
C           -4.50461801180613        1.70645458139621        0.34292808850878
C           -3.20369681126772        1.34578209296290        0.12773240648237
S           -0.25049964894289        0.92540053537743       -0.31108528043168
C            1.05643162835105       -0.15103569624512       -0.83533746037405
C            2.39290557223313        0.26264610426049       -0.69224732272652
C            3.48278851618777       -0.55904825126239       -1.07323153890061
C            4.77256401540824       -0.16959271827230       -0.83279013914606
C            5.05095059989726        1.06397018862845       -0.22640008279655
N            6.36399497213883        1.43317200794019        0.04676278738366
C            7.31082583764196        0.63146321016223        0.65735251791297
C            7.18019596956007       -0.64868273385716        1.17816538628341
C            8.28908226824938       -1.21562576741808        1.77840623807218
C            9.49648618598438       -0.52842276794856        1.87241041091457
C            9.62261841409719        0.75905014935030        1.38411312341917
C            8.52375918321941        1.34847465274485        0.77734483892277
C            8.28992158908964        2.64594538944705        0.20153905299439
C            9.09130411611909        3.76077924025805        0.00765359968268
C            8.54690173870681        4.86532044654396       -0.62130686251159
C            7.22908562252671        4.85693522999001       -1.07083031045576
C            6.41182142488710        3.75659586423171       -0.89015677561306
C            6.94333333398587        2.65651884146522       -0.23129889468862
C            3.98672805057558        1.91308750758761        0.10856442886567
C            2.69508111484536        1.52205118922307       -0.11406956382498
C            0.48112760309548       -1.36880805296060       -1.25707817052365
C            0.95936411171855       -2.65381932161207       -1.78354864259713
O            2.06794500239338       -3.01027426045783       -2.13177552100329
H            4.14730076905196       -0.43692881657638        2.89744473210900
H            2.74666967322630       -0.92245484316321        3.85569068691335
H            2.51897011762583       -0.10488055998788        2.30845609867352
H            3.51214956081916       -2.05429756823099        1.12287270395151
H            3.74869141921915       -2.88077947967190        2.66577414045944
H            1.05316559043084       -2.01388480697331        1.53682174585723
H            1.29551084440988       -2.91184269893157        3.03424347597709
H            2.26808411208090       -4.80625258278331        1.75906439886468
H            2.14028018371877       -3.87109328183096        0.27329325416115
H           -0.37516624646647       -3.78933841650140        0.62515631375898
H           -0.17029862914295       -4.82191663445043        2.02508648309482
H            0.72622297581724       -6.63156381882509        0.67039589197826
H           -0.87935416201705       -6.14776187071205        0.12309611430587
H            1.72322224452799       -5.31421327295474       -1.24295407653255
H            0.75308204829958       -6.71159850919991       -1.68672979030320
H           -1.18292974304628       -5.19179980357385       -2.19388286400057
H            0.25928540406045       -4.95608296216576       -3.21815538082821
H           -3.71517177033912       -1.78084245723214       -1.11923796104869
H           -6.03328382836185       -1.12404886969230       -0.73639997169266
H           -5.88560136708180        3.43893371282298       -1.13223592331677
H           -7.32449003229567        5.38533849152277       -1.58093704015283
H           -9.66199010306488        5.42647977162029       -0.85088699468738
H          -10.64933574083385        3.48980392431449        0.32922459974318
H          -11.10545128497979        1.08496006966431        1.56268516526713
H          -10.91376435919055       -1.17842149056270        2.54189241796080
H           -8.77689091024543       -2.37522747265334        2.51276470598536
H           -6.77533619909155       -1.38065736776022        1.48222137419966
H           -4.73713892777808        2.66544888891914        0.78150911855523
H           -2.40843522926797        2.03053488857550        0.38224124565879
H            3.28935209889311       -1.49853753704430       -1.56405604421052
H            5.59290933887675       -0.80100843907384       -1.13992440842410
H            6.24350390320835       -1.18214146348070        1.13156388400074
H            8.21447795900438       -2.21193648719121        2.18754062590830
H           10.34092870891025       -1.00665936524645        2.34548540876527
H           10.55234987605772        1.29935410545771        1.47721280304456
H           10.11939813542866        3.76014784964660        0.33630982787282
H            9.15310252195574        5.74459638788785       -0.77931173161688
H            6.83784434905107        5.72668770792987       -1.57705881221431
H            5.39981614188822        3.75150330076746       -1.26456560307485
H            4.19397252429021        2.85756929549589        0.58905749628554
H            1.88146895142043        2.16869309336701        0.17940765638187

 projected vibrational frequencies (cm⁻¹)
eigval :       -0.00    -0.00     0.00     0.00     0.00     0.00
eigval :        7.26    10.88    14.17    15.84    19.67    20.21
eigval :       31.62    34.14    41.35    51.93    61.57    64.52
eigval :       67.03    82.06    88.42    94.70   100.12   103.25
eigval :      107.60   109.10   115.25   117.40   122.49   129.39
eigval :      139.24   144.34   147.39   156.48   160.44   181.08
eigval :      196.86   220.23   229.15   234.51   239.25   246.79
eigval :      247.72   256.71   261.92   271.50   271.70   272.58
eigval :      288.60   313.44   324.02   344.19   348.32   365.69
eigval :      369.73   377.23   379.37   380.43   388.13   390.42
eigval :      393.52   402.22   405.91   417.79   422.53   426.27
eigval :      430.11   436.22   439.67   441.02   474.13   484.19
eigval :      503.51   512.92   516.12   517.02   530.12   537.65
eigval :      538.11   540.59   541.48   547.00   577.71   578.30
eigval :      586.00   589.20   590.41   611.16   613.48   633.35
eigval :      664.63   670.43   672.60   674.59   674.65   676.99
eigval :      694.28   701.37   707.68   710.19   716.66   743.13
eigval :      754.26   756.14   765.09   769.89   770.07   771.07
eigval :      779.62   780.33   781.67   788.61   810.84   812.66
eigval :      833.90   844.63   849.62   852.81   871.68   871.70
eigval :      873.77   875.24   886.74   895.91   896.22   899.01
eigval :      901.06   902.22   902.49   904.13   904.91   913.16
eigval :      916.59   917.79   919.99   921.33   925.49   926.28
eigval :      927.18   932.88   935.28   941.22   946.18   973.48
eigval :      991.16   995.68  1005.59  1011.42  1011.53  1013.54
eigval :     1038.82  1053.00  1070.12  1070.46  1073.32  1073.95
eigval :     1083.19  1097.46  1111.31  1115.25  1116.27  1127.46
eigval :     1138.23  1143.10  1143.98  1148.53  1149.65  1150.03
eigval :     1162.75  1174.45  1176.78  1178.58  1178.80  1180.94
eigval :     1191.06  1206.99  1208.75  1212.47  1231.41  1231.90
eigval :     1234.82  1240.29  1242.00  1244.06  1261.41  1262.92
eigval :     1263.28  1265.11  1278.33  1283.69  1286.37  1287.80
eigval :     1292.67  1293.96  1294.64  1300.88  1301.21  1323.87
eigval :     1324.03  1325.43  1338.82  1341.57  1349.89  1350.41
eigval :     1350.50  1353.95  1356.46  1361.15  1363.09  1363.77
eigval :     1367.99  1378.41  1393.28  1415.93  1416.63  1417.26
eigval :     1417.75  1421.30  1424.90  1425.34  1438.95  1450.37
eigval :     1459.46  1462.46  1463.68  1480.60  1481.21  1483.26
eigval :     1483.54  1484.57  1485.67  1492.98  1496.13  1497.68
eigval :     1500.98  1504.27  1506.01  1509.56  1552.47  1567.30
eigval :     1570.87  1571.08  1582.95  1583.95  1585.07  1585.81
eigval :     1603.36  1604.81  1685.12  1706.98  2934.35  2952.10
eigval :     2953.38  2957.35  2963.54  2969.02  2970.63  2971.47
eigval :     2973.31  2978.03  2978.94  3004.92  3013.45  3022.66
eigval :     3023.83  3028.70  3033.77  3080.97  3081.40  3081.75
eigval :     3082.28  3082.47  3082.64  3086.96  3087.43  3088.49
eigval :     3089.08  3089.49  3091.18  3093.13  3093.72  3094.95
eigval :     3095.43  3096.66  3097.10  3100.19  3100.69  3102.24
eigval :     3102.87  3125.80  3129.79

   temp. (K)  partition function   enthalpy   heat capacity  entropy
                                   cal/mol     cal/K/mol   cal/K/mol   J/K/mol
 298.15  VIB  0.680E+23            28498.775    175.946    179.333
         ROT  0.179E+09              888.752      2.981     40.740
         INT  0.121E+32            29387.528    178.927    220.073
         TR   0.198E+29             1481.254      4.968     45.695
         TOT                       30868.7818   183.8952   265.7685  1111.9753

       T/K    H(0)-H(T)+PV         H(T)/Eh          T*S/Eh         G(T)/Eh
   ------------------------------------------------------------------------
    298.15    0.491925E-01    0.810228E+00    0.126275E+00    0.683953E+00
   ------------------------------------------------------------------------

         :::::::::::::::::::::::::::::::::::::::::::::::::::::
         ::                  THERMODYNAMIC                  ::
         :::::::::::::::::::::::::::::::::::::::::::::::::::::
         :: total free energy        -147.521681857880 Eh   ::
         ::.................................................::
         :: total energy             -148.205634539922 Eh   ::
         :: zero point energy           0.761035327484 Eh   ::
         :: G(RRHO) w/o ZPVE           -0.077082645442 Eh   ::
         :: G(RRHO) contrib.            0.683952682042 Eh   ::
         :::::::::::::::::::::::::::::::::::::::::::::::::::::

           -------------------------------------------------
          | TOTAL ENERGY             -148.205634539922 Eh   |
          | TOTAL ENTHALPY           -147.395406677448 Eh   |
          | TOTAL FREE ENERGY        -147.521681857880 Eh   |
          | GRADIENT NORM               0.000193958648 Eh/α |
           -------------------------------------------------

 * finished run on 2025/08/29 at 22:20:32.522
