   * xtb version 6.7.1 (edcfbbe) compiled by 'albert@albert-system' on 2024-07-22

   ID    Z sym.   atoms
    1    6 C      1-8, 10, 12-17, 19-32, 34-38, 40-55
    2    7 N      9, 18, 39
    3    8 O      11, 56
    4   16 S      33
    5    1 H      57-97

          program call               : xtb data2507/gas/p-PCzTPD/p-PCzTPD_gas_T1_crest.xyz --gfn 2 --spinpol --tblite --uhf 2 --ohess vtight --parallel 40 --molden --ceasefiles --namespace data2507/gas/p-PCzTPD/p-PCzTPD_gas_T1_finalOpt
 * total energy  :  -148.2056034 Eh     change       -0.3884284E-07 Eh
 * total energy  :  -148.2056159 Eh     change       -0.1248115E-04 Eh
 * total energy  :  -148.2056215 Eh     change       -0.5537497E-05 Eh
 * total energy  :  -148.2056237 Eh     change       -0.2282872E-05 Eh
 * total energy  :  -148.2056266 Eh     change       -0.2839330E-05 Eh
 * total energy  :  -148.2056280 Eh     change       -0.1427095E-05 Eh
 * total energy  :  -148.2056293 Eh     change       -0.1253931E-05 Eh
 * total energy  :  -148.2056303 Eh     change       -0.1015744E-05 Eh
 * total energy  :  -148.2056312 Eh     change       -0.9042790E-06 Eh
 * total energy  :  -148.2056321 Eh     change       -0.8645533E-06 Eh
 * total energy  :  -148.2056328 Eh     change       -0.7013892E-06 Eh
 * total energy  :  -148.2056332 Eh     change       -0.4337923E-06 Eh
 * total energy  :  -148.2056335 Eh     change       -0.3432940E-06 Eh
 * total energy  :  -148.2056339 Eh     change       -0.3769002E-06 Eh
 * total energy  :  -148.2056339 Eh     change       -0.3248493E-07 Eh
   *** GEOMETRY OPTIMIZATION CONVERGED AFTER 15 ITERATIONS ***

 final structure:
================
97
 xtb: 6.7.1 (edcfbbe)
C            3.15054867741185       -0.85694170400233        2.83126070771081
C            3.13160175381655       -2.20295524834815        2.11802091285700
C            1.72096448626487       -2.77816585743773        2.01471347055979
C            1.69875408053241       -4.08245461012724        1.22057491023236
C            0.27938896319958       -4.61265643081565        1.02619674110008
C            0.19850823476341       -5.86530989571967        0.14765037402825
C            0.73269710639816       -5.72919332082117       -1.28125449712331
C           -0.12473312688239       -4.87785679190564       -2.22103617239648
N           -0.15131358249240       -3.47932780010976       -1.86037053615215
C           -1.32143734918192       -2.81796593106104       -1.49999254574844
O           -2.41649951975707       -3.34408615749265       -1.51503873423188
C           -0.90039880877741       -1.46638621650809       -1.12911625967919
C           -1.52097404856631       -0.29172755088099       -0.64257785420711
C           -2.86425583375229        0.04664601051324       -0.41638075219581
C           -3.92985674436654       -0.84520166535682       -0.70281436336089
C           -5.22957241999436       -0.48276014757268       -0.47880157099583
C           -5.54776984300528        0.78715689031155        0.02792896697667
N           -6.87221483632638        1.15355660744381        0.24295726158848
C           -7.45163827586513        2.35132196662691       -0.13308486100873
C           -6.90832347159751        3.41144433630853       -0.84599288146849
C           -7.72710690979627        4.49071139936478       -1.12214092779695
C           -9.05814818863178        4.51679365544574       -0.71440691561003
C           -9.61437225095476        3.44933849452772       -0.03383337252316
C           -8.81160720214748        2.35646153847325        0.25549307823026
C           -9.05606990946392        1.09532581934556        0.90277595902126
C          -10.17256617207890        0.53551622879685        1.50501471910550
C          -10.05720221552108       -0.71928777753745        2.07435726067770
C           -8.84322037580878       -1.40106567785863        2.06493036921572
C           -7.71653714391010       -0.86213948393094        1.47191275893981
C           -7.83472138527101        0.38291312731618        0.86927347244304
C           -4.50666388176269        1.68298312687632        0.31548989307736
C           -3.20485865643924        1.32234484229186        0.10620750623279
S           -0.25117487991037        0.90365636477802       -0.31794852327550
C            1.05931705811892       -0.16925513431204       -0.84077416248838
C            2.39425433502352        0.24922143001082       -0.69710333714317
C            3.48797811267941       -0.56786515203549       -1.07701019440924
C            4.77606346857573       -0.17143342442404       -0.83830627762160
C            5.04869558542909        1.06488050617756       -0.23497836670344
N            6.35981826112403        1.44402353446602        0.03390397408853
C            7.31411418859074        0.65253524443888        0.64610876080993
C            7.19537299095978       -0.62722143599877        1.17068263292059
C            8.30952582618151       -1.18213299871494        1.77244680777046
C            9.51065954554110       -0.48370165148082        1.86405046985213
C            9.62502993847928        0.80324821028730        1.37150955687164
C            8.52066570768996        1.38074976485846        0.76331140540379
C            8.27500388476837        2.67438365889021        0.18383380396087
C            9.06622765253678        3.79585571847610       -0.01349357539370
C            8.51155132617864        4.89376963520787       -0.64508652895984
C            7.19363559213615        4.87225606203394       -1.09387829168120
C            6.38640792542752        3.76510434917680       -0.90974232591890
C            6.92812844693392        2.67167623158818       -0.24811842001752
C            3.98031984744223        1.90841886415578        0.10091192395706
C            2.69057947423992        1.51035139916631       -0.11964184576557
C            0.48757540907736       -1.38846344669139       -1.26274173999545
C            0.96967242811341       -2.67041724814824       -1.79317309363050
O            2.07919434949623       -3.02161596780935       -2.14350931253442
H            4.16408884528791       -0.46468756496423        2.88844125867832
H            2.76249430019956       -0.95467371018588        3.84293371592333
H            2.53631802958637       -0.13561140252495        2.29626673108670
H            3.53613450016302       -2.08125653129405        1.11023306596964
H            3.77166840350587       -2.90917281467035        2.65252150124099
H            1.07604194066496       -2.04648316667691        1.52071735676020
H            1.31837390636802       -2.94718102024894        3.01652300712998
H            2.29880006422019       -4.83590696921862        1.73702505697186
H            2.16611524500934       -3.89795446960403        0.25346175477287
H           -0.34999874126233       -3.82455927955109        0.61136390030140
H           -0.13805284553517       -4.86327635522658        2.00573181114353
H            0.76431510328315       -6.66200561598728        0.63831896197173
H           -0.84614772515585       -6.18368473674973        0.10062726941205
H            1.74620799274355       -5.32961141933918       -1.27216179805509
H            0.78046457316202       -6.72881852764392       -1.71973394067534
H           -1.16496459035147       -5.21426668480695       -2.20837870837505
H            0.27101429039282       -4.96778089978362       -3.23869761673127
H           -3.70875008989936       -1.81790793591446       -1.10947807291666
H           -6.02871964075045       -1.16260538319729       -0.73321913874174
H           -5.88586616075609        3.39147045122606       -1.19006627352101
H           -7.32612716057626        5.32918399051208       -1.67166651092851
H           -9.66499580105344        5.37896597604021       -0.94671315389645
H          -10.65240173841753        3.45987336068554        0.26173212704818
H          -11.10793773503395        1.07344173970245        1.53196974537812
H          -10.91544033604040       -1.17489516589414        2.54490721768593
H           -8.77778779152463       -2.37052343442823        2.53555265074789
H           -6.77571620540240       -1.38966094063315        1.49218597021852
H           -4.74180154258735        2.64636437721391        0.74296189504662
H           -2.41123768386916        2.01123252501112        0.35455586322166
H            3.29875387337546       -1.50896171130001       -1.56646943180308
H            5.59934094331023       -0.79925825555789       -1.14502080616677
H            6.26359720579849       -1.16937852341450        1.12579558697001
H            8.24411587566450       -2.17774837171315        2.18483568589096
H           10.35948450972683       -0.95268698201683        2.33854160709448
H           10.54983581876362        1.35230112325893        1.46248177462053
H           10.09445078575139        3.80538612725081        0.31462034971527
H            9.10970154877668        5.77805723310712       -0.80575888154163
H            6.79428312982029        5.73705358112951       -1.60225954844375
H            5.37427076189993        3.74992247521936       -1.28353805096207
H            4.18321406515596        2.85445513445734        0.58021218471000
H            1.87396092821700        2.15285648527057        0.17453387605920

 projected vibrational frequencies (cm⁻¹)
eigval :       -0.00    -0.00    -0.00     0.00     0.00     0.00
eigval :        7.56    11.22    14.42    16.35    19.75    20.39
eigval :       32.08    34.21    41.54    51.92    61.34    64.53
eigval :       67.16    82.29    88.63    95.36   100.17   103.32
eigval :      107.60   109.19   115.53   117.13   122.86   129.39
eigval :      139.38   144.53   147.54   156.64   158.84   180.90
eigval :      196.58   220.25   229.17   234.29   238.96   246.77
eigval :      247.83   256.84   261.84   271.66   271.95   272.84
eigval :      288.43   313.41   324.14   344.29   348.52   365.64
eigval :      369.66   377.34   378.80   380.56   387.89   390.24
eigval :      393.65   402.05   406.31   418.04   422.47   427.73
eigval :      430.64   436.21   439.56   440.85   474.09   484.14
eigval :      503.50   512.86   516.17   517.04   529.99   537.75
eigval :      538.20   540.97   541.58   547.27   577.76   578.41
eigval :      585.98   589.22   590.19   611.07   613.50   633.37
eigval :      663.79   670.38   672.69   674.58   674.67   676.76
eigval :      694.40   701.38   707.45   710.03   716.43   743.08
eigval :      754.33   756.09   765.56   770.08   770.29   771.30
eigval :      779.78   780.10   782.11   788.63   810.63   812.84
eigval :      834.40   844.83   849.82   852.82   871.91   871.99
eigval :      873.95   875.40   886.90   895.92   896.25   898.92
eigval :      901.23   902.53   902.74   904.36   905.11   913.43
eigval :      916.83   917.46   920.30   921.42   925.66   926.46
eigval :      927.17   933.28   935.51   941.34   946.23   973.61
eigval :      991.50   995.56  1005.65  1011.31  1011.44  1013.48
eigval :     1038.73  1053.30  1069.96  1070.27  1073.10  1073.67
eigval :     1083.45  1097.74  1111.91  1115.34  1116.80  1127.81
eigval :     1138.62  1143.29  1144.13  1148.69  1149.81  1150.16
eigval :     1162.78  1174.94  1177.42  1179.19  1179.38  1181.18
eigval :     1191.40  1206.88  1209.28  1212.87  1231.58  1232.03
eigval :     1235.51  1240.50  1242.71  1245.08  1262.27  1262.71
eigval :     1263.33  1265.36  1279.10  1284.56  1286.72  1288.18
eigval :     1293.21  1294.78  1295.10  1300.59  1301.51  1323.87
eigval :     1324.92  1325.42  1338.86  1341.77  1349.89  1350.53
eigval :     1351.16  1354.49  1356.79  1361.02  1363.21  1364.57
eigval :     1369.17  1379.27  1393.49  1416.15  1417.63  1417.72
eigval :     1418.07  1421.82  1424.74  1425.35  1440.06  1450.45
eigval :     1459.11  1462.64  1463.84  1481.12  1481.60  1483.62
eigval :     1483.78  1484.61  1486.80  1494.31  1496.65  1498.85
eigval :     1502.15  1505.23  1507.48  1510.56  1552.50  1567.49
eigval :     1570.86  1571.07  1583.06  1583.97  1585.07  1585.83
eigval :     1604.02  1605.02  1685.21  1706.95  2934.60  2952.40
eigval :     2953.65  2957.84  2964.17  2969.22  2971.66  2972.23
eigval :     2973.72  2979.11  2979.44  3006.01  3014.48  3023.63
eigval :     3024.42  3029.33  3035.44  3081.19  3081.69  3081.97
eigval :     3082.38  3082.62  3082.71  3087.26  3087.48  3088.57
eigval :     3089.03  3089.56  3091.22  3092.96  3093.78  3095.18
eigval :     3095.45  3096.77  3097.14  3100.36  3100.79  3101.98
eigval :     3102.68  3125.56  3129.25

   temp. (K)  partition function   enthalpy   heat capacity  entropy
                                   cal/mol     cal/K/mol   cal/K/mol   J/K/mol
 298.15  VIB  0.581E+23            28492.176    175.938    179.176
         ROT  0.179E+09              888.752      2.981     40.744
         INT  0.104E+32            29380.929    178.919    219.920
         TR   0.198E+29             1481.254      4.968     45.695
         TOT                       30862.1827   183.8867   265.6152  1111.3339

       T/K    H(0)-H(T)+PV         H(T)/Eh          T*S/Eh         G(T)/Eh
   ------------------------------------------------------------------------
    298.15    0.491820E-01    0.810350E+00    0.126202E+00    0.684148E+00
   ------------------------------------------------------------------------

         :::::::::::::::::::::::::::::::::::::::::::::::::::::
         ::                  THERMODYNAMIC                  ::
         :::::::::::::::::::::::::::::::::::::::::::::::::::::
         :: total free energy        -147.521486488382 Eh   ::
         ::.................................................::
         :: total energy             -148.205634036362 Eh   ::
         :: zero point energy           0.761167866056 Eh   ::
         :: G(RRHO) w/o ZPVE           -0.077020318076 Eh   ::
         :: G(RRHO) contrib.            0.684147547980 Eh   ::
         :::::::::::::::::::::::::::::::::::::::::::::::::::::

           -------------------------------------------------
          | TOTAL ENERGY             -148.205634036362 Eh   |
          | TOTAL ENTHALPY           -147.395284151682 Eh   |
          | TOTAL FREE ENERGY        -147.521486488382 Eh   |
          | GRADIENT NORM               0.000189307379 Eh/α |
           -------------------------------------------------

 * finished run on 2025/08/29 at 23:11:33.907
