   * xtb version 6.7.1 (edcfbbe) compiled by 'albert@albert-system' on 2024-07-22

   ID    Z sym.   atoms
    1    6 C      1-26
    2    1 H      27-42

          program call               : xtb data2507/toluene/phenylperylene/phenylperylene.xyz --gfn 2 --gbsa toluene --ohess vtight --parallel 40 --molden --ceasefiles --namespace data2507/toluene/phenylperylene/phenylperylene_toluene_S0_preOpt
      * Solvation model:               GBSA
        Solvent                        toluene
        Solvent mass                       9.2140E+01 g/mol
          :  Hamiltonian                  GFN2-xTB          :
 * total energy  :   -63.8617541 Eh     change       -0.1707136E-08 Eh
 * total energy  :   -63.8715927 Eh     change       -0.9838582E-02 Eh
 * total energy  :   -63.8742705 Eh     change       -0.2677845E-02 Eh
 * total energy  :   -63.8745198 Eh     change       -0.2493092E-03 Eh
 * total energy  :   -63.8746626 Eh     change       -0.1427829E-03 Eh
 * total energy  :   -63.8747323 Eh     change       -0.6965007E-04 Eh
 * total energy  :   -63.8748432 Eh     change       -0.1109334E-03 Eh
 * total energy  :   -63.8750032 Eh     change       -0.1599853E-03 Eh
 * total energy  :   -63.8752107 Eh     change       -0.2075192E-03 Eh
 * total energy  :   -63.8754493 Eh     change       -0.2386053E-03 Eh
 * total energy  :   -63.8764663 Eh     change       -0.3487560E-05 Eh
 * total energy  :   -63.8764700 Eh     change       -0.3751495E-05 Eh
 * total energy  :   -63.8764729 Eh     change       -0.2909707E-05 Eh
 * total energy  :   -63.8764741 Eh     change       -0.1160359E-05 Eh
 * total energy  :   -63.8764746 Eh     change       -0.4947591E-06 Eh
 * total energy  :   -63.8764749 Eh     change       -0.2790562E-06 Eh
 * total energy  :   -63.8764750 Eh     change       -0.1587974E-06 Eh
 * total energy  :   -63.8764751 Eh     change       -0.1235446E-06 Eh
 * total energy  :   -63.8764752 Eh     change       -0.9969728E-07 Eh
   *** GEOMETRY OPTIMIZATION CONVERGED AFTER 33 ITERATIONS ***

 final structure:
================
42
 xtb: 6.7.1 (edcfbbe)
C            4.95929373608250        0.78587714890773       -0.60209838917421
C            4.84843114071519       -0.04194377621777        0.50227060328550
C            3.65610466535344       -0.69239117170811        0.76681938016499
C            2.55165649331695       -0.50860046465587       -0.06106851557982
C            1.30072848960375       -1.25829393326285        0.16393387628936
C            1.42589221889125       -2.65882817655665        0.21513117270972
C            0.33131245756023       -3.46986458434178        0.29139102819856
C           -0.96458399134640       -2.92017185484471        0.22348309825321
C           -2.10575636846261       -3.74501136880760        0.21343506371295
C           -3.35422806006470       -3.19427561261337        0.11191850435460
C           -3.50287689037101       -1.81399644020346       -0.02584374519706
C           -2.41155783725743       -0.96249639266282       -0.03074510044329
C           -2.55339195933621        0.47546614582700       -0.22225385253200
C           -3.73637935558489        1.06115892589887       -0.63822081865206
C           -3.87306606258296        2.44792538613502       -0.71782394292221
C           -2.84387111782222        3.26724392709359       -0.34083559902550
C           -1.61325105921048        2.71963034036632        0.07393949378409
C           -0.55503526888074        3.54299519165801        0.50855112979362
C            0.60848967097767        2.98384886382528        0.96215238558772
C            0.79933299728254        1.60240606255538        0.90386322145270
C           -0.17396261187003        0.75962543726431        0.39633802649807
C            0.03638235463988       -0.67402303364540        0.22904342273088
C           -1.11216098329285       -1.51008911082389        0.15056468407207
C           -1.44339021806518        1.30971442851403        0.07251797401557
C            2.67659174688422        0.31748751842317       -1.17705644196374
C            3.87090816467806        0.95944683507889       -1.44292256970432
H            5.89115924741130        1.29140866665504       -0.80968588164371
H            5.69414353323659       -0.18401531156145        1.16000089992875
H            3.56943692016505       -1.33164453382268        1.63454919303617
H            2.41861061712318       -3.08539981637691        0.18674598594330
H            0.44216327886111       -4.54214115202685        0.36498880304118
H           -1.97518249824401       -4.81523490508258        0.28511564094465
H           -4.23291090150799       -3.82314691189578        0.11959801293038
H           -4.50117758867641       -1.41790981884444       -0.12459730218432
H           -4.58187506397333        0.44991217938269       -0.91200509907267
H           -4.81021721500541        2.86740978909527       -1.05502074895034
H           -2.95810463064901        4.34174677302222       -0.35329710535373
H           -0.69191390944548        4.61488760251846        0.50397985358322
H            1.40078897791340        3.60690042575627        1.35164364732021
H            1.72917390231924        1.19774378915131        1.26780770641415
H            1.82897464160181        0.45065627024346       -1.83424791801841
H            3.95532033703282        1.59598366258386       -2.31205877762668

          :  Hamiltonian                  GFN2-xTB          :
         :: gradient norm              0.000047917094 Eh/a0 ::
         :: HOMO-LUMO gap              1.834011374385 eV    ::
         :: SCC energy               -65.138366090397 Eh    ::
         :: -> dispersion             -0.058703594274 Eh    ::
         :: -> Gsolv                  -0.024588255214 Eh    ::
         :: repulsion energy           1.261890844695 Eh    ::

    * Orbital Energies and Occupations

         #    Occupation            Energy/Eh            Energy/eV
      -------------------------------------------------------------
         1        2.0000           -0.6545316             -17.8107
       ...           ...                  ...                  ...
        48        2.0000           -0.4369631             -11.8904
        49        2.0000           -0.4292761             -11.6812
        50        2.0000           -0.4236424             -11.5279
        51        2.0000           -0.4206664             -11.4469
        52        2.0000           -0.4121367             -11.2148
        53        2.0000           -0.4050153             -11.0210
        54        2.0000           -0.4042639             -11.0006
        55        2.0000           -0.4033941             -10.9769
        56        2.0000           -0.4008918             -10.9088
        57        2.0000           -0.3990841             -10.8596
        58        2.0000           -0.3970686             -10.8048
        59        2.0000           -0.3881644             -10.5625
        60        2.0000           -0.3538069              -9.6276 (HOMO)
        61                         -0.2864082              -7.7936 (LUMO)
        62                         -0.2368337              -6.4446
        63                         -0.2274740              -6.1899
        64                         -0.2263070              -6.1581
        65                         -0.2237196              -6.0877
        66                         -0.2213312              -6.0227
        67                         -0.2113063              -5.7499
        68                         -0.1580802              -4.3016
        69                         -0.1552808              -4.2254
        70                         -0.1202176              -3.2713
        71                         -0.0901759              -2.4538
       ...                                ...                  ...
       120                          0.7349824              19.9999
      -------------------------------------------------------------
                  HL-Gap            0.0673987 Eh            1.8340 eV

     #   Z          covCN         q      C6AA      α(0)
     1   6 C        2.920    -0.033    28.819     8.803
     2   6 C        2.918    -0.031    28.769     8.796
     3   6 C        2.924    -0.036    28.896     8.815
     4   6 C        2.979     0.015    27.679     8.630
     5   6 C        2.976     0.003    27.958     8.673
     6   6 C        2.923    -0.036    28.886     8.814
     7   6 C        2.917    -0.039    28.965     8.825
     8   6 C        2.986     0.009    27.816     8.651
     9   6 C        2.920    -0.038    28.945     8.823
    10   6 C        2.913    -0.032    28.804     8.801
    11   6 C        2.922    -0.038    28.944     8.823
    12   6 C        2.975     0.004    27.931     8.669
    13   6 C        2.975     0.004    27.935     8.670
    14   6 C        2.922    -0.038    28.952     8.824
    15   6 C        2.913    -0.032    28.804     8.801
    16   6 C        2.920    -0.038    28.952     8.824
    17   6 C        2.986     0.010    27.786     8.647
    18   6 C        2.920    -0.038    28.952     8.824
    19   6 C        2.913    -0.032    28.792     8.799
    20   6 C        2.922    -0.038    28.935     8.821
    21   6 C        2.974     0.006    27.874     8.660
    22   6 C        2.976    -0.000    28.024     8.684
    23   6 C        2.995     0.001    27.988     8.678
    24   6 C        2.998     0.001    27.986     8.678
    25   6 C        2.924    -0.032    28.789     8.799
    26   6 C        2.918    -0.030    28.743     8.792
    27   1 H        0.926     0.030     2.583     2.513
    28   1 H        0.926     0.031     2.576     2.510
    29   1 H        0.925     0.030     2.580     2.512
    30   1 H        0.926     0.033     2.541     2.493
    31   1 H        0.926     0.034     2.530     2.487
    32   1 H        0.926     0.033     2.547     2.496
    33   1 H        0.926     0.031     2.567     2.506
    34   1 H        0.926     0.034     2.525     2.485
    35   1 H        0.926     0.034     2.533     2.489
    36   1 H        0.926     0.031     2.572     2.508
    37   1 H        0.926     0.032     2.555     2.500
    38   1 H        0.926     0.032     2.555     2.500
    39   1 H        0.926     0.030     2.588     2.516
    40   1 H        0.926     0.035     2.522     2.484
    41   1 H        0.926     0.026     2.642     2.542
    42   1 H        0.926     0.030     2.582     2.513

molecular dipole:
                 x           y           z       tot (Debye)
 q only:        0.015      -0.048       0.007
   full:        0.023      -0.048      -0.007       0.136

 projected vibrational frequencies (cm⁻¹)
eigval :       -0.00    -0.00    -0.00     0.00     0.00     0.00
eigval :       33.47    48.97    59.72    74.90    91.82   148.49
eigval :      159.32   174.50   204.99   231.70   238.09   268.38
eigval :      297.63   334.57   361.24   373.65   374.21   383.93
eigval :      417.46   439.14   456.40   492.98   494.62   510.62
eigval :      513.42   529.24   536.67   568.81   575.60   589.91
eigval :      594.98   612.33   624.48   661.79   673.87   691.54
eigval :      726.82   746.28   751.91   758.47   766.89   776.69
eigval :      786.21   808.62   829.54   833.11   875.63   876.37
eigval :      877.96   880.60   888.90   901.41   909.29   913.63
eigval :      915.19   920.07   925.47   929.15   932.71   978.10
eigval :     1008.47  1057.83  1081.61  1106.44  1116.59  1128.15
eigval :     1135.62  1151.53  1159.43  1175.26  1178.92  1195.22
eigval :     1196.21  1201.00  1212.51  1224.84  1229.38  1258.56
eigval :     1271.68  1279.66  1290.23  1312.01  1334.93  1344.78
eigval :     1350.53  1362.40  1380.50  1387.83  1413.58  1420.82
eigval :     1426.95  1436.71  1453.22  1477.59  1491.69  1508.29
eigval :     1528.30  1560.37  1577.07  1581.90  1586.79  1588.54
eigval :     1590.19  1596.97  3064.11  3066.48  3066.66  3067.46
eigval :     3068.07  3069.06  3073.25  3076.87  3077.73  3078.93
eigval :     3080.44  3082.15  3087.98  3094.42  3103.54  3120.04

   temp. (K)  partition function   enthalpy   heat capacity  entropy
                                   cal/mol     cal/K/mol   cal/K/mol   J/K/mol
 298.15  VIB  0.810E+06             9857.117     71.063     57.467
         ROT  0.957E+07              888.752      2.981     34.924
         INT  0.774E+13            10745.869     74.043     92.390
         TR   0.576E+28             1481.254      4.968     43.243
         TOT                       12227.1228    79.0116   135.6332   567.4895

       T/K    H(0)-H(T)+PV         H(T)/Eh          T*S/Eh         G(T)/Eh
   ------------------------------------------------------------------------
    298.15    0.194852E-01    0.342987E+00    0.644437E-01    0.278543E+00
   ------------------------------------------------------------------------

         :::::::::::::::::::::::::::::::::::::::::::::::::::::
         ::                  THERMODYNAMIC                  ::
         :::::::::::::::::::::::::::::::::::::::::::::::::::::
         :: total free energy         -63.597932310279 Eh   ::
         ::.................................................::
         :: total energy              -63.876475246645 Eh   ::
         :: zero point energy           0.323501504523 Eh   ::
         :: G(RRHO) w/o ZPVE           -0.044958568157 Eh   ::
         :: G(RRHO) contrib.            0.278542936366 Eh   ::
         :::::::::::::::::::::::::::::::::::::::::::::::::::::

           -------------------------------------------------
          | TOTAL ENERGY              -63.876475246645 Eh   |
          | TOTAL ENTHALPY            -63.533488581612 Eh   |
          | TOTAL FREE ENERGY         -63.597932310279 Eh   |
          | GRADIENT NORM               0.000047921296 Eh/α |
          | HOMO-LUMO GAP               1.834011445228 eV   |
           -------------------------------------------------

 * finished run on 2025/09/04 at 12:59:50.418
