   * xtb version 6.7.1 (edcfbbe) compiled by 'albert@albert-system' on 2024-07-22

   ID    Z sym.   atoms
    1    6 C      1-26
    2    1 H      27-42

          program call               : xtb data2507/toluene/phenylperylene/phenylperylene_toluene_T1_crest.xyz --gfn 2 --uhf 2 --gbsa toluene --ohess vtight --parallel 40 --molden --ceasefiles --namespace data2507/toluene/phenylperylene/phenylperylene_toluene_T1_finalOpt
      * Solvation model:               GBSA
        Solvent                        toluene
        Solvent mass                       9.2140E+01 g/mol
          :  Hamiltonian                  GFN2-xTB          :
 * total energy  :   -63.8169782 Eh     change       -0.1772520E-08 Eh
 * total energy  :   -63.8169909 Eh     change       -0.1275946E-04 Eh
 * total energy  :   -63.8169932 Eh     change       -0.2281843E-05 Eh
 * total energy  :   -63.8169950 Eh     change       -0.1805193E-05 Eh
 * total energy  :   -63.8169966 Eh     change       -0.1556087E-05 Eh
 * total energy  :   -63.8169979 Eh     change       -0.1378472E-05 Eh
 * total energy  :   -63.8169985 Eh     change       -0.5760179E-06 Eh
 * total energy  :   -63.8169987 Eh     change       -0.2162018E-06 Eh
 * total energy  :   -63.8169989 Eh     change       -0.1738948E-06 Eh
 * total energy  :   -63.8169991 Eh     change       -0.1580001E-06 Eh
 * total energy  :   -63.8169992 Eh     change       -0.1360489E-06 Eh
 * total energy  :   -63.8169993 Eh     change       -0.1258752E-06 Eh
 * total energy  :   -63.8169994 Eh     change       -0.1165389E-06 Eh
 * total energy  :   -63.8169995 Eh     change       -0.7576138E-07 Eh
   *** GEOMETRY OPTIMIZATION CONVERGED AFTER 14 ITERATIONS ***

 final structure:
================
42
 xtb: 6.7.1 (edcfbbe)
C            4.99439758360531        0.79350867818501        0.75993650612224
C            3.81405382904310        1.09867302889786        1.42020520679721
C            2.64570185754196        0.43543326350582        1.10275263607186
C            2.63365356928290       -0.55704299899861        0.11396978118704
C            1.40712356961809       -1.29207385178475       -0.17534067259277
C            1.46958209035529       -2.67719291422920       -0.26953965656204
C            0.32979980783600       -3.45142218682354       -0.27805163954550
C           -0.94368263891738       -2.86213106181718       -0.11890438425401
C           -2.10026541034839       -3.64470336072988       -0.02369420553142
C           -3.34461849016994       -3.04624621994937        0.13369999138277
C           -3.45602863523222       -1.67966704334475        0.20911417545244
C           -2.31714902173909       -0.84128818445205        0.12192317242926
C           -2.40812228236416        0.58055795358227        0.21022412488768
C           -3.59252855048122        1.24891433400402        0.60842607289331
C           -3.67543202927818        2.62149421897103        0.59235818177549
C           -2.60130435007863        3.38883092590188        0.16631068943300
C           -1.39622004953452        2.77745009976651       -0.21892073305396
C           -0.30375195482107        3.53897794956962       -0.67457305580970
C            0.85659581941997        2.91372902911481       -1.10677208033781
C            0.99406212568036        1.54976560672489       -1.01036353222998
C           -0.03629878350895        0.74460104175387       -0.45174345011511
C            0.12006654295586       -0.64850744601926       -0.21960244839778
C           -1.04565687855266       -1.44304754629328       -0.06639873720236
C           -1.28179436510763        1.35927180825614       -0.15309082960278
C            3.83561515701710       -0.86695593232838       -0.53004180414088
C            4.99880780509957       -0.19240353422909       -0.21575248130841
H            5.90608311717260        1.31792594523643        1.00569062561149
H            3.80597213825190        1.85777666197340        2.18923813897425
H            1.73404302627278        0.66219024482748        1.63607532937343
H            2.43676590493045       -3.15940595737842       -0.26765912306730
H            0.40253262804767       -4.52765788621066       -0.33305524251363
H           -2.01574531684899       -4.71965700358962       -0.08690672480616
H           -4.23040814455994       -3.66259629701546        0.19315386659956
H           -4.43481874204058       -1.24005697850982        0.31150365540940
H           -4.44128223723204        0.67768187536686        0.94766856010723
H           -4.58822510909024        3.10731186607654        0.90719370564569
H           -2.67544833403425        4.46599754435240        0.13833449971204
H           -0.40050300252762        4.61324623217450       -0.72943111495685
H            1.65762816809650        3.50324395478304       -1.52955250510940
H            1.87779011340024        1.07648257634306       -1.40473811593976
H            3.84305464414272       -1.61751617179609       -1.30756460370455
H            5.91524007209726       -0.43311976136804       -0.73562107888317

          :  Hamiltonian                  GFN2-xTB          :
         :: gradient norm              0.000027146947 Eh/a0 ::
         :: HOMO-LUMO gap              1.434225577582 eV    ::
         :: SCC energy               -65.064140746487 Eh    ::
         :: -> dispersion             -0.059016533521 Eh    ::
         :: -> Gsolv                  -0.024472292658 Eh    ::
         :: repulsion energy           1.247141229524 Eh    ::

    * Orbital Energies and Occupations

         #    Occupation            Energy/Eh            Energy/eV
      -------------------------------------------------------------
         1        2.0000           -0.6543574             -17.8060
       ...           ...                  ...                  ...
        49        2.0000           -0.4287387             -11.6666
        50        2.0000           -0.4237964             -11.5321
        51        2.0000           -0.4224453             -11.4953
        52        2.0000           -0.4146623             -11.2835
        53        2.0000           -0.4070368             -11.0760
        54        2.0000           -0.4052856             -11.0284
        55        2.0000           -0.4030810             -10.9684
        56        2.0000           -0.4001729             -10.8893
        57        2.0000           -0.3983994             -10.8410
        58        2.0000           -0.3970802             -10.8051
        59        2.0000           -0.3862325             -10.5099
        60        1.0000           -0.3464425              -9.4272
        61        1.0000           -0.2944310              -8.0119 (HOMO)
        62                         -0.2417242              -6.5776 (LUMO)
        63                         -0.2271999              -6.1824
        64                         -0.2266304              -6.1669
        65                         -0.2263556              -6.1594
        66                         -0.2194818              -5.9724
        67                         -0.2072828              -5.6405
        68                         -0.1581645              -4.3039
        69                         -0.1567223              -4.2646
        70                         -0.1227027              -3.3389
        71                         -0.0900913              -2.4515
        72                         -0.0755595              -2.0561
       ...                                ...                  ...
       120                          0.7225923              19.6627
      -------------------------------------------------------------
                  HL-Gap            0.0527068 Eh            1.4342 eV

     #   Z          covCN         q      C6AA      α(0)
     1   6 C        2.919    -0.031    28.781     8.797
     2   6 C        2.917    -0.029    28.736     8.790
     3   6 C        2.924    -0.030    28.741     8.792
     4   6 C        2.977     0.016    27.652     8.626
     5   6 C        2.972     0.002    27.987     8.678
     6   6 C        2.917    -0.036    28.889     8.814
     7   6 C        2.917    -0.042    29.047     8.838
     8   6 C        2.979     0.010    27.778     8.645
     9   6 C        2.921    -0.041    29.017     8.834
    10   6 C        2.909    -0.032    28.790     8.798
    11   6 C        2.918    -0.039    28.976     8.827
    12   6 C        2.977     0.002    27.977     8.676
    13   6 C        2.976     0.003    27.961     8.674
    14   6 C        2.917    -0.039    28.968     8.826
    15   6 C        2.909    -0.031    28.780     8.797
    16   6 C        2.920    -0.041    29.010     8.832
    17   6 C        2.979     0.012    27.743     8.640
    18   6 C        2.920    -0.040    28.988     8.829
    19   6 C        2.908    -0.031    28.777     8.796
    20   6 C        2.917    -0.036    28.891     8.814
    21   6 C        2.977     0.006    27.874     8.660
    22   6 C        2.978    -0.001    28.037     8.686
    23   6 C        2.993     0.001    27.997     8.680
    24   6 C        2.995     0.001    28.002     8.680
    25   6 C        2.923    -0.036    28.887     8.814
    26   6 C        2.917    -0.030    28.747     8.792
    27   1 H        0.926     0.032     2.558     2.501
    28   1 H        0.926     0.031     2.569     2.506
    29   1 H        0.926     0.029     2.600     2.522
    30   1 H        0.926     0.034     2.530     2.487
    31   1 H        0.926     0.032     2.557     2.501
    32   1 H        0.926     0.031     2.573     2.509
    33   1 H        0.926     0.030     2.586     2.515
    34   1 H        0.926     0.034     2.532     2.488
    35   1 H        0.926     0.034     2.529     2.487
    36   1 H        0.926     0.030     2.580     2.512
    37   1 H        0.926     0.031     2.567     2.505
    38   1 H        0.926     0.032     2.559     2.502
    39   1 H        0.926     0.030     2.591     2.517
    40   1 H        0.926     0.035     2.519     2.482
    41   1 H        0.926     0.033     2.537     2.491
    42   1 H        0.926     0.033     2.551     2.498

molecular dipole:
                 x           y           z       tot (Debye)
 q only:        0.199       0.016       0.004
   full:        0.197       0.020       0.016       0.504

 projected vibrational frequencies (cm⁻¹)
eigval :       -0.00    -0.00    -0.00    -0.00     0.00     0.00
eigval :       39.32    46.33    65.23    78.49    90.63   153.41
eigval :      162.56   168.04   201.71   236.50   240.16   259.85
eigval :      290.71   328.47   358.49   365.49   377.53   382.99
eigval :      419.24   447.97   453.00   454.03   481.70   500.22
eigval :      505.12   518.91   528.39   560.90   572.87   581.40
eigval :      590.31   599.76   603.78   650.33   669.20   689.87
eigval :      712.59   734.75   738.77   741.14   750.07   757.31
eigval :      771.29   774.93   800.70   821.52   838.32   846.64
eigval :      851.85   870.00   871.76   894.62   900.90   901.92
eigval :      909.42   913.87   916.92   926.69   929.32   970.77
eigval :     1009.90  1034.23  1081.01  1102.87  1118.72  1121.76
eigval :     1130.96  1139.69  1152.80  1163.61  1179.13  1186.22
eigval :     1196.63  1198.21  1212.25  1219.13  1227.32  1264.36
eigval :     1279.89  1285.26  1298.91  1312.82  1318.19  1332.22
eigval :     1350.49  1357.34  1373.47  1376.47  1389.03  1403.58
eigval :     1405.95  1424.29  1438.64  1457.82  1464.08  1478.05
eigval :     1491.41  1504.17  1516.62  1520.65  1539.59  1554.65
eigval :     1559.93  1585.31  3066.85  3066.98  3068.15  3068.94
eigval :     3069.09  3069.92  3077.48  3079.81  3080.17  3081.51
eigval :     3083.38  3084.58  3090.11  3100.20  3109.64  3115.18

   temp. (K)  partition function   enthalpy   heat capacity  entropy
                                   cal/mol     cal/K/mol   cal/K/mol   J/K/mol
 298.15  VIB  0.747E+06             9995.442     72.364     58.095
         ROT  0.946E+07              888.752      2.981     34.902
         INT  0.707E+13            10884.195     75.345     92.997
         TR   0.576E+28             1481.254      4.968     43.243
         TOT                       12365.4485    80.3132   136.2398   570.0271

       T/K    H(0)-H(T)+PV         H(T)/Eh          T*S/Eh         G(T)/Eh
   ------------------------------------------------------------------------
    298.15    0.197056E-01    0.340674E+00    0.647319E-01    0.275942E+00
   ------------------------------------------------------------------------

         :::::::::::::::::::::::::::::::::::::::::::::::::::::
         ::                  THERMODYNAMIC                  ::
         :::::::::::::::::::::::::::::::::::::::::::::::::::::
         :: total free energy         -63.541057900832 Eh   ::
         ::.................................................::
         :: total energy              -63.816999514916 Eh   ::
         :: zero point energy           0.320967922551 Eh   ::
         :: G(RRHO) w/o ZPVE           -0.045026308467 Eh   ::
         :: G(RRHO) contrib.            0.275941614084 Eh   ::
         :::::::::::::::::::::::::::::::::::::::::::::::::::::

           -------------------------------------------------
          | TOTAL ENERGY              -63.816999514916 Eh   |
          | TOTAL ENTHALPY            -63.476325995850 Eh   |
          | TOTAL FREE ENERGY         -63.541057900832 Eh   |
          | GRADIENT NORM               0.000027151765 Eh/α |
          | HOMO-LUMO GAP               1.434225759168 eV   |
           -------------------------------------------------

 * finished run on 2025/09/04 at 13:01:22.164
