   * xtb version 6.7.1 (edcfbbe) compiled by 'albert@albert-system' on 2024-07-22

   ID    Z sym.   atoms
    1    6 C      1-26
    2    1 H      27-42

          program call               : xtb data2507/toluene/phenylperylene/phenylperylene_toluene_S0_crest.xyz --gfn 2 --gbsa toluene --ohess vtight --parallel 40 --molden --ceasefiles --namespace data2507/toluene/phenylperylene/phenylperylene_toluene_S0_finalOpt
      * Solvation model:               GBSA
        Solvent                        toluene
        Solvent mass                       9.2140E+01 g/mol
          :  Hamiltonian                  GFN2-xTB          :
 * total energy  :   -63.8764718 Eh     change       -0.1219732E-08 Eh
 * total energy  :   -63.8764853 Eh     change       -0.1353641E-04 Eh
 * total energy  :   -63.8764880 Eh     change       -0.2675736E-05 Eh
 * total energy  :   -63.8764902 Eh     change       -0.2159819E-05 Eh
 * total energy  :   -63.8764918 Eh     change       -0.1648359E-05 Eh
 * total energy  :   -63.8764931 Eh     change       -0.1237522E-05 Eh
 * total energy  :   -63.8764936 Eh     change       -0.4916809E-06 Eh
 * total energy  :   -63.8764938 Eh     change       -0.2556262E-06 Eh
 * total energy  :   -63.8764941 Eh     change       -0.2513666E-06 Eh
 * total energy  :   -63.8764943 Eh     change       -0.2119997E-06 Eh
 * total energy  :   -63.8764944 Eh     change       -0.1515193E-06 Eh
 * total energy  :   -63.8764945 Eh     change       -0.1047060E-06 Eh
 * total energy  :   -63.8764946 Eh     change       -0.8836278E-07 Eh
   *** GEOMETRY OPTIMIZATION CONVERGED AFTER 13 ITERATIONS ***

 final structure:
================
42
 xtb: 6.7.1 (edcfbbe)
C            5.06983052988684        0.77818030452190        0.62688521172698
C            3.97529675118756        1.00460074647769        1.44689251325630
C            2.77439390261305        0.36879505329546        1.19630355499893
C            2.64885812948504       -0.50371690498645        0.11624058391741
C            1.38911108815031       -1.24379658718868       -0.09008044816726
C            1.49276396041116       -2.64702542893141       -0.08558056904397
C            0.38628524024396       -3.44363341247758       -0.13956111423210
C           -0.90145101858066       -2.87221694640704       -0.10255693919205
C           -2.05557833005504       -3.67822963533019       -0.06952986163110
C           -3.29577658221490       -3.10469823754799        0.00305863674082
C           -3.42368319576842       -1.71809632077577        0.08804750118709
C           -2.31920390105682       -0.88404291152854        0.06688640088236
C           -2.43913765744531        0.56223585225743        0.20289691169341
C           -3.61439026832128        1.18193034723348        0.59045319665156
C           -3.72903851479597        2.57272025533122        0.61676230044152
C           -2.68530364452218        3.36080625193524        0.21399810093604
C           -1.46193193762155        2.77840508179254       -0.17396435417289
C           -0.38867832518716        3.56737483652344       -0.63469808122349
C            0.76740013643808        2.97271682851205       -1.06139177452567
C            0.93567289111507        1.59155653835760       -0.94982275352356
C           -0.05283832087858        0.78497926656839       -0.41375879547921
C            0.13427284644343       -0.64361850033800       -0.18754846730377
C           -1.02755261310101       -1.45832013630147       -0.08483318577753
C           -1.31470836989240        1.36712445870559       -0.11768492709776
C            3.75914698750379       -0.73971265769920       -0.69038649243470
C            4.95824452142258       -0.09562967822551       -0.44137355991170
H            6.00686850080028        1.27889269959801        0.82251250705144
H            4.06011668722340        1.67810384750583        2.28764581386829
H            1.92198451450249        0.54340774614861        1.83739674055294
H            2.47832056138061       -3.08759801667294       -0.03235832456469
H            0.48116165086402       -4.51948571641861       -0.17118541082973
H           -1.94156968123812       -4.75230367420323       -0.10007021388091
H           -4.18415418777192       -3.71977857966789        0.01327848031273
H           -4.41612660298963       -1.30299979784475        0.16574157518499
H           -4.47084870520703        0.59500991167414        0.88284191421592
H           -4.66069343511008        3.01950526552198        0.93350796437447
H           -2.78238258470529        4.43667270060332        0.18518152477627
H           -0.50791869862316        4.64074223719673       -0.67147713276258
H            1.57089695047432        3.56785513891231       -1.47105209462168
H            1.86036619831364        1.15821076875447       -1.29329936419086
H            3.67211149321386       -1.41572992857195       -1.52972677720241
H            5.80883420471313       -0.27902476051038       -1.08240925129980

          :  Hamiltonian                  GFN2-xTB          :
         :: gradient norm              0.000029588551 Eh/a0 ::
         :: HOMO-LUMO gap              1.832983292329 eV    ::
         :: SCC energy               -65.138413545968 Eh    ::
         :: -> dispersion             -0.058714835892 Eh    ::
         :: -> Gsolv                  -0.024603220537 Eh    ::
         :: repulsion energy           1.261918931062 Eh    ::

    * Orbital Energies and Occupations

         #    Occupation            Energy/Eh            Energy/eV
      -------------------------------------------------------------
         1        2.0000           -0.6545496             -17.8112
       ...           ...                  ...                  ...
        48        2.0000           -0.4369617             -11.8903
        49        2.0000           -0.4292674             -11.6810
        50        2.0000           -0.4236278             -11.5275
        51        2.0000           -0.4206857             -11.4474
        52        2.0000           -0.4121777             -11.2159
        53        2.0000           -0.4050181             -11.0211
        54        2.0000           -0.4042954             -11.0014
        55        2.0000           -0.4033990             -10.9770
        56        2.0000           -0.4008524             -10.9078
        57        2.0000           -0.3990718             -10.8593
        58        2.0000           -0.3970688             -10.8048
        59        2.0000           -0.3881481             -10.5620
        60        2.0000           -0.3537888              -9.6271 (HOMO)
        61                         -0.2864279              -7.7941 (LUMO)
        62                         -0.2369347              -6.4473
        63                         -0.2274775              -6.1900
        64                         -0.2263438              -6.1591
        65                         -0.2237203              -6.0877
        66                         -0.2212973              -6.0218
        67                         -0.2111944              -5.7469
        68                         -0.1581044              -4.3022
        69                         -0.1552799              -4.2254
        70                         -0.1202558              -3.2723
        71                         -0.0901059              -2.4519
       ...                                ...                  ...
       120                          0.7350199              20.0009
      -------------------------------------------------------------
                  HL-Gap            0.0673609 Eh            1.8330 eV

     #   Z          covCN         q      C6AA      α(0)
     1   6 C        2.920    -0.033    28.819     8.803
     2   6 C        2.918    -0.030    28.744     8.792
     3   6 C        2.924    -0.032    28.789     8.799
     4   6 C        2.979     0.015    27.680     8.630
     5   6 C        2.976     0.003    27.958     8.673
     6   6 C        2.923    -0.036    28.886     8.814
     7   6 C        2.917    -0.039    28.965     8.826
     8   6 C        2.986     0.009    27.816     8.651
     9   6 C        2.920    -0.038    28.945     8.823
    10   6 C        2.913    -0.032    28.803     8.801
    11   6 C        2.922    -0.038    28.944     8.823
    12   6 C        2.975     0.004    27.931     8.669
    13   6 C        2.975     0.004    27.935     8.670
    14   6 C        2.921    -0.038    28.952     8.824
    15   6 C        2.913    -0.032    28.803     8.801
    16   6 C        2.920    -0.038    28.952     8.824
    17   6 C        2.986     0.010    27.786     8.647
    18   6 C        2.920    -0.038    28.953     8.824
    19   6 C        2.913    -0.032    28.791     8.799
    20   6 C        2.922    -0.038    28.933     8.821
    21   6 C        2.975     0.006    27.873     8.660
    22   6 C        2.976     0.000    28.024     8.683
    23   6 C        2.995     0.001    27.988     8.678
    24   6 C        2.998     0.001    27.986     8.678
    25   6 C        2.924    -0.036    28.896     8.815
    26   6 C        2.918    -0.031    28.769     8.796
    27   1 H        0.926     0.030     2.583     2.513
    28   1 H        0.926     0.030     2.582     2.513
    29   1 H        0.926     0.026     2.642     2.542
    30   1 H        0.926     0.033     2.540     2.492
    31   1 H        0.926     0.034     2.530     2.487
    32   1 H        0.926     0.033     2.547     2.496
    33   1 H        0.926     0.031     2.567     2.506
    34   1 H        0.926     0.034     2.525     2.485
    35   1 H        0.926     0.034     2.533     2.489
    36   1 H        0.926     0.031     2.572     2.508
    37   1 H        0.926     0.032     2.555     2.500
    38   1 H        0.926     0.032     2.555     2.500
    39   1 H        0.926     0.030     2.588     2.516
    40   1 H        0.926     0.034     2.524     2.484
    41   1 H        0.925     0.030     2.580     2.512
    42   1 H        0.926     0.031     2.576     2.510

molecular dipole:
                 x           y           z       tot (Debye)
 q only:        0.014      -0.049      -0.005
   full:        0.022      -0.048       0.009       0.136

 projected vibrational frequencies (cm⁻¹)
eigval :       -0.00    -0.00    -0.00     0.00     0.00     0.00
eigval :       35.16    47.85    59.65    73.97    92.75   149.10
eigval :      160.05   175.47   205.97   232.14   238.87   269.17
eigval :      299.82   335.47   361.29   373.03   374.58   383.61
eigval :      417.42   439.17   456.14   493.60   495.69   510.58
eigval :      513.76   529.53   536.39   568.75   575.75   590.33
eigval :      594.95   612.80   625.63   663.70   673.77   691.41
eigval :      726.87   746.10   753.32   756.18   769.58   776.97
eigval :      788.00   810.28   829.61   832.74   872.23   876.04
eigval :      878.24   881.31   887.98   898.94   909.17   914.93
eigval :      920.79   922.94   925.64   928.44   929.82   978.28
eigval :     1008.55  1057.90  1083.28  1106.10  1119.11  1128.03
eigval :     1135.81  1151.12  1158.87  1174.80  1179.93  1195.59
eigval :     1198.21  1200.58  1211.89  1224.42  1229.12  1258.26
eigval :     1271.79  1281.76  1290.21  1312.08  1334.90  1344.68
eigval :     1350.58  1362.55  1380.59  1388.01  1413.64  1420.95
eigval :     1427.38  1436.54  1453.31  1478.31  1491.67  1508.19
eigval :     1528.65  1560.40  1577.12  1581.80  1586.74  1588.37
eigval :     1590.12  1597.03  3064.22  3065.82  3067.20  3067.43
eigval :     3068.09  3068.74  3073.67  3077.39  3077.92  3078.67
eigval :     3080.42  3081.82  3088.12  3094.40  3102.98  3119.61

   temp. (K)  partition function   enthalpy   heat capacity  entropy
                                   cal/mol     cal/K/mol   cal/K/mol   J/K/mol
 298.15  VIB  0.775E+06             9846.004     71.027     57.381
         ROT  0.956E+07              888.752      2.981     34.923
         INT  0.741E+13            10734.756     74.008     92.304
         TR   0.576E+28             1481.254      4.968     43.243
         TOT                       12216.0102    78.9757   135.5465   567.1266

       T/K    H(0)-H(T)+PV         H(T)/Eh          T*S/Eh         G(T)/Eh
   ------------------------------------------------------------------------
    298.15    0.194675E-01    0.343029E+00    0.644025E-01    0.278627E+00
   ------------------------------------------------------------------------

         :::::::::::::::::::::::::::::::::::::::::::::::::::::
         ::                  THERMODYNAMIC                  ::
         :::::::::::::::::::::::::::::::::::::::::::::::::::::
         :: total free energy         -63.597868066804 Eh   ::
         ::.................................................::
         :: total energy              -63.876494616122 Eh   ::
         :: zero point energy           0.323561620744 Eh   ::
         :: G(RRHO) w/o ZPVE           -0.044935071426 Eh   ::
         :: G(RRHO) contrib.            0.278626549318 Eh   ::
         :::::::::::::::::::::::::::::::::::::::::::::::::::::

           -------------------------------------------------
          | TOTAL ENERGY              -63.876494616122 Eh   |
          | TOTAL ENTHALPY            -63.533465543922 Eh   |
          | TOTAL FREE ENERGY         -63.597868066804 Eh   |
          | GRADIENT NORM               0.000029596555 Eh/α |
          | HOMO-LUMO GAP               1.832983254253 eV   |
           -------------------------------------------------

 * finished run on 2025/09/04 at 13:00:34.999
