   * xtb version 6.7.1 (edcfbbe) compiled by 'albert@albert-system' on 2024-07-22

   ID    Z sym.   atoms
    1    6 C      1-26
    2    1 H      27-42

          program call               : xtb data2507/toluene/phenylperylene/phenylperylene_toluene_S0_finalOpt.xtbopt.xyz --gfn 2 --uhf 2 --gbsa toluene --ohess vtight --parallel 40 --molden --ceasefiles --namespace data2507/toluene/phenylperylene/phenylperylene_toluene_T1_preOpt
      * Solvation model:               GBSA
        Solvent                        toluene
        Solvent mass                       9.2140E+01 g/mol
          :  Hamiltonian                  GFN2-xTB          :
 * total energy  :   -63.8089443 Eh     change       -0.1687425E-08 Eh
 * total energy  :   -63.8146913 Eh     change       -0.5747006E-02 Eh
 * total energy  :   -63.8161763 Eh     change       -0.1484984E-02 Eh
 * total energy  :   -63.8163238 Eh     change       -0.1474785E-03 Eh
 * total energy  :   -63.8164941 Eh     change       -0.1703289E-03 Eh
 * total energy  :   -63.8165990 Eh     change       -0.1048680E-03 Eh
 * total energy  :   -63.8166964 Eh     change       -0.9736800E-04 Eh
 * total energy  :   -63.8167864 Eh     change       -0.9007829E-04 Eh
 * total energy  :   -63.8168434 Eh     change       -0.5695629E-04 Eh
 * total energy  :   -63.8168813 Eh     change       -0.3788883E-04 Eh
 * total energy  :   -63.8169916 Eh     change       -0.2888118E-06 Eh
 * total energy  :   -63.8169919 Eh     change       -0.2738159E-06 Eh
 * total energy  :   -63.8169921 Eh     change       -0.2234194E-06 Eh
 * total energy  :   -63.8169923 Eh     change       -0.1987773E-06 Eh
 * total energy  :   -63.8169925 Eh     change       -0.1599225E-06 Eh
 * total energy  :   -63.8169926 Eh     change       -0.1403824E-06 Eh
 * total energy  :   -63.8169927 Eh     change       -0.1170324E-06 Eh
 * total energy  :   -63.8169928 Eh     change       -0.1072542E-06 Eh
 * total energy  :   -63.8169929 Eh     change       -0.9161522E-07 Eh
   *** GEOMETRY OPTIMIZATION CONVERGED AFTER 42 ITERATIONS ***

 final structure:
================
42
 xtb: 6.7.1 (edcfbbe)
C            5.00042759679214        0.83480341012985        0.71285085532592
C            3.82504659008902        1.11941266217466        1.39091612579381
C            2.65911082825145        0.45002707077288        1.07741246917435
C            2.64466171964090       -0.52802553301503        0.07445339211668
C            1.42280128754234       -1.27286624706848       -0.20999320473241
C            1.50120051292764       -2.65584164071553       -0.32241884205609
C            0.37122525042015       -3.44424350739497       -0.32817150603845
C           -0.90752058031042       -2.87298531289256       -0.14765446170453
C           -2.05297964259063       -3.67146373330085       -0.04982080227631
C           -3.30298887217617       -3.09107846254691        0.12864642579898
C           -3.43079408219990       -1.72698970236269        0.22126359842897
C           -2.30357779929305       -0.87306418022937        0.13264928338190
C           -2.41205336110668        0.54632748071722        0.23870350845838
C           -3.60160306329106        1.19424884249149        0.65510420089714
C           -3.70237384397005        2.56568524102960        0.65710989214141
C           -2.64184171893435        3.35218762346108        0.23196629095467
C           -1.43236878495530        2.76135589657805       -0.17123483107097
C           -0.35388985557610        3.54283659628903       -0.62639866759497
C            0.81046718687854        2.93825028958329       -1.07687804738443
C            0.96619457359178        1.57505588759247       -0.99953296779415
C           -0.04867611999955        0.74926939194141       -0.44261407913888
C            0.12751801529847       -0.64479005968028       -0.23104801244748
C           -1.02653512126510       -1.45603625428070       -0.07613390275378
C           -1.29912528873012        1.34400981852472       -0.12471716471297
C            3.84162366244728       -0.81653046109899       -0.58857187454312
C            5.00225855031056       -0.13593945967384       -0.27791801812524
H            5.91022408758722        1.36360159457298        0.95624340123979
H            3.81927712003464        1.86688074525554        2.17128884026639
H            1.75170464434356        0.66062696497718        1.62442894688116
H            2.47421720704516       -3.12587924423296       -0.33762433694075
H            0.45688805510064       -4.51870636647128       -0.39734414012777
H           -1.95539935736206       -4.74437203737494       -0.12737343269842
H           -4.18020772678079       -3.71937759477706        0.19009894873672
H           -4.41394021567422       -1.30125955499707        0.33915896540297
H           -4.44000943259147        0.60786444827288        0.99420166267951
H           -4.61880961611356        3.03560459133036        0.98520164627519
H           -2.73018206599698        4.42857780799896        0.21832003636031
H           -0.46492424276434        4.61638853456403       -0.66632026418346
H            1.60034341763381        3.54342172068377       -1.49854168270345
H            1.85238464391103        1.11853944696628       -1.40786846043507
H            3.84661513455389       -1.55505716701151       -1.37756407143176
H            5.91459323162657       -0.36032346732053       -0.81211278163741

          :  Hamiltonian                  GFN2-xTB          :
         :: gradient norm              0.000027909056 Eh/a0 ::
         :: HOMO-LUMO gap              1.434942332735 eV    ::
         :: SCC energy               -65.064101223372 Eh    ::
         :: -> dispersion             -0.059002128083 Eh    ::
         :: -> Gsolv                  -0.024469815175 Eh    ::
         :: repulsion energy           1.247108300369 Eh    ::

    * Orbital Energies and Occupations

         #    Occupation            Energy/Eh            Energy/eV
      -------------------------------------------------------------
         1        2.0000           -0.6543425             -17.8056
       ...           ...                  ...                  ...
        49        2.0000           -0.4287366             -11.6665
        50        2.0000           -0.4237875             -11.5318
        51        2.0000           -0.4224395             -11.4952
        52        2.0000           -0.4146440             -11.2830
        53        2.0000           -0.4070099             -11.0753
        54        2.0000           -0.4052822             -11.0283
        55        2.0000           -0.4030793             -10.9683
        56        2.0000           -0.4002102             -10.8903
        57        2.0000           -0.3984152             -10.8414
        58        2.0000           -0.3970877             -10.8053
        59        2.0000           -0.3862332             -10.5099
        60        1.0000           -0.3464593              -9.4276
        61        1.0000           -0.2944256              -8.0117 (HOMO)
        62                         -0.2416924              -6.5768 (LUMO)
        63                         -0.2272144              -6.1828
        64                         -0.2266039              -6.1662
        65                         -0.2263386              -6.1590
        66                         -0.2194982              -5.9729
        67                         -0.2073095              -5.6412
        68                         -0.1581462              -4.3034
        69                         -0.1567178              -4.2645
        70                         -0.1226669              -3.3379
        71                         -0.0901165              -2.4522
        72                         -0.0755694              -2.0563
       ...                                ...                  ...
       120                          0.7225818              19.6625
      -------------------------------------------------------------
                  HL-Gap            0.0527332 Eh            1.4349 eV

     #   Z          covCN         q      C6AA      α(0)
     1   6 C        2.919    -0.031    28.781     8.798
     2   6 C        2.917    -0.029    28.736     8.790
     3   6 C        2.924    -0.030    28.741     8.792
     4   6 C        2.977     0.016    27.652     8.626
     5   6 C        2.972     0.002    27.987     8.678
     6   6 C        2.917    -0.036    28.889     8.814
     7   6 C        2.917    -0.042    29.047     8.838
     8   6 C        2.979     0.010    27.778     8.645
     9   6 C        2.921    -0.041    29.017     8.834
    10   6 C        2.909    -0.032    28.790     8.798
    11   6 C        2.918    -0.039    28.977     8.827
    12   6 C        2.977     0.002    27.976     8.676
    13   6 C        2.976     0.003    27.961     8.674
    14   6 C        2.917    -0.039    28.968     8.826
    15   6 C        2.909    -0.031    28.780     8.797
    16   6 C        2.920    -0.041    29.009     8.832
    17   6 C        2.979     0.012    27.743     8.640
    18   6 C        2.920    -0.040    28.988     8.829
    19   6 C        2.908    -0.031    28.777     8.796
    20   6 C        2.917    -0.036    28.892     8.814
    21   6 C        2.977     0.006    27.874     8.660
    22   6 C        2.978    -0.001    28.037     8.685
    23   6 C        2.993     0.001    27.997     8.680
    24   6 C        2.995     0.001    28.002     8.680
    25   6 C        2.923    -0.036    28.887     8.814
    26   6 C        2.917    -0.030    28.748     8.792
    27   1 H        0.926     0.032     2.558     2.501
    28   1 H        0.926     0.031     2.569     2.506
    29   1 H        0.926     0.029     2.600     2.522
    30   1 H        0.926     0.034     2.530     2.487
    31   1 H        0.926     0.032     2.557     2.501
    32   1 H        0.926     0.031     2.573     2.509
    33   1 H        0.926     0.030     2.586     2.515
    34   1 H        0.926     0.034     2.532     2.488
    35   1 H        0.926     0.034     2.529     2.487
    36   1 H        0.926     0.030     2.580     2.512
    37   1 H        0.926     0.031     2.567     2.505
    38   1 H        0.926     0.032     2.559     2.502
    39   1 H        0.926     0.030     2.591     2.517
    40   1 H        0.926     0.035     2.518     2.481
    41   1 H        0.926     0.033     2.538     2.491
    42   1 H        0.926     0.033     2.551     2.498

molecular dipole:
                 x           y           z       tot (Debye)
 q only:        0.197       0.018       0.002
   full:        0.196       0.021       0.014       0.501

 projected vibrational frequencies (cm⁻¹)
eigval :       -0.00    -0.00    -0.00     0.00     0.00     0.00
eigval :       39.46    45.49    64.28    77.93    90.08   153.29
eigval :      162.28   168.29   201.87   235.71   240.10   259.78
eigval :      290.83   328.35   358.68   365.54   374.86   382.85
eigval :      419.35   447.76   453.22   453.95   482.03   500.29
eigval :      505.34   519.05   528.36   560.96   572.80   581.44
eigval :      590.10   599.62   604.15   650.58   667.74   689.74
eigval :      712.72   734.65   738.84   739.70   749.12   756.76
eigval :      770.72   775.02   800.07   821.52   838.25   846.29
eigval :      851.25   868.05   871.24   893.49   900.34   901.55
eigval :      906.87   909.77   915.27   926.63   928.33   970.62
eigval :     1009.86  1034.22  1080.55  1102.96  1118.24  1121.26
eigval :     1130.67  1140.30  1153.41  1163.87  1179.35  1186.30
eigval :     1196.15  1197.86  1212.07  1219.19  1227.43  1264.40
eigval :     1278.96  1285.25  1298.82  1312.78  1318.16  1332.01
eigval :     1350.37  1357.29  1373.40  1376.51  1389.01  1403.52
eigval :     1405.95  1424.34  1438.56  1457.79  1463.97  1477.99
eigval :     1491.57  1504.07  1516.69  1520.62  1539.49  1554.66
eigval :     1559.93  1585.32  3066.63  3066.87  3068.16  3068.61
eigval :     3069.10  3070.30  3077.33  3079.78  3079.94  3081.01
eigval :     3083.34  3084.59  3089.86  3100.20  3109.78  3115.75

   temp. (K)  partition function   enthalpy   heat capacity  entropy
                                   cal/mol     cal/K/mol   cal/K/mol   J/K/mol
 298.15  VIB  0.780E+06            10004.295     72.371     58.160
         ROT  0.947E+07              888.752      2.981     34.904
         INT  0.739E+13            10893.048     75.352     93.064
         TR   0.576E+28             1481.254      4.968     43.243
         TOT                       12374.3017    80.3200   136.3064   570.3058

       T/K    H(0)-H(T)+PV         H(T)/Eh          T*S/Eh         G(T)/Eh
   ------------------------------------------------------------------------
    298.15    0.197197E-01    0.340622E+00    0.647635E-01    0.275858E+00
   ------------------------------------------------------------------------

         :::::::::::::::::::::::::::::::::::::::::::::::::::::
         ::                  THERMODYNAMIC                  ::
         :::::::::::::::::::::::::::::::::::::::::::::::::::::
         :: total free energy         -63.541134926758 Eh   ::
         ::.................................................::
         :: total energy              -63.816992922412 Eh   ::
         :: zero point energy           0.320901839504 Eh   ::
         :: G(RRHO) w/o ZPVE           -0.045043843850 Eh   ::
         :: G(RRHO) contrib.            0.275857995654 Eh   ::
         :::::::::::::::::::::::::::::::::::::::::::::::::::::

           -------------------------------------------------
          | TOTAL ENERGY              -63.816992922412 Eh   |
          | TOTAL ENTHALPY            -63.476371377929 Eh   |
          | TOTAL FREE ENERGY         -63.541134926758 Eh   |
          | GRADIENT NORM               0.000027905359 Eh/α |
          | HOMO-LUMO GAP               1.434942523648 eV   |
           -------------------------------------------------

 * finished run on 2025/09/04 at 13:00:36.992
