   * xtb version 6.7.1 (edcfbbe) compiled by 'albert@albert-system' on 2024-07-22

   ID    Z sym.   atoms
    1    6 C      1-7, 9-19, 21-26
    2    8 O      8, 20
    3    1 H      27-50

          program call               : xtb data2507/toluene/P4CzCN–BCz/P4CzCN–BCz_toluene_S0_finalOpt.xtbopt.xyz --gfn 2 --uhf 2 --gbsa toluene --ohess vtight --parallel 40 --molden --ceasefiles --namespace data2507/toluene/P4CzCN–BCz/P4CzCN–BCz_toluene_T1_preOpt
      * Solvation model:               GBSA
        Solvent                        toluene
        Solvent mass                       9.2140E+01 g/mol
          :  Hamiltonian                  GFN2-xTB          :
 * total energy  :   -71.6289705 Eh     change       -0.2109729E-08 Eh
 * total energy  :   -71.6428930 Eh     change       -0.1392246E-01 Eh
 * total energy  :   -71.6452536 Eh     change       -0.2360611E-02 Eh
 * total energy  :   -71.6453813 Eh     change       -0.1277252E-03 Eh
 * total energy  :   -71.6454146 Eh     change       -0.3330043E-04 Eh
 * total energy  :   -71.6454232 Eh     change       -0.8549744E-05 Eh
 * total energy  :   -71.6454206 Eh     change        0.2621080E-05 Eh
 * total energy  :   -71.6454278 Eh     change       -0.7261150E-05 Eh
 * total energy  :   -71.6454305 Eh     change       -0.2634751E-05 Eh
 * total energy  :   -71.6454339 Eh     change       -0.3403934E-05 Eh
 * total energy  :   -71.6454514 Eh     change       -0.2348878E-06 Eh
 * total energy  :   -71.6454517 Eh     change       -0.2550611E-06 Eh
 * total energy  :   -71.6454519 Eh     change       -0.2288920E-06 Eh
 * total energy  :   -71.6454521 Eh     change       -0.1975727E-06 Eh
 * total energy  :   -71.6454523 Eh     change       -0.1838938E-06 Eh
 * total energy  :   -71.6454525 Eh     change       -0.1988330E-06 Eh
 * total energy  :   -71.6454527 Eh     change       -0.2046066E-06 Eh
 * total energy  :   -71.6454529 Eh     change       -0.1856881E-06 Eh
 * total energy  :   -71.6454529 Eh     change       -0.2528196E-08 Eh
   *** GEOMETRY OPTIMIZATION CONVERGED AFTER 44 ITERATIONS ***

 final structure:
================
50
 xtb: 6.7.1 (edcfbbe)
C           -7.46802321674810        2.23379137210989       -0.58903500496904
C           -6.55508778854929        1.72253714096598        0.36602601105765
C           -5.64718188899478        0.70450895868343        0.18025686554715
C           -5.48639195363454       -0.01821221801562       -1.07153765499268
C           -4.58774427561238       -1.02666548474984       -1.19168568235172
C           -3.76338953020208       -1.41638231426868       -0.10773997000858
C           -2.79579411468853       -2.55069806864807       -0.25464464561680
O           -1.65055283776323       -2.46197929494343        0.57367212511568
C           -0.74873511557954       -1.46150537563974        0.34610144676195
C            0.38594092236947       -1.47084591800264        1.15961718316207
C            1.36099573912086       -0.51136154339016        1.00551747587918
C            1.24916821799074        0.48901084006958        0.03985484491232
C            2.34442770467360        1.53984227809912       -0.05158864281456
C            2.16171052725634        2.48328193870772        1.14707497518491
C            2.26953906736265        2.37537598476496       -1.33873043436115
C            3.69341269968475        0.83704319471305       -0.05494715676028
C            4.77058752706129        1.24246422219321        0.72307693024730
C            5.98882377577439        0.59220623594641        0.65552560157168
C            6.15902095561836       -0.48759149639068       -0.20241757472077
O            7.37499330252362       -1.10611994213474       -0.24057876448350
C            5.09156949014929       -0.90086540084992       -0.99069825644456
C            3.87997564567311       -0.24260245842211       -0.91356897002487
C            0.11370815474918        0.49338954853352       -0.75542878063684
C           -0.87677548688422       -0.46599388336763       -0.61245149220823
C           -3.89847325487370       -0.73117163772808        1.12694290018481
C           -4.78484783632391        0.28255711960292        1.27205300691967
H           -8.11655096637116        3.04841107449657       -0.32858592059094
H           -7.54415013051104        1.83207387986167       -1.58053738040477
H           -6.57979885237894        2.18701589168912        1.34427948767040
H           -6.09914398490736        0.26298947265078       -1.91209764906319
H           -4.48424768427706       -1.55166284708467       -2.13200947285035
H           -2.49806737717029       -2.66673020447331       -1.30716522298260
H           -3.26964696524961       -3.49066541952454        0.06460830022551
H            0.47793426347021       -2.24543281167583        1.90576924507218
H            2.23404662017653       -0.54147318547320        1.64117523066242
H            2.33141755714293        1.95959081003085        2.08447957534540
H            1.14193814789372        2.86401551359222        1.15110053274298
H            2.84010266621313        3.33041676237079        1.08110332958637
H            2.26758316904888        1.73683478481646       -2.21864895881781
H            1.37834598055265        2.99827417919262       -1.34599062175883
H            3.13982325417633        3.02680808015365       -1.39410811636639
H            4.67519796219397        2.07576812746133        1.40015463120250
H            6.82162742508030        0.90951969205985        1.26425662050694
H            7.34741844799615       -1.83431581667523       -0.87529507686547
H            5.21203749705151       -1.73962213761077       -1.66394345404755
H            3.05833408628264       -0.58141129826356       -1.52795775261333
H           -0.02470230830586        1.25110749556635       -1.50994789326160
H           -1.74892836074608       -0.41616272955653       -1.24582209647280
H           -3.26872938121474       -1.03523254086287        1.95131154732157
H           -4.87951664813116        0.79934729874447        2.21581543279750

          :  Hamiltonian                  GFN2-xTB          :
         :: gradient norm              0.000033890615 Eh/a0 ::
         :: HOMO-LUMO gap              1.268932911779 eV    ::
         :: SCC energy               -72.827007590253 Eh    ::
         :: -> dispersion             -0.055411448843 Eh    ::
         :: -> Gsolv                  -0.029877321206 Eh    ::
         :: repulsion energy           1.181554692579 Eh    ::

    * Orbital Energies and Occupations

         #    Occupation            Energy/Eh            Energy/eV
      -------------------------------------------------------------
         1        2.0000           -0.7170353             -19.5115
       ...           ...                  ...                  ...
        55        2.0000           -0.4302444             -11.7075
        56        2.0000           -0.4254486             -11.5770
        57        2.0000           -0.4230210             -11.5110
        58        2.0000           -0.4170178             -11.3476
        59        2.0000           -0.4143790             -11.2758
        60        2.0000           -0.4106493             -11.1743
        61        2.0000           -0.4093700             -11.1395
        62        2.0000           -0.4045573             -11.0086
        63        2.0000           -0.4029838             -10.9657
        64        2.0000           -0.3799303             -10.3384
        65        1.9570           -0.3729988             -10.1498
        66        1.0430           -0.3671031              -9.9894
        67        1.0000           -0.2703423              -7.3564 (HOMO)
        68                         -0.2237095              -6.0874 (LUMO)
        69                         -0.2203054              -5.9948
        70                         -0.2168772              -5.9015
        71                         -0.2141529              -5.8274
        72                         -0.2106647              -5.7325
        73                         -0.1793609              -4.8807
        74                         -0.0903074              -2.4574
        75                         -0.0894002              -2.4327
        76                         -0.0870658              -2.3692
        77                          0.0218843               0.5955
        78                          0.0603354               1.6418
       ...                                ...                  ...
       128                          0.6799418              18.5022
      -------------------------------------------------------------
                  HL-Gap            0.0466328 Eh            1.2689 eV

     #   Z          covCN         q      C6AA      α(0)
     1   6 C        2.836    -0.097    30.439     9.041
     2   6 C        2.897    -0.035    28.868     8.809
     3   6 C        2.959     0.009    27.816     8.651
     4   6 C        2.909    -0.037    28.909     8.817
     5   6 C        2.907    -0.038    28.951     8.823
     6   6 C        2.963    -0.011    28.285     8.723
     7   6 C        3.695     0.081    19.400     6.301
     8   8 O        1.704    -0.293    18.866     5.864
     9   6 C        2.862     0.140    24.939     8.186
    10   6 C        2.919    -0.057    29.413     8.894
    11   6 C        2.926    -0.035    28.870     8.812
    12   6 C        2.977     0.003    27.950     8.672
    13   6 C        3.909     0.019    20.202     6.389
    14   6 C        3.762    -0.105    22.544     6.768
    15   6 C        3.762    -0.105    22.542     6.768
    16   6 C        2.978     0.002    27.972     8.675
    17   6 C        2.924    -0.040    28.984     8.829
    18   6 C        2.918    -0.058    29.432     8.896
    19   6 C        2.846     0.140    24.948     8.186
    20   8 O        1.659    -0.413    21.101     6.201
    21   6 C        2.917    -0.071    29.774     8.948
    22   6 C        2.927    -0.036    28.885     8.814
    23   6 C        2.925    -0.040    29.001     8.831
    24   6 C        2.917    -0.067    29.672     8.933
    25   6 C        2.906    -0.029    28.732     8.789
    26   6 C        2.913    -0.039    28.972     8.826
    27   1 H        0.926     0.035     2.510     2.478
    28   1 H        0.926     0.037     2.483     2.464
    29   1 H        0.925     0.032     2.553     2.499
    30   1 H        0.926     0.039     2.455     2.450
    31   1 H        0.925     0.029     2.594     2.519
    32   1 H        0.923     0.040     2.449     2.447
    33   1 H        0.923     0.064     2.155     2.296
    34   1 H        0.926     0.041     2.442     2.443
    35   1 H        0.926     0.036     2.497     2.471
    36   1 H        0.925     0.040     2.454     2.450
    37   1 H        0.925     0.038     2.470     2.458
    38   1 H        0.925     0.045     2.384     2.415
    39   1 H        0.925     0.039     2.461     2.453
    40   1 H        0.925     0.044     2.396     2.421
    41   1 H        0.925     0.039     2.459     2.452
    42   1 H        0.926     0.047     2.363     2.404
    43   1 H        0.926     0.043     2.415     2.430
    44   1 H        0.805     0.310     0.692     1.306
    45   1 H        0.925     0.032     2.562     2.503
    46   1 H        0.926     0.033     2.544     2.494
    47   1 H        0.926     0.045     2.388     2.416
    48   1 H        0.926     0.037     2.491     2.468
    49   1 H        0.926     0.033     2.545     2.495
    50   1 H        0.926     0.032     2.558     2.501

molecular dipole:
                 x           y           z       tot (Debye)
 q only:        0.056       0.135      -0.623
   full:       -0.050      -0.103      -0.839       2.152

 projected vibrational frequencies (cm⁻¹)
eigval :       -0.00    -0.00    -0.00     0.00     0.00     0.00
eigval :       11.44    14.66    30.07    32.39    39.74    50.94
eigval :       65.73    82.26   127.86   133.82   161.97   171.31
eigval :      187.15   208.57   220.55   244.68   251.92   259.19
eigval :      264.79   290.57   297.58   312.84   319.10   338.01
eigval :      356.15   369.92   376.36   379.16   386.62   395.91
eigval :      413.28   415.39   450.24   469.20   497.63   512.14
eigval :      537.57   544.20   566.61   584.72   598.75   608.58
eigval :      611.87   627.88   645.45   684.13   694.46   728.66
eigval :      740.79   755.38   767.59   802.41   804.99   806.81
eigval :      825.17   828.54   855.48   856.47   858.91   894.88
eigval :      897.38   904.14   908.63   918.60   921.73   947.77
eigval :      951.23   958.96   960.35   979.47  1001.98  1008.99
eigval :     1012.17  1044.08  1093.56  1105.99  1125.33  1128.45
eigval :     1140.98  1144.02  1144.19  1172.11  1181.16  1184.39
eigval :     1188.85  1192.88  1206.31  1215.67  1236.37  1238.57
eigval :     1262.84  1272.51  1278.42  1282.63  1282.82  1308.06
eigval :     1321.16  1330.21  1333.58  1353.21  1392.52  1392.74
eigval :     1407.90  1410.34  1414.08  1421.00  1438.03  1478.21
eigval :     1487.51  1494.72  1496.98  1497.89  1505.74  1507.00
eigval :     1510.96  1568.95  1581.55  1587.07  1598.12  1635.27
eigval :     2859.35  2883.30  3022.41  3024.20  3029.48  3034.82
eigval :     3039.44  3040.43  3044.83  3053.25  3056.58  3068.92
eigval :     3076.63  3080.13  3081.47  3093.02  3093.29  3094.41
eigval :     3105.54  3108.09  3110.48  3134.32  3169.96  3496.38

   temp. (K)  partition function   enthalpy   heat capacity  entropy
                                   cal/mol     cal/K/mol   cal/K/mol   J/K/mol
 298.15  VIB  0.630E+11            14076.056     88.205     86.376
         ROT  0.163E+08              888.752      2.981     35.982
         INT  0.103E+19            14964.809     91.186    122.358
         TR   0.618E+28             1481.254      4.968     43.385
         TOT                       16446.0625    96.1542   165.7429   693.4683

       T/K    H(0)-H(T)+PV         H(T)/Eh          T*S/Eh         G(T)/Eh
   ------------------------------------------------------------------------
    298.15    0.262085E-01    0.425199E+00    0.787498E-01    0.346449E+00
   ------------------------------------------------------------------------

         :::::::::::::::::::::::::::::::::::::::::::::::::::::
         ::                  THERMODYNAMIC                  ::
         :::::::::::::::::::::::::::::::::::::::::::::::::::::
         :: total free energy         -71.299003685317 Eh   ::
         ::.................................................::
         :: total energy              -71.645452895798 Eh   ::
         :: zero point energy           0.398990547017 Eh   ::
         :: G(RRHO) w/o ZPVE           -0.052541336536 Eh   ::
         :: G(RRHO) contrib.            0.346449210481 Eh   ::
         :::::::::::::::::::::::::::::::::::::::::::::::::::::

           -------------------------------------------------
          | TOTAL ENERGY              -71.645452895798 Eh   |
          | TOTAL ENTHALPY            -71.220253880017 Eh   |
          | TOTAL FREE ENERGY         -71.299003685317 Eh   |
          | GRADIENT NORM               0.000034053075 Eh/α |
          | HOMO-LUMO GAP               1.268943409640 eV   |
           -------------------------------------------------

 * finished run on 2025/08/30 at 13:36:17.547
