   * xtb version 6.7.1 (edcfbbe) compiled by 'albert@albert-system' on 2024-07-22

   ID    Z sym.   atoms
    1    6 C      1-7, 9-19, 21-26
    2    8 O      8, 20
    3    1 H      27-50

          program call               : xtb data2507/toluene/P4CzCN–BCz/P4CzCN–BCz_toluene_S0_crest.xyz --gfn 2 --gbsa toluene --ohess vtight --parallel 40 --molden --ceasefiles --namespace data2507/toluene/P4CzCN–BCz/P4CzCN–BCz_toluene_S0_finalOpt
      * Solvation model:               GBSA
        Solvent                        toluene
        Solvent mass                       9.2140E+01 g/mol
          :  Hamiltonian                  GFN2-xTB          :
 * total energy  :   -71.7577873 Eh     change       -0.6584315E-09 Eh
 * total energy  :   -71.7578219 Eh     change       -0.3458833E-04 Eh
 * total energy  :   -71.7578349 Eh     change       -0.1302889E-04 Eh
 * total energy  :   -71.7578388 Eh     change       -0.3895208E-05 Eh
 * total energy  :   -71.7578433 Eh     change       -0.4461090E-05 Eh
 * total energy  :   -71.7578432 Eh     change        0.1008485E-06 Eh
 * total energy  :   -71.7578470 Eh     change       -0.3842776E-05 Eh
 * total energy  :   -71.7578502 Eh     change       -0.3144179E-05 Eh
 * total energy  :   -71.7578532 Eh     change       -0.2972315E-05 Eh
 * total energy  :   -71.7578559 Eh     change       -0.2766471E-05 Eh
 * total energy  :   -71.7578878 Eh     change       -0.4443147E-06 Eh
 * total energy  :   -71.7578882 Eh     change       -0.3111493E-06 Eh
 * total energy  :   -71.7578886 Eh     change       -0.4823897E-06 Eh
 * total energy  :   -71.7578892 Eh     change       -0.5579319E-06 Eh
 * total energy  :   -71.7578897 Eh     change       -0.5228900E-06 Eh
 * total energy  :   -71.7578902 Eh     change       -0.5166308E-06 Eh
 * total energy  :   -71.7578905 Eh     change       -0.2658032E-06 Eh
 * total energy  :   -71.7578906 Eh     change       -0.1044564E-06 Eh
 * total energy  :   -71.7578907 Eh     change       -0.9194639E-07 Eh
   *** GEOMETRY OPTIMIZATION CONVERGED AFTER 30 ITERATIONS ***

 final structure:
================
50
 xtb: 6.7.1 (edcfbbe)
C           -7.54934264526151        2.17145222715080       -0.46930626547463
C           -6.64208113270682        1.72701710689154        0.39284329399874
C           -5.67565294227604        0.65675365137264        0.17390190961298
C           -5.54668687912233       -0.01900046819644       -1.04119768247917
C           -4.61445416704503       -1.02448746211882       -1.19779772034716
C           -3.78389513193138       -1.39331631338270       -0.14531687920868
C           -2.78568034417976       -2.51269657831513       -0.31756073262240
O           -1.65753323227700       -2.42756511392587        0.52929568608373
C           -0.74502393176367       -1.43090535863852        0.31383924984937
C            0.37611630906306       -1.44590758841642        1.14452662265426
C            1.36030089543585       -0.49320848223136        1.00429341864123
C            1.27030353585262        0.50611134535629        0.03602755967212
C            2.37687553718451        1.54696115446625       -0.04149101661847
C            2.19947151387701        2.48241131226877        1.16397841503006
C            2.31612292600494        2.39422040360337       -1.32154099426611
C            3.71881051756114        0.83002210794818       -0.04575580964255
C            4.79733848557592        1.21741734345679        0.73896092111171
C            6.00890153602582        0.55423402897155        0.67081036770773
C            6.17056912059347       -0.51987230303263       -0.19499064293965
O            7.38081528809288       -1.15184420417336       -0.23430046088106
C            5.10192599121863       -0.91517268505611       -0.99013217602845
C            3.89702545245141       -0.24436683330489       -0.91196706852761
C            0.14824745398073        0.51590683060397       -0.77646508288106
C           -0.85149222027569       -0.43689621679089       -0.64764680362932
C           -3.90695278404424       -0.73091293793928        1.06871949055294
C           -4.83330873531064        0.28142767332778        1.22226187342709
H           -8.22270564804875        2.97025658646817       -0.20825392587765
H           -7.66370188194922        1.76539275891482       -1.45981320738463
H           -6.58945436496240        2.18117047211946        1.37545769381995
H           -6.17655268333098        0.24712924808552       -1.87563298771246
H           -4.52692228334484       -1.53193068985977       -2.14868697589386
H           -2.47139896909091       -2.58538019164067       -1.36807611141999
H           -3.25597809462741       -3.46331701950185       -0.03670887661648
H            0.45212936666460       -2.22031446191230        1.89284179839026
H            2.22424966772632       -0.52977735646192        1.65211024514732
H            2.35875139752273        1.94921859463518        2.09786776427493
H            1.18404267108759        2.87469766450118        1.16634316426507
H            2.88778339310572        3.32233599879335        1.10868485357258
H            2.31792321213653        1.76354207375364       -2.20714587785225
H            1.42791020185825        3.02148768009974       -1.33011387261064
H            3.19006901029967        3.04176026577979       -1.36456630780003
H            4.70882176533383        2.04636228003126        1.42241560096091
H            6.84268578834229        0.85771090348928        1.28531809995753
H            7.34649750586055       -1.87359939751032       -0.87589643762826
H            5.21545830242134       -1.75004502360023       -1.66951099130457
H            3.07382273050926       -0.57015945736071       -1.53139579772495
H            0.02651937432840        1.27247384643066       -1.53515692774976
H           -1.71114582307621       -0.38196922881731       -1.29708879377219
H           -3.26514913520325       -1.01035363842781        1.89205121458639
H           -4.91123011209171        0.78897137649568        2.17357488668320

          :  Hamiltonian                  GFN2-xTB          :
         :: gradient norm              0.000041937725 Eh/a0 ::
         :: HOMO-LUMO gap              3.202424824585 eV    ::
         :: SCC energy               -72.963277296339 Eh    ::
         :: -> dispersion             -0.055423616933 Eh    ::
         :: -> Gsolv                  -0.029924713227 Eh    ::
         :: repulsion energy           1.205386594504 Eh    ::

    * Orbital Energies and Occupations

         #    Occupation            Energy/Eh            Energy/eV
      -------------------------------------------------------------
         1        2.0000           -0.7148897             -19.4531
       ...           ...                  ...                  ...
        54        2.0000           -0.4333964             -11.7933
        55        2.0000           -0.4287145             -11.6659
        56        2.0000           -0.4264246             -11.6036
        57        2.0000           -0.4210025             -11.4561
        58        2.0000           -0.4206778             -11.4472
        59        2.0000           -0.4149572             -11.2916
        60        2.0000           -0.4092306             -11.1357
        61        2.0000           -0.4078487             -11.0981
        62        2.0000           -0.4028062             -10.9609
        63        2.0000           -0.4011328             -10.9154
        64        2.0000           -0.3836198             -10.4388
        65        2.0000           -0.3783972             -10.2967
        66        2.0000           -0.3712615             -10.1025 (HOMO)
        67                         -0.2535745              -6.9001 (LUMO)
        68                         -0.2253785              -6.1329
        69                         -0.2219361              -6.0392
        70                         -0.2185309              -5.9465
        71                         -0.2121931              -5.7741
        72                         -0.2086557              -5.6778
        73                         -0.1754870              -4.7752
        74                         -0.0881461              -2.3986
        75                         -0.0877324              -2.3873
        76                         -0.0821968              -2.2367
        77                          0.0250846               0.6826
       ...                                ...                  ...
       128                          0.6811065              18.5339
      -------------------------------------------------------------
                  HL-Gap            0.1176870 Eh            3.2024 eV

     #   Z          covCN         q      C6AA      α(0)
     1   6 C        2.837    -0.086    30.149     8.998
     2   6 C        2.895    -0.031    28.773     8.795
     3   6 C        2.970     0.013    27.728     8.637
     4   6 C        2.923    -0.033    28.826     8.805
     5   6 C        2.921    -0.041    29.014     8.833
     6   6 C        2.968    -0.002    28.065     8.690
     7   6 C        3.697     0.079    19.422     6.304
     8   8 O        1.705    -0.297    18.937     5.875
     9   6 C        2.862     0.138    24.993     8.194
    10   6 C        2.919    -0.058    29.440     8.898
    11   6 C        2.927    -0.036    28.891     8.815
    12   6 C        2.977     0.001    28.003     8.680
    13   6 C        3.909     0.018    20.211     6.390
    14   6 C        3.762    -0.104    22.535     6.767
    15   6 C        3.762    -0.104    22.531     6.766
    16   6 C        2.978     0.001    27.998     8.680
    17   6 C        2.925    -0.040    28.997     8.831
    18   6 C        2.918    -0.058    29.450     8.899
    19   6 C        2.846     0.138    24.975     8.190
    20   8 O        1.659    -0.415    21.150     6.208
    21   6 C        2.917    -0.072    29.786     8.950
    22   6 C        2.928    -0.036    28.899     8.816
    23   6 C        2.926    -0.042    29.032     8.836
    24   6 C        2.917    -0.069    29.709     8.938
    25   6 C        2.920    -0.031    28.778     8.797
    26   6 C        2.928    -0.035    28.869     8.811
    27   1 H        0.926     0.039     2.460     2.453
    28   1 H        0.926     0.041     2.429     2.437
    29   1 H        0.925     0.036     2.505     2.475
    30   1 H        0.926     0.042     2.424     2.435
    31   1 H        0.925     0.032     2.557     2.501
    32   1 H        0.923     0.036     2.498     2.472
    33   1 H        0.924     0.059     2.216     2.328
    34   1 H        0.926     0.038     2.473     2.459
    35   1 H        0.926     0.034     2.532     2.488
    36   1 H        0.925     0.039     2.465     2.455
    37   1 H        0.925     0.038     2.480     2.463
    38   1 H        0.925     0.044     2.400     2.423
    39   1 H        0.925     0.038     2.472     2.459
    40   1 H        0.925     0.043     2.407     2.426
    41   1 H        0.925     0.038     2.472     2.459
    42   1 H        0.926     0.045     2.381     2.413
    43   1 H        0.926     0.041     2.432     2.439
    44   1 H        0.805     0.309     0.694     1.309
    45   1 H        0.925     0.030     2.580     2.512
    46   1 H        0.926     0.032     2.563     2.503
    47   1 H        0.926     0.042     2.417     2.431
    48   1 H        0.926     0.033     2.541     2.493
    49   1 H        0.926     0.035     2.510     2.478
    50   1 H        0.926     0.035     2.511     2.478

molecular dipole:
                 x           y           z       tot (Debye)
 q only:       -0.633       0.312      -0.630
   full:       -0.723       0.074      -0.854       2.850

 projected vibrational frequencies (cm⁻¹)
eigval :       -0.00     0.00     0.00     0.00     0.00     0.00
eigval :       11.77    15.63    25.06    33.07    37.93    50.22
eigval :       66.45    81.80   102.56   129.54   160.15   174.81
eigval :      204.18   212.82   243.56   258.86   263.76   285.62
eigval :      292.47   298.31   319.43   325.88   343.45   366.91
eigval :      369.91   379.67   383.44   395.35   409.85   414.82
eigval :      439.69   454.93   472.89   501.04   515.21   538.97
eigval :      546.32   575.36   605.60   611.63   614.48   630.84
eigval :      646.78   684.06   694.31   696.91   737.62   755.78
eigval :      804.29   805.61   807.52   824.00   853.35   856.77
eigval :      860.34   862.22   865.34   892.16   899.13   902.90
eigval :      911.21   918.56   924.42   926.19   953.57   960.20
eigval :      981.35  1003.07  1005.98  1009.79  1011.60  1012.49
eigval :     1033.48  1062.06  1107.62  1126.51  1129.45  1144.42
eigval :     1145.57  1148.29  1177.73  1190.82  1194.14  1196.80
eigval :     1201.98  1214.68  1235.52  1239.94  1250.00  1267.23
eigval :     1272.47  1279.26  1283.19  1284.77  1297.06  1322.24
eigval :     1331.88  1334.62  1339.23  1392.96  1408.54  1409.97
eigval :     1410.93  1416.93  1420.98  1447.62  1483.65  1488.81
eigval :     1490.53  1496.53  1498.39  1506.48  1507.09  1571.57
eigval :     1577.80  1585.48  1599.50  1608.79  1610.57  1673.58
eigval :     2881.05  2923.41  3021.23  3022.95  3028.57  3033.91
eigval :     3038.85  3040.06  3040.19  3052.11  3065.20  3068.18
eigval :     3075.44  3079.64  3083.63  3092.07  3092.45  3095.48
eigval :     3096.12  3107.79  3108.17  3109.51  3126.96  3498.35

   temp. (K)  partition function   enthalpy   heat capacity  entropy
                                   cal/mol     cal/K/mol   cal/K/mol   J/K/mol
 298.15  VIB  0.418E+11            13560.654     85.050     83.566
         ROT  0.163E+08              888.752      2.981     35.986
         INT  0.682E+18            14449.407     88.030    119.552
         TR   0.618E+28             1481.254      4.968     43.385
         TOT                       15930.6607    92.9986   162.9365   681.7265

       T/K    H(0)-H(T)+PV         H(T)/Eh          T*S/Eh         G(T)/Eh
   ------------------------------------------------------------------------
    298.15    0.253871E-01    0.429604E+00    0.774164E-01    0.352188E+00
   ------------------------------------------------------------------------

         :::::::::::::::::::::::::::::::::::::::::::::::::::::
         ::                  THERMODYNAMIC                  ::
         :::::::::::::::::::::::::::::::::::::::::::::::::::::
         :: total free energy         -71.405703034735 Eh   ::
         ::.................................................::
         :: total energy              -71.757890699139 Eh   ::
         :: zero point energy           0.404216949241 Eh   ::
         :: G(RRHO) w/o ZPVE           -0.052029284836 Eh   ::
         :: G(RRHO) contrib.            0.352187664404 Eh   ::
         :::::::::::::::::::::::::::::::::::::::::::::::::::::

           -------------------------------------------------
          | TOTAL ENERGY              -71.757890699139 Eh   |
          | TOTAL ENTHALPY            -71.328286626041 Eh   |
          | TOTAL FREE ENERGY         -71.405703034735 Eh   |
          | GRADIENT NORM               0.000041930210 Eh/α |
          | HOMO-LUMO GAP               3.202425297591 eV   |
           -------------------------------------------------

 * finished run on 2025/08/30 at 13:36:14.979
