   * xtb version 6.7.1 (edcfbbe) compiled by 'albert@albert-system' on 2024-07-22

   ID    Z sym.   atoms
    1    6 C      1-7, 9-19, 21-26
    2    8 O      8, 20
    3    1 H      27-50

          program call               : xtb data2507/toluene/P4CzCN–BCz/P4CzCN–BCz_toluene_T1_crest.xyz --gfn 2 --uhf 2 --gbsa toluene --ohess vtight --parallel 40 --molden --ceasefiles --namespace data2507/toluene/P4CzCN–BCz/P4CzCN–BCz_toluene_T1_finalOpt
      * Solvation model:               GBSA
        Solvent                        toluene
        Solvent mass                       9.2140E+01 g/mol
          :  Hamiltonian                  GFN2-xTB          :
 * total energy  :   -71.6472262 Eh     change       -0.3474412E-08 Eh
 * total energy  :   -71.6472614 Eh     change       -0.3510754E-04 Eh
 * total energy  :   -71.6472731 Eh     change       -0.1176056E-04 Eh
 * total energy  :   -71.6472755 Eh     change       -0.2391891E-05 Eh
 * total energy  :   -71.6472755 Eh     change       -0.1797034E-07 Eh
 * total energy  :   -71.6472774 Eh     change       -0.1889599E-05 Eh
 * total energy  :   -71.6472789 Eh     change       -0.1454819E-05 Eh
 * total energy  :   -71.6472802 Eh     change       -0.1306670E-05 Eh
 * total energy  :   -71.6472816 Eh     change       -0.1437641E-05 Eh
 * total energy  :   -71.6472831 Eh     change       -0.1459496E-05 Eh
 * total energy  :   -71.6472867 Eh     change       -0.7282510E-06 Eh
 * total energy  :   -71.6472873 Eh     change       -0.5992808E-06 Eh
 * total energy  :   -71.6472879 Eh     change       -0.5453021E-06 Eh
 * total energy  :   -71.6472883 Eh     change       -0.3839578E-06 Eh
 * total energy  :   -71.6472886 Eh     change       -0.3255873E-06 Eh
 * total energy  :   -71.6472890 Eh     change       -0.3737656E-06 Eh
 * total energy  :   -71.6472894 Eh     change       -0.4690824E-06 Eh
 * total energy  :   -71.6472900 Eh     change       -0.5406406E-06 Eh
 * total energy  :   -71.6472900 Eh     change       -0.1056401E-07 Eh
   *** GEOMETRY OPTIMIZATION CONVERGED AFTER 22 ITERATIONS ***

 final structure:
================
50
 xtb: 6.7.1 (edcfbbe)
C           -7.48635135619333        2.20515846755790       -0.60341528901518
C           -6.58406170115088        1.71592812500710        0.39863982078821
C           -5.65750991945414        0.69107199686183        0.22404242828896
C           -5.52254099069432        0.01828323071411       -1.02126636193737
C           -4.61007700056317       -0.99056363764929       -1.18503781510414
C           -3.78572583398706       -1.39144463572973       -0.12964065559521
C           -2.80434526609493       -2.51983990135212       -0.31490025733224
O           -1.66394367467763       -2.44930556803049        0.51867669849204
C           -0.75247508741846       -1.45158716222620        0.30550396782745
C            0.37614078267827       -1.47603243708046        1.12579641034088
C            1.35858681318378       -0.52099534497820        0.98842501047413
C            1.25954130021697        0.48974706161226        0.03312098230281
C            2.36061810030604        1.53685676118431       -0.03806906440725
C            2.17419387991386        2.46544377458827        1.17138679003055
C            2.29681721758613        2.38931225502299       -1.31466363230684
C            3.70775079628980        0.82997527803899       -0.04310279196820
C            4.78019941619248        1.21886430251091        0.74920937628348
C            5.99770132814964        0.56687659811656        0.67895027568236
C            6.17174828095487       -0.49697050807015       -0.19701732159801
O            7.38798666322345       -1.11720776079412       -0.23903337121590
C            5.10905471727415       -0.89419563919523       -0.99917953962065
C            3.89798576618162       -0.23485138937744       -0.91854445977823
C            0.13088641189552        0.50786307092587       -0.77016659364000
C           -0.86702524336455       -0.44703903308569       -0.64412152617048
C           -3.90638311337654       -0.74673644629086        1.10316287886076
C           -4.80874021115474        0.26980011712775        1.28224801138794
H           -7.22768673220996        3.04695647368172       -1.22337140336135
H           -8.48027199421776        1.80249191871864       -0.70272892002635
H           -6.62504935848342        2.17998619083490        1.38364458454965
H           -6.15843345689946        0.32662151035155       -1.83843422668037
H           -4.52114426031283       -1.48700229145069       -2.14200490919682
H           -2.50308166651214       -2.59497783694621       -1.36939917136378
H           -3.27836408401251       -3.46816801725347       -0.02963761991613
H            0.45883474466342       -2.25896465755409        1.86450355398148
H            2.22766836496468       -0.56406649045286        1.62897785633790
H            2.33478634245065        1.92856298198764        2.10298063672913
H            1.15604069981513        2.85061670410920        1.17333076401097
H            2.85688887201986        3.31030905917967        1.12166714022738
H            2.29710286483669        1.76212876705484       -2.20274713951967
H            1.40823287266547        3.01603300620024       -1.31911714295951
H            3.17024523506474        3.03761301602272       -1.35683166546863
H            4.68215257647032        2.04032903178459        1.44032980760013
H            6.82667931756305        0.87143654135437        1.29940092117108
H            7.36242747030412       -1.83261390696619       -0.88809419171856
H            5.23227333617627       -1.72136744337203       -1.68624695490935
H            3.07958559018700       -0.56202309178919       -1.54357544558523
H            0.00219471955285        1.27335850286770       -1.51869090773078
H           -1.73244251133267       -0.38540259673020       -1.28525119034791
H           -3.26870291672723       -1.05749695156112        1.91896629596490
H           -4.88707266594600        0.76123778271819        2.24130548604074

          :  Hamiltonian                  GFN2-xTB          :
         :: gradient norm              0.000060206156 Eh/a0 ::
         :: HOMO-LUMO gap              2.548779509497 eV    ::
         :: SCC energy               -72.830191833047 Eh    ::
         :: -> dispersion             -0.055401451553 Eh    ::
         :: -> Gsolv                  -0.030017970579 Eh    ::
         :: repulsion energy           1.182901851449 Eh    ::

    * Orbital Energies and Occupations

         #    Occupation            Energy/Eh            Energy/eV
      -------------------------------------------------------------
         1        2.0000           -0.7141440             -19.4328
       ...           ...                  ...                  ...
        55        2.0000           -0.4282795             -11.6541
        56        2.0000           -0.4213118             -11.4645
        57        2.0000           -0.4195779             -11.4173
        58        2.0000           -0.4146185             -11.2823
        59        2.0000           -0.4126836             -11.2297
        60        2.0000           -0.4077915             -11.0966
        61        2.0000           -0.4073172             -11.0837
        62        2.0000           -0.4025593             -10.9542
        63        2.0000           -0.4006709             -10.9028
        64        2.0000           -0.3781516             -10.2900
        65        2.0000           -0.3708953             -10.0926
        66        1.0000           -0.3174644              -8.6386
        67        1.0000           -0.3156945              -8.5905 (HOMO)
        68                         -0.2220285              -6.0417 (LUMO)
        69                         -0.2208317              -6.0091
        70                         -0.2182080              -5.9377
        71                         -0.2118716              -5.7653
        72                         -0.2084279              -5.6716
        73                         -0.1982556              -5.3948
        74                         -0.0882258              -2.4007
        75                         -0.0878004              -2.3892
        76                         -0.0872597              -2.3745
        77                          0.0254952               0.6938
        78                          0.0613800               1.6702
       ...                                ...                  ...
       128                          0.6739808              18.3400
      -------------------------------------------------------------
                  HL-Gap            0.0936660 Eh            2.5488 eV

     #   Z          covCN         q      C6AA      α(0)
     1   6 C        2.834    -0.106    30.662     9.074
     2   6 C        2.900    -0.035    28.881     8.812
     3   6 C        2.965     0.015    27.668     8.628
     4   6 C        2.921    -0.037    28.910     8.817
     5   6 C        2.915    -0.039    28.972     8.826
     6   6 C        2.967    -0.006    28.175     8.707
     7   6 C        3.696     0.080    19.409     6.302
     8   8 O        1.704    -0.298    18.952     5.878
     9   6 C        2.862     0.138    24.987     8.193
    10   6 C        2.919    -0.058    29.442     8.898
    11   6 C        2.927    -0.036    28.894     8.815
    12   6 C        2.977     0.001    28.007     8.681
    13   6 C        3.909     0.018    20.212     6.390
    14   6 C        3.762    -0.104    22.535     6.767
    15   6 C        3.762    -0.104    22.531     6.766
    16   6 C        2.978     0.001    27.998     8.679
    17   6 C        2.925    -0.040    28.998     8.831
    18   6 C        2.918    -0.058    29.451     8.899
    19   6 C        2.846     0.138    24.975     8.190
    20   8 O        1.659    -0.415    21.151     6.208
    21   6 C        2.917    -0.072    29.786     8.950
    22   6 C        2.927    -0.036    28.897     8.816
    23   6 C        2.926    -0.042    29.033     8.836
    24   6 C        2.917    -0.069    29.707     8.938
    25   6 C        2.915    -0.030    28.746     8.792
    26   6 C        2.921    -0.040    28.988     8.829
    27   1 H        0.926     0.053     2.277     2.360
    28   1 H        0.926     0.053     2.279     2.361
    29   1 H        0.925     0.052     2.290     2.366
    30   1 H        0.926     0.038     2.471     2.458
    31   1 H        0.925     0.030     2.588     2.516
    32   1 H        0.923     0.036     2.509     2.477
    33   1 H        0.924     0.058     2.223     2.331
    34   1 H        0.926     0.038     2.477     2.461
    35   1 H        0.926     0.034     2.535     2.490
    36   1 H        0.925     0.039     2.467     2.456
    37   1 H        0.925     0.038     2.480     2.463
    38   1 H        0.925     0.044     2.399     2.422
    39   1 H        0.925     0.038     2.472     2.459
    40   1 H        0.925     0.043     2.406     2.426
    41   1 H        0.925     0.038     2.473     2.459
    42   1 H        0.926     0.045     2.381     2.413
    43   1 H        0.926     0.041     2.432     2.439
    44   1 H        0.805     0.309     0.694     1.309
    45   1 H        0.925     0.030     2.581     2.512
    46   1 H        0.926     0.032     2.562     2.503
    47   1 H        0.926     0.042     2.418     2.432
    48   1 H        0.926     0.034     2.534     2.490
    49   1 H        0.926     0.033     2.537     2.491
    50   1 H        0.926     0.033     2.539     2.492

molecular dipole:
                 x           y           z       tot (Debye)
 q only:       -0.754       0.439      -0.605
   full:       -0.862       0.225      -0.818       3.073

 projected vibrational frequencies (cm⁻¹)
eigval :       -0.00    -0.00    -0.00    -0.00     0.00     0.00
eigval :       11.97    15.49    28.89    33.79    43.08    62.44
eigval :       76.20    83.99   127.20   148.21   161.59   173.94
eigval :      191.07   200.54   220.02   241.79   259.32   264.28
eigval :      289.93   295.97   308.58   319.45   326.89   338.84
eigval :      369.00   371.45   374.64   379.31   383.11   395.49
eigval :      409.49   416.95   451.49   461.30   475.89   509.31
eigval :      523.70   540.82   547.62   579.55   602.16   611.71
eigval :      626.99   643.10   646.92   658.59   683.93   694.71
eigval :      748.53   762.99   794.52   804.67   813.99   823.93
eigval :      839.27   856.98   860.92   861.60   867.50   898.87
eigval :      907.51   909.66   911.20   922.41   922.72   925.21
eigval :      953.30   960.16   977.00   992.96  1005.43  1009.88
eigval :     1012.98  1056.07  1107.93  1126.45  1129.31  1130.70
eigval :     1144.54  1145.26  1145.78  1173.85  1177.48  1190.61
eigval :     1191.94  1196.19  1211.82  1223.50  1238.06  1241.53
eigval :     1266.43  1272.89  1279.97  1283.86  1285.24  1305.28
eigval :     1331.67  1334.57  1347.48  1348.30  1385.96  1392.89
eigval :     1408.40  1410.89  1419.84  1421.12  1446.89  1461.76
eigval :     1483.55  1488.83  1496.39  1498.68  1506.26  1507.12
eigval :     1511.24  1573.77  1577.58  1585.43  1608.56  1610.58
eigval :     2875.43  2911.84  2925.39  3021.55  3023.46  3028.66
eigval :     3034.05  3038.80  3039.94  3053.06  3059.51  3068.65
eigval :     3069.42  3075.11  3077.07  3079.13  3081.60  3084.18
eigval :     3092.02  3092.50  3095.81  3108.12  3110.42  3498.50

   temp. (K)  partition function   enthalpy   heat capacity  entropy
                                   cal/mol     cal/K/mol   cal/K/mol   J/K/mol
 298.15  VIB  0.329E+11            13972.512     88.297     85.435
         ROT  0.163E+08              888.752      2.981     35.982
         INT  0.536E+18            14861.264     91.278    121.416
         TR   0.618E+28             1481.254      4.968     43.385
         TOT                       16342.5178    96.2458   164.8013   689.5287

       T/K    H(0)-H(T)+PV         H(T)/Eh          T*S/Eh         G(T)/Eh
   ------------------------------------------------------------------------
    298.15    0.260435E-01    0.425068E+00    0.783024E-01    0.346766E+00
   ------------------------------------------------------------------------

         :::::::::::::::::::::::::::::::::::::::::::::::::::::
         ::                  THERMODYNAMIC                  ::
         :::::::::::::::::::::::::::::::::::::::::::::::::::::
         :: total free energy         -71.300524236953 Eh   ::
         ::.................................................::
         :: total energy              -71.647289977675 Eh   ::
         :: zero point energy           0.399024706697 Eh   ::
         :: G(RRHO) w/o ZPVE           -0.052258965975 Eh   ::
         :: G(RRHO) contrib.            0.346765740722 Eh   ::
         :::::::::::::::::::::::::::::::::::::::::::::::::::::

           -------------------------------------------------
          | TOTAL ENERGY              -71.647289977675 Eh   |
          | TOTAL ENTHALPY            -71.222221811052 Eh   |
          | TOTAL FREE ENERGY         -71.300524236953 Eh   |
          | GRADIENT NORM               0.000060181172 Eh/α |
          | HOMO-LUMO GAP               2.548780540295 eV   |
           -------------------------------------------------

 * finished run on 2025/08/30 at 13:38:58.207
