   * xtb version 6.7.1 (edcfbbe) compiled by 'albert@albert-system' on 2024-07-22

   ID    Z sym.   atoms
    1    6 C      1-7, 9-19, 21-26
    2    8 O      8, 20
    3    1 H      27-50

          program call               : xtb data2507/toluene/P4CzCN–BCz/P4CzCN–BCz.xyz --gfn 2 --gbsa toluene --ohess vtight --parallel 40 --molden --ceasefiles --namespace data2507/toluene/P4CzCN–BCz/P4CzCN–BCz_toluene_S0_preOpt
      * Solvation model:               GBSA
        Solvent                        toluene
        Solvent mass                       9.2140E+01 g/mol
          :  Hamiltonian                  GFN2-xTB          :
 * total energy  :   -71.7466808 Eh     change       -0.7545538E-09 Eh
 * total energy  :   -71.7531402 Eh     change       -0.6459442E-02 Eh
 * total energy  :   -71.7542495 Eh     change       -0.1109231E-02 Eh
 * total energy  :   -71.7545902 Eh     change       -0.3407659E-03 Eh
 * total energy  :   -71.7549112 Eh     change       -0.3209216E-03 Eh
 * total energy  :   -71.7550322 Eh     change       -0.1209895E-03 Eh
 * total energy  :   -71.7551248 Eh     change       -0.9267674E-04 Eh
 * total energy  :   -71.7552145 Eh     change       -0.8968322E-04 Eh
 * total energy  :   -71.7553114 Eh     change       -0.9685159E-04 Eh
 * total energy  :   -71.7554120 Eh     change       -0.1006086E-03 Eh
 * total energy  :   -71.7555821 Eh     change       -0.5103261E-06 Eh
 * total energy  :   -71.7555828 Eh     change       -0.6713556E-06 Eh
 * total energy  :   -71.7555831 Eh     change       -0.3007173E-06 Eh
 * total energy  :   -71.7555834 Eh     change       -0.3150536E-06 Eh
 * total energy  :   -71.7555836 Eh     change       -0.2425690E-06 Eh
 * total energy  :   -71.7555838 Eh     change       -0.2275312E-06 Eh
 * total energy  :   -71.7555841 Eh     change       -0.2853712E-06 Eh
 * total energy  :   -71.7555843 Eh     change       -0.1699036E-06 Eh
 * total energy  :   -71.7555844 Eh     change       -0.7828604E-07 Eh
   *** GEOMETRY OPTIMIZATION CONVERGED AFTER 34 ITERATIONS ***

 final structure:
================
50
 xtb: 6.7.1 (edcfbbe)
C           -9.22848360521847       -0.69321204989558       -0.42980260218147
C           -8.06984791884501       -1.33815873340016       -0.35766112674477
C           -6.75631951968321       -0.74766850262672       -0.12469177213984
C           -5.66935481004162       -1.58923628947573        0.12276027219004
C           -4.40963036552226       -1.07796322803791        0.36065487756619
C           -4.19155286693422        0.29439861346800        0.34235632981447
C           -2.81509226086915        0.84443528383387        0.60486086916713
O           -1.88549507296583        0.12968005622324       -0.19065649689241
C           -0.56186857421015        0.45215928440843       -0.10261882236380
C           -0.02634016345324        1.43762585424247        0.71442427570255
C            1.34070051148194        1.67522690333664        0.71513379665100
C            2.20506942577570        0.94497230325015       -0.08353486459587
C            3.70410036932808        1.19411046943648       -0.15043740502940
C            4.21783161480702        2.07912166511463        0.99547307994038
C            3.98013683653491        1.91646887502037       -1.47800939481929
C            4.42619114726912       -0.14021649412139       -0.03807946143586
C            4.04797025116949       -1.02072740218060        0.97358027772481
C            4.68735404183019       -2.22887900009526        1.15631456343204
C            5.73902401973511       -2.59034125449496        0.32008183264840
O            6.35178155795502       -3.79350889019454        0.52547634754234
C            6.12923468699680       -1.72237676978901       -0.68907032594026
C            5.47876376097866       -0.51173012311609       -0.86142790070734
C            1.65398718515598       -0.04204113942437       -0.90040414149622
C            0.29981351486904       -0.28902028464036       -0.91328045814515
C           -5.26301178620850        1.13943188339593        0.08310124684635
C           -6.52620428366078        0.62846085884131       -0.14235369901734
H          -10.15178197557224       -1.22039701277557       -0.60087201883008
H           -9.30991176836203        0.37449585066308       -0.31764414132577
H           -8.06378604920756       -2.41679132779849       -0.46217203429842
H           -5.82041787563588       -2.65965666611078        0.13604801167378
H           -3.57899711138149       -1.74169113433071        0.55044978099995
H           -2.56569355112505        0.72037644481883        1.67100638748662
H           -2.78137863209498        1.91480365555631        0.36029495753011
H           -0.65693391648721        2.03247698948676        1.35706673125285
H            1.71571667173254        2.45120201401499        1.36332203445261
H            3.93899709597439        1.66613468269758        1.96170027461317
H            3.82696957818461        3.09032877831973        0.91066655557137
H            5.30418909231214        2.13010450210446        0.94982232217157
H            3.74734952070279        1.27661088220930       -2.32549988654756
H            3.35230100636996        2.80349469857979       -1.54077518533592
H            5.01892264112848        2.23173696364590       -1.54069905399424
H            3.22828653413378       -0.75752303370725        1.62623703189908
H            4.38783056485036       -2.90698388989549        1.94063451866438
H            7.05833456503748       -3.91042651189747       -0.12340386502019
H            6.94624936471144       -1.99325103496723       -1.34543155505301
H            5.81076366004264        0.13626163910268       -1.65662248488925
H            2.30229434558674       -0.63390677605547       -1.53016502163959
H           -0.12236037658790       -1.05503840119874       -1.54578696970154
H           -5.10689673150145        2.20876329173300        0.05727936206883
H           -7.33880434908529        1.30786350672343       -0.34764404946465

          :  Hamiltonian                  GFN2-xTB          :
         :: gradient norm              0.000036785208 Eh/a0 ::
         :: HOMO-LUMO gap              3.218695326405 eV    ::
         :: SCC energy               -72.960832961270 Eh    ::
         :: -> dispersion             -0.053730564943 Eh    ::
         :: -> Gsolv                  -0.030815439176 Eh    ::
         :: repulsion energy           1.205248590248 Eh    ::

    * Orbital Energies and Occupations

         #    Occupation            Energy/Eh            Energy/eV
      -------------------------------------------------------------
         1        2.0000           -0.7142226             -19.4350
       ...           ...                  ...                  ...
        54        2.0000           -0.4309710             -11.7273
        55        2.0000           -0.4305143             -11.7149
        56        2.0000           -0.4251472             -11.5688
        57        2.0000           -0.4216026             -11.4724
        58        2.0000           -0.4191747             -11.4063
        59        2.0000           -0.4147589             -11.2862
        60        2.0000           -0.4101872             -11.1618
        61        2.0000           -0.4065213             -11.0620
        62        2.0000           -0.4031518             -10.9703
        63        2.0000           -0.4013615             -10.9216
        64        2.0000           -0.3841901             -10.4543
        65        2.0000           -0.3783674             -10.2959
        66        2.0000           -0.3711292             -10.0989 (HOMO)
        67                         -0.2528443              -6.8802 (LUMO)
        68                         -0.2237850              -6.0895
        69                         -0.2223412              -6.0502
        70                         -0.2189005              -5.9566
        71                         -0.2123260              -5.7777
        72                         -0.2089348              -5.6854
        73                         -0.1758220              -4.7844
        74                         -0.0884356              -2.4065
        75                         -0.0880026              -2.3947
        76                         -0.0824916              -2.2447
        77                          0.0258869               0.7044
       ...                                ...                  ...
       128                          0.6826154              18.5749
      -------------------------------------------------------------
                  HL-Gap            0.1182849 Eh            3.2187 eV

     #   Z          covCN         q      C6AA      α(0)
     1   6 C        2.837    -0.086    30.149     8.998
     2   6 C        2.895    -0.031    28.767     8.794
     3   6 C        2.970     0.014    27.703     8.633
     4   6 C        2.927    -0.035    28.867     8.811
     5   6 C        2.921    -0.030    28.755     8.794
     6   6 C        2.969     0.004    27.934     8.669
     7   6 C        3.696     0.085    19.334     6.290
     8   8 O        1.705    -0.296    18.931     5.874
     9   6 C        2.862     0.137    25.014     8.198
    10   6 C        2.917    -0.071    29.773     8.948
    11   6 C        2.925    -0.042    29.033     8.836
    12   6 C        2.977     0.001    28.010     8.681
    13   6 C        3.909     0.018    20.211     6.390
    14   6 C        3.762    -0.104    22.533     6.767
    15   6 C        3.762    -0.104    22.534     6.767
    16   6 C        2.978     0.001    28.000     8.680
    17   6 C        2.928    -0.036    28.890     8.815
    18   6 C        2.917    -0.057    29.412     8.893
    19   6 C        2.846     0.139    24.972     8.190
    20   8 O        1.659    -0.416    21.156     6.209
    21   6 C        2.918    -0.073    29.825     8.955
    22   6 C        2.924    -0.041    29.007     8.832
    23   6 C        2.927    -0.035    28.880     8.813
    24   6 C        2.919    -0.057    29.419     8.895
    25   6 C        2.921    -0.038    28.956     8.824
    26   6 C        2.923    -0.033    28.832     8.805
    27   1 H        0.926     0.040     2.452     2.449
    28   1 H        0.926     0.042     2.422     2.434
    29   1 H        0.925     0.037     2.489     2.467
    30   1 H        0.926     0.038     2.479     2.462
    31   1 H        0.926     0.040     2.449     2.447
    32   1 H        0.923     0.035     2.512     2.478
    33   1 H        0.923     0.033     2.542     2.493
    34   1 H        0.926     0.032     2.562     2.503
    35   1 H        0.926     0.043     2.408     2.427
    36   1 H        0.925     0.038     2.469     2.457
    37   1 H        0.925     0.043     2.405     2.425
    38   1 H        0.925     0.038     2.473     2.459
    39   1 H        0.925     0.039     2.466     2.456
    40   1 H        0.925     0.038     2.482     2.464
    41   1 H        0.925     0.044     2.400     2.422
    42   1 H        0.926     0.033     2.546     2.495
    43   1 H        0.926     0.040     2.452     2.449
    44   1 H        0.805     0.310     0.693     1.308
    45   1 H        0.925     0.032     2.559     2.502
    46   1 H        0.926     0.044     2.398     2.421
    47   1 H        0.926     0.034     2.531     2.488
    48   1 H        0.926     0.038     2.469     2.457
    49   1 H        0.926     0.035     2.517     2.481
    50   1 H        0.926     0.043     2.405     2.425

molecular dipole:
                 x           y           z       tot (Debye)
 q only:        0.070       0.665      -0.145
   full:        0.224       0.734      -0.179       2.003

 projected vibrational frequencies (cm⁻¹)
eigval :       -0.00    -0.00    -0.00     0.00     0.00     0.00
eigval :       13.24    23.36    27.33    38.29    42.78    54.32
eigval :       55.06    78.80   100.07   116.75   137.64   157.61
eigval :      179.78   207.25   222.62   257.09   264.83   282.67
eigval :      293.41   299.93   314.01   320.46   349.24   369.91
eigval :      371.91   379.67   381.20   394.85   406.17   413.82
eigval :      442.88   457.45   476.38   485.49   512.98   536.24
eigval :      542.75   562.44   606.34   610.43   612.96   621.94
eigval :      658.48   683.62   694.70   703.66   748.72   774.76
eigval :      803.85   811.99   813.28   842.11   861.55   862.47
eigval :      865.88   866.39   878.89   888.29   899.66   905.56
eigval :      912.10   923.97   924.51   925.89   953.91   959.18
eigval :      984.46  1004.32  1005.95  1009.79  1011.21  1013.31
eigval :     1035.67  1052.58  1111.55  1121.69  1130.10  1141.94
eigval :     1145.92  1148.95  1176.89  1189.47  1193.92  1195.89
eigval :     1196.31  1210.78  1233.05  1240.36  1250.95  1266.93
eigval :     1275.86  1277.67  1282.52  1286.73  1302.99  1324.15
eigval :     1333.24  1335.56  1340.00  1392.40  1407.77  1409.22
eigval :     1410.20  1416.02  1420.70  1466.15  1484.46  1489.65
eigval :     1491.94  1496.49  1499.62  1506.50  1508.41  1572.85
eigval :     1576.69  1585.82  1600.15  1608.74  1611.04  1673.85
eigval :     2840.04  2891.79  3020.95  3022.92  3028.22  3033.75
eigval :     3039.54  3040.26  3040.97  3053.51  3068.45  3068.65
eigval :     3076.14  3078.20  3087.60  3090.11  3094.82  3096.96
eigval :     3096.99  3106.36  3106.78  3107.15  3126.72  3497.00

   temp. (K)  partition function   enthalpy   heat capacity  entropy
                                   cal/mol     cal/K/mol   cal/K/mol   J/K/mol
 298.15  VIB  0.316E+11            13652.288     85.213     84.389
         ROT  0.203E+08              888.752      2.981     36.418
         INT  0.641E+18            14541.040     88.194    120.807
         TR   0.618E+28             1481.254      4.968     43.385
         TOT                       16022.2941    93.1623   164.1918   686.9783

       T/K    H(0)-H(T)+PV         H(T)/Eh          T*S/Eh         G(T)/Eh
   ------------------------------------------------------------------------
    298.15    0.255332E-01    0.429587E+00    0.780128E-01    0.351574E+00
   ------------------------------------------------------------------------

         :::::::::::::::::::::::::::::::::::::::::::::::::::::
         ::                  THERMODYNAMIC                  ::
         :::::::::::::::::::::::::::::::::::::::::::::::::::::
         :: total free energy         -71.404010432220 Eh   ::
         ::.................................................::
         :: total energy              -71.755584370497 Eh   ::
         :: zero point energy           0.404053591471 Eh   ::
         :: G(RRHO) w/o ZPVE           -0.052479653194 Eh   ::
         :: G(RRHO) contrib.            0.351573938276 Eh   ::
         :::::::::::::::::::::::::::::::::::::::::::::::::::::

           -------------------------------------------------
          | TOTAL ENERGY              -71.755584370497 Eh   |
          | TOTAL ENTHALPY            -71.325997628132 Eh   |
          | TOTAL FREE ENERGY         -71.404010432220 Eh   |
          | GRADIENT NORM               0.000036800086 Eh/α |
          | HOMO-LUMO GAP               3.218695813867 eV   |
           -------------------------------------------------

 * finished run on 2025/08/30 at 13:33:27.452
