   * xtb version 6.7.1 (edcfbbe) compiled by 'albert@albert-system' on 2024-07-22

   ID    Z sym.   atoms
    1    6 C      1-8, 10-17, 19-30, 32-39, 41-50, 52
    2    7 N      9, 31, 51
    3    8 O      18, 40
    4    1 H      53-79

          program call               : xtb data2507/gas/2BFCzPy/2BFCzPy_gas_S0_crest.xyz --gfn 2 --ohess vtight --parallel 40 --molden --ceasefiles --namespace data2507/gas/2BFCzPy/2BFCzPy_gas_S0_finalOpt
          :  Hamiltonian                  GFN2-xTB          :
 * total energy  :  -131.4520286 Eh     change       -0.6693313E-08 Eh
 * total energy  :  -131.4520297 Eh     change       -0.1085842E-05 Eh
 * total energy  :  -131.4520307 Eh     change       -0.1080138E-05 Eh
 * total energy  :  -131.4520325 Eh     change       -0.1752470E-05 Eh
 * total energy  :  -131.4520338 Eh     change       -0.1257619E-05 Eh
 * total energy  :  -131.4520355 Eh     change       -0.1745799E-05 Eh
 * total energy  :  -131.4520382 Eh     change       -0.2724564E-05 Eh
 * total energy  :  -131.4520407 Eh     change       -0.2490938E-05 Eh
 * total energy  :  -131.4520421 Eh     change       -0.1380707E-05 Eh
 * total energy  :  -131.4520430 Eh     change       -0.8969997E-06 Eh
 * total energy  :  -131.4520465 Eh     change       -0.7699745E-06 Eh
 * total energy  :  -131.4520471 Eh     change       -0.6376684E-06 Eh
 * total energy  :  -131.4520476 Eh     change       -0.4857774E-06 Eh
 * total energy  :  -131.4520481 Eh     change       -0.4763682E-06 Eh
 * total energy  :  -131.4520485 Eh     change       -0.4501826E-06 Eh
 * total energy  :  -131.4520490 Eh     change       -0.4413539E-06 Eh
 * total energy  :  -131.4520494 Eh     change       -0.4383866E-06 Eh
 * total energy  :  -131.4520499 Eh     change       -0.4594903E-06 Eh
 * total energy  :  -131.4520499 Eh     change       -0.6462869E-08 Eh
   *** GEOMETRY OPTIMIZATION CONVERGED AFTER 22 ITERATIONS ***

 final structure:
================
79
 xtb: 6.7.1 (edcfbbe)
C            4.41193325179841        4.23447210380856       -0.37826116938381
C            4.04254397151295        3.54441142753952        0.76580552261912
C            2.87277883836685        2.80704823649733        0.75608271931681
C            2.11381244688583        2.77338506675021       -0.41465339193150
C            0.87597927757739        1.98039385680991       -0.51817694340358
C           -0.24471337935255        2.54234844191126       -1.12234968653804
C           -1.43633081129251        1.85222127092266       -1.20485745251629
C           -1.52950416834807        0.56329237013670       -0.68383634517596
N           -2.73272232455405       -0.14756686911408       -0.75548170903319
C           -2.88099377326398       -1.43301242551534       -1.24295687261364
C           -1.93925615200465       -2.28579386472472       -1.80045344320885
C           -2.37140448291368       -3.52249243831519       -2.24049726826659
C           -3.70707888777512       -3.90741322324106       -2.14079335749667
C           -4.65426943342962       -3.05543742557094       -1.61010295577603
C           -4.24102088147375       -1.80770989097225       -1.16202665321726
C           -4.93202153217822       -0.69005331462761       -0.59193447854378
C           -6.24419022204291       -0.41543597212198       -0.23387385087680
O           -7.32636470159197       -1.22452034542572       -0.36702024770551
C           -8.38572804622692       -0.52277369929898        0.12562887482911
C           -9.69749720803332       -0.95411326140373        0.19299411551123
C          -10.62475492499006       -0.08077442677416        0.73384226282543
C          -10.25313278132224        1.18055488599661        1.19156225751794
C           -8.94237362605518        1.61034722414843        1.12340555534082
C           -7.99374800212850        0.75114453608650        0.58445101001794
C           -6.57708942385696        0.82141023949703        0.34746787517679
C           -5.59975118419729        1.78896916035810        0.58762414797791
C           -4.29055059993547        1.53949447472327        0.23847497549483
C           -3.96981072058222        0.31938569847290       -0.35793338430030
C           -0.40921206136868       -0.02594987522178       -0.10911243501810
C            0.78996375634096        0.66893627425895       -0.03246210271694
N            1.91058978272527        0.03265935235889        0.52375912780375
C            1.98815959820006       -0.47368793111183        1.80631165934495
C            1.01423213969223       -0.54015989910964        2.79187496951608
C            1.37197908573422       -1.07942593097313        4.01303294335495
C            2.66582721365254       -1.53629016210514        4.25761084111051
C            3.64487763489150       -1.45550734285962        3.28786786897224
C            3.30754122191275       -0.91655744506992        2.05323844611985
C            4.04685543749025       -0.66008924432179        0.85324773954944
C            5.35644112538213       -0.84852371283566        0.43450441325986
O            6.38602230308114       -1.37843298997992        1.14428274140321
C            7.46833935398345       -1.35230862650167        0.31624568027580
C            8.74346440743615       -1.79440354915004        0.61613348227859
C            9.70350767073523       -1.67833382124404       -0.37378084877525
C            9.39890553573357       -1.13819550557708       -1.62041012480000
C            8.12473243198250       -0.69638745993059       -1.91837759127996
C            7.14410631757791       -0.80299255708603       -0.94077934992654
C            5.74705542692050       -0.47078804589168       -0.86253267260055
C            4.82956480855837        0.08003961330346       -1.75986989015710
C            3.52376173841035        0.27414400998688       -1.36876870737844
C            3.15135596216418       -0.07327432379686       -0.06974787101411
N            2.45172039180440        3.46945581950215       -1.49642487177710
C            3.56572194976751        4.17469655930257       -1.47478407972369
H            5.32309060949020        4.81051850820080       -0.41457629216071
H            4.65639713938200        3.58006497256486        1.65416265021077
H            2.54812370205311        2.28123866034781        1.64088183790945
H           -0.16111925625826        3.53967351715513       -1.52499204252980
H           -2.29443798301866        2.29624823822899       -1.68524615944680
H           -0.90519562596504       -1.99297640731552       -1.90181292776162
H           -1.65651708163500       -4.20512242837753       -2.67554939518821
H           -4.00159252089526       -4.88407486167289       -2.49459869593759
H           -5.69370070441157       -3.33713311389302       -1.54396434391875
H           -9.97812690449754       -1.93238566566717       -0.16316414013577
H          -11.65842266236744       -0.38463652134469        0.80229292776983
H          -11.00708671990116        1.83238724103296        1.60729898525201
H           -8.65685215530405        2.58863501341012        1.47892562677705
H           -5.87334249417870        2.72471245787776        1.04957456439463
H           -3.52197778421137        2.27107746424372        0.43449940884128
H           -0.46662056506688       -1.03141532895916        0.27971698912895
H            0.01287048097515       -0.17627997518914        2.61597780164258
H            0.63177650970551       -1.14550804737526        4.79664122859796
H            2.90252969328977       -1.95284211201670        5.22522290024128
H            4.65206754227272       -1.79533427691567        3.47307904101277
H            8.97201221738379       -2.21213544768351        1.58357085021408
H           10.70992203053255       -2.01447967038749       -0.17474289578967
H           10.17645193994399       -1.06557389972723       -2.36627522173512
H            7.89079628671280       -0.27846937220023       -2.88559344066931
H            5.14647175251481        0.34693412784220       -2.75578159272826
H            2.80090718782912        0.68978116552652       -2.05314030692481
H            3.78955399992606        4.71441300180060       -2.38614382602842

          :  Hamiltonian                  GFN2-xTB          :
         :: gradient norm              0.000056077801 Eh/a0 ::
         :: HOMO-LUMO gap              2.573627326925 eV    ::
         :: SCC energy              -133.805877064727 Eh    ::
         :: -> dispersion             -0.118235039494 Eh    ::
         :: repulsion energy           2.353827200941 Eh    ::

    * Orbital Energies and Occupations

         #    Occupation            Energy/Eh            Energy/eV
      -------------------------------------------------------------
         1        2.0000           -0.7322081             -19.9244
       ...           ...                  ...                  ...
       109        2.0000           -0.4190446             -11.4028
       110        2.0000           -0.4186320             -11.3916
       111        2.0000           -0.4173726             -11.3573
       112        2.0000           -0.4071813             -11.0800
       113        2.0000           -0.4010684             -10.9136
       114        2.0000           -0.4002126             -10.8903
       115        2.0000           -0.3941845             -10.7263
       116        2.0000           -0.3929173             -10.6918
       117        2.0000           -0.3757751             -10.2254
       118        2.0000           -0.3751810             -10.2092
       119        2.0000           -0.3738319             -10.1725
       120        2.0000           -0.3646873              -9.9236
       121        2.0000           -0.3638832              -9.9018 (HOMO)
       122                         -0.2693042              -7.3281 (LUMO)
       123                         -0.2545380              -6.9263
       124                         -0.2514120              -6.8413
       125                         -0.2481074              -6.7513
       126                         -0.2426125              -6.6018
       127                         -0.2408285              -6.5533
       128                         -0.2407917              -6.5523
       129                         -0.2235299              -6.0826
       130                         -0.2156001              -5.8668
       131                         -0.2144077              -5.8343
       132                         -0.2134608              -5.8086
       ...                                ...                  ...
       235                          0.7646982              20.8085
      -------------------------------------------------------------
                  HL-Gap            0.0945790 Eh            2.5736 eV

     #   Z          covCN         q      C6AA      α(0)
     1   6 C        2.914    -0.040    28.992     8.829
     2   6 C        2.928    -0.011    28.286     8.722
     3   6 C        2.917    -0.041    29.016     8.833
     4   6 C        2.965     0.099    25.809     8.333
     5   6 C        2.981    -0.008    28.201     8.711
     6   6 C        2.925    -0.026    28.655     8.779
     7   6 C        2.920    -0.046    29.150     8.854
     8   6 C        2.912     0.066    26.511     8.443
     9   7 N        2.806    -0.037    21.952     6.959
    10   6 C        3.076     0.045    26.910     8.505
    11   6 C        2.910    -0.050    29.237     8.866
    12   6 C        2.924    -0.033    28.811     8.802
    13   6 C        2.921    -0.039    28.964     8.826
    14   6 C        2.912    -0.031    28.784     8.797
    15   6 C        3.065    -0.010    28.195     8.707
    16   6 C        3.065    -0.037    28.843     8.807
    17   6 C        3.102     0.127    25.106     8.211
    18   8 O        1.714    -0.221    17.660     5.674
    19   6 C        3.107     0.126    25.101     8.209
    20   6 C        2.908    -0.052    29.293     8.875
    21   6 C        2.926    -0.034    28.851     8.809
    22   6 C        2.921    -0.039    28.963     8.825
    23   6 C        2.913    -0.035    28.878     8.812
    24   6 C        3.061    -0.018    28.404     8.740
    25   6 C        3.052    -0.032    28.735     8.791
    26   6 C        2.916    -0.038    28.934     8.821
    27   6 C        2.911    -0.060    29.486     8.904
    28   6 C        3.069     0.043    26.973     8.516
    29   6 C        2.926    -0.057    29.420     8.895
    30   6 C        2.915     0.062    26.601     8.458
    31   7 N        2.807    -0.041    22.036     6.972
    32   6 C        3.078     0.045    26.902     8.504
    33   6 C        2.909    -0.051    29.269     8.871
    34   6 C        2.924    -0.033    28.822     8.804
    35   6 C        2.921    -0.039    28.980     8.828
    36   6 C        2.912    -0.032    28.792     8.799
    37   6 C        3.065    -0.011    28.215     8.710
    38   6 C        3.065    -0.038    28.885     8.813
    39   6 C        3.102     0.126    25.126     8.214
    40   8 O        1.714    -0.221    17.672     5.676
    41   6 C        3.106     0.126    25.108     8.210
    42   6 C        2.908    -0.052    29.298     8.876
    43   6 C        2.926    -0.034    28.857     8.810
    44   6 C        2.921    -0.039    28.964     8.826
    45   6 C        2.913    -0.035    28.880     8.812
    46   6 C        3.061    -0.018    28.405     8.740
    47   6 C        3.052    -0.032    28.758     8.795
    48   6 C        2.916    -0.037    28.931     8.820
    49   6 C        2.911    -0.059    29.454     8.899
    50   6 C        3.071     0.043    26.952     8.512
    51   7 N        1.844    -0.230    26.875     7.683
    52   6 C        2.907     0.061    26.630     8.462
    53   1 H        0.926     0.037     2.487     2.466
    54   1 H        0.926     0.036     2.497     2.471
    55   1 H        0.926     0.034     2.524     2.484
    56   1 H        0.926     0.060     2.202     2.321
    57   1 H        0.926     0.051     2.311     2.377
    58   1 H        0.926     0.029     2.601     2.522
    59   1 H        0.926     0.032     2.561     2.503
    60   1 H        0.926     0.031     2.568     2.506
    61   1 H        0.926     0.042     2.423     2.434
    62   1 H        0.926     0.044     2.391     2.418
    63   1 H        0.926     0.037     2.487     2.466
    64   1 H        0.926     0.034     2.524     2.485
    65   1 H        0.926     0.035     2.513     2.479
    66   1 H        0.926     0.038     2.473     2.459
    67   1 H        0.926     0.034     2.534     2.490
    68   1 H        0.926     0.055     2.261     2.351
    69   1 H        0.926     0.027     2.635     2.539
    70   1 H        0.926     0.031     2.570     2.507
    71   1 H        0.926     0.031     2.574     2.509
    72   1 H        0.926     0.041     2.432     2.439
    73   1 H        0.926     0.044     2.393     2.419
    74   1 H        0.926     0.037     2.486     2.466
    75   1 H        0.926     0.035     2.522     2.484
    76   1 H        0.926     0.035     2.511     2.478
    77   1 H        0.926     0.039     2.466     2.456
    78   1 H        0.926     0.037     2.487     2.466
    79   1 H        0.925     0.039     2.457     2.451

molecular dipole:
                 x           y           z       tot (Debye)
 q only:        0.090       0.714      -0.042
   full:        0.365       0.800       0.255       2.327

 projected vibrational frequencies (cm⁻¹)
eigval :       -0.00    -0.00    -0.00     0.00     0.00     0.00
eigval :        9.75    10.93    17.12    25.92    27.53    48.34
eigval :       50.42    60.67    61.52    63.47    68.03    87.54
eigval :      101.73   106.26   107.48   129.92   136.78   146.50
eigval :      155.31   159.36   165.74   193.45   195.85   226.20
eigval :      233.86   249.52   252.82   262.47   263.34   290.47
eigval :      305.94   314.39   320.36   332.80   342.13   367.09
eigval :      371.78   381.76   385.98   408.39   409.03   419.81
eigval :      429.87   435.65   437.38   440.71   454.68   467.68
eigval :      488.48   496.84   501.32   509.57   528.09   535.58
eigval :      538.87   541.25   546.75   554.39   556.77   559.63
eigval :      568.05   572.25   590.71   598.12   606.51   615.07
eigval :      616.95   624.21   625.09   648.85   667.50   674.49
eigval :      680.17   680.62   692.20   694.68   702.85   703.26
eigval :      710.44   710.72   711.51   718.32   726.70   770.10
eigval :      773.38   776.49   777.23   777.42   777.57   819.01
eigval :      821.96   823.69   835.89   841.09   843.39   852.74
eigval :      859.62   870.31   871.21   871.27   873.05   874.87
eigval :      897.29   898.36   898.64   901.02   901.92   902.34
eigval :      905.64   907.53   910.37   916.74   922.57   922.63
eigval :      923.50   924.46   926.75   938.03   966.95   986.33
eigval :     1001.03  1004.15  1032.26  1060.51  1062.55  1063.14
eigval :     1066.98  1075.77  1084.60  1096.21  1099.38  1101.47
eigval :     1127.98  1135.06  1138.56  1144.58  1147.20  1150.94
eigval :     1168.56  1170.92  1174.58  1176.33  1178.27  1182.15
eigval :     1187.90  1196.70  1207.19  1208.29  1211.80  1228.71
eigval :     1233.02  1246.15  1247.23  1250.44  1250.90  1276.89
eigval :     1278.44  1280.02  1292.75  1302.28  1303.64  1308.63
eigval :     1311.84  1313.76  1340.73  1354.56  1354.81  1356.51
eigval :     1360.19  1367.69  1390.51  1400.06  1402.27  1403.00
eigval :     1411.37  1416.66  1419.98  1428.06  1428.92  1437.65
eigval :     1454.37  1459.51  1462.67  1476.19  1476.22  1485.58
eigval :     1486.12  1490.19  1549.32  1560.76  1570.82  1571.75
eigval :     1577.19  1579.73  1580.70  1586.96  1592.37  1592.43
eigval :     1601.49  1601.82  1610.58  1610.69  1626.66  1627.36
eigval :     3053.29  3074.31  3077.74  3078.91  3080.64  3080.72
eigval :     3084.19  3085.86  3088.58  3088.92  3090.56  3092.56
eigval :     3092.98  3094.01  3095.12  3096.45  3096.95  3097.33
eigval :     3099.02  3099.34  3101.83  3102.14  3102.49  3106.26
eigval :     3106.69  3106.84  3108.39

   temp. (K)  partition function   enthalpy   heat capacity  entropy
                                   cal/mol     cal/K/mol   cal/K/mol   J/K/mol
 298.15  VIB  0.473E+17            22193.340    145.206    136.611
         ROT  0.102E+09              888.752      2.981     39.635
         INT  0.484E+25            23082.093    148.187    176.245
         TR   0.166E+29             1481.254      4.968     45.348
         TOT                       24563.3466   153.1553   221.5936   927.1476

       T/K    H(0)-H(T)+PV         H(T)/Eh          T*S/Eh         G(T)/Eh
   ------------------------------------------------------------------------
    298.15    0.391442E-01    0.630234E+00    0.105286E+00    0.524947E+00
   ------------------------------------------------------------------------

         :::::::::::::::::::::::::::::::::::::::::::::::::::::
         ::                  THERMODYNAMIC                  ::
         :::::::::::::::::::::::::::::::::::::::::::::::::::::
         :: total free energy        -130.927102416678 Eh   ::
         ::.................................................::
         :: total energy             -131.452049863785 Eh   ::
         :: zero point energy           0.591089525937 Eh   ::
         :: G(RRHO) w/o ZPVE           -0.066142078829 Eh   ::
         :: G(RRHO) contrib.            0.524947447108 Eh   ::
         :::::::::::::::::::::::::::::::::::::::::::::::::::::

           -------------------------------------------------
          | TOTAL ENERGY             -131.452049863785 Eh   |
          | TOTAL ENTHALPY           -130.821816153459 Eh   |
          | TOTAL FREE ENERGY        -130.927102416678 Eh   |
          | GRADIENT NORM               0.000056078365 Eh/α |
          | HOMO-LUMO GAP               2.573626645391 eV   |
           -------------------------------------------------

 * finished run on 2025/09/14 at 09:34:38.661
