   * xtb version 6.7.1 (edcfbbe) compiled by 'albert@albert-system' on 2024-07-22

   ID    Z sym.   atoms
    1    6 C      1-8, 10-17, 19-30, 32-39, 41-50, 52
    2    7 N      9, 31, 51
    3    8 O      18, 40
    4    1 H      53-79

          program call               : xtb data2507/gas/2BFCzPy/2BFCzPy_gas_S0_finalOpt.xtbopt.xyz --gfn 2 --spinpol --tblite --uhf 2 --ohess vtight --parallel 40 --molden --ceasefiles --namespace data2507/gas/2BFCzPy/2BFCzPy_gas_T1_preOpt
 * total energy  :  -131.3511503 Eh     change       -0.1097837E-07 Eh
 * total energy  :  -131.3544867 Eh     change       -0.3336355E-02 Eh
 * total energy  :  -131.3567604 Eh     change       -0.2273716E-02 Eh
 * total energy  :  -131.3573143 Eh     change       -0.5538973E-03 Eh
 * total energy  :  -131.3582556 Eh     change       -0.9413323E-03 Eh
 * total energy  :  -131.3586434 Eh     change       -0.3877784E-03 Eh
 * total energy  :  -131.3590998 Eh     change       -0.4563543E-03 Eh
 * total energy  :  -131.3593917 Eh     change       -0.2918947E-03 Eh
 * total energy  :  -131.3595506 Eh     change       -0.1589077E-03 Eh
 * total energy  :  -131.3596561 Eh     change       -0.1055351E-03 Eh
 * total energy  :  -131.3608691 Eh     change       -0.3367385E-06 Eh
 * total energy  :  -131.3608689 Eh     change        0.2467630E-06 Eh
 * total energy  :  -131.3608693 Eh     change       -0.4502314E-06 Eh
 * total energy  :  -131.3608697 Eh     change       -0.3987612E-06 Eh
 * total energy  :  -131.3608701 Eh     change       -0.3979241E-06 Eh
 * total energy  :  -131.3608705 Eh     change       -0.3921766E-06 Eh
 * total energy  :  -131.3608709 Eh     change       -0.4037364E-06 Eh
 * total energy  :  -131.3608709 Eh     change        0.6722530E-08 Eh
 * total energy  :  -131.3608709 Eh     change       -0.2526502E-07 Eh
   *** GEOMETRY OPTIMIZATION CONVERGED AFTER 69 ITERATIONS ***

 final structure:
================
79
 xtb: 6.7.1 (edcfbbe)
C            3.99249193538054        4.88198878954741       -0.18475026794350
C            3.97940157657329        3.81128091016224        0.72507939498229
C            2.99405827350456        2.86945445690010        0.66052549082459
C            1.98197169276293        2.95090285944053       -0.34342188127146
C            0.91148343387612        2.04717584289979       -0.49983004261348
C           -0.24651494915578        2.48204374204609       -1.21463846376069
C           -1.40010544415358        1.77048004076469       -1.23792640951958
C           -1.48180177240552        0.51598957439334       -0.57318813424937
N           -2.66576940434072       -0.21444345361236       -0.60455722438133
C           -2.79429848007473       -1.54950181338732       -0.94087572697957
C           -1.83109957045607       -2.45903872253053       -1.35585525065199
C           -2.24308812980087       -3.74369108237422       -1.65919523818996
C           -3.58097798921325       -4.12172772236952       -1.56456682734266
C           -4.55204003183617       -3.21456737493813       -1.18436274659829
C           -4.15981133314470       -1.91972171832314       -0.87845968568694
C           -4.87661887972054       -0.74151705112999       -0.49241548086205
C           -6.20146969846773       -0.42515449925925       -0.24275188281395
O           -7.28060954906661       -1.24307354316589       -0.33160737959116
C           -8.35989344635901       -0.48520919893324        0.01483213409458
C           -9.67558724380434       -0.90340620272177        0.06515520700484
C          -10.62388030925408        0.03157520064647        0.44545161647965
C          -10.26730797077629        1.33956768124055        0.76423600679844
C           -8.95224579187917        1.75680899644641        0.71345990490669
C           -7.98186588983709        0.83612850435620        0.33420732548811
C           -6.55762407642483        0.87706483037670        0.16540214341008
C           -5.58620313940302        1.86752653469792        0.34254117861815
C           -4.26289472898461        1.57601968485663        0.09838423206110
C           -3.91804901989527        0.29222244392271       -0.33326244627910
C           -0.32890904611442       -0.00016771159687        0.02418819678459
C            0.84892640163475        0.71084864608554        0.04919044640400
N            1.98702095246163        0.10569810359848        0.59600803180192
C            2.06768930050556       -0.48934958451198        1.83840271161520
C            1.11722678275451       -0.56256927573857        2.84777163879958
C            1.47389366687596       -1.19609179801598        4.02318284898862
C            2.74521266262321       -1.73906005494905        4.20157641678335
C            3.70486361492545       -1.64937160556568        3.21119357382611
C            3.36801974137830       -1.01688860965280        2.02320606258957
C            4.09093174665587       -0.72418768635225        0.82087960896531
C            5.37395952089502       -0.95968231827559        0.35361888823580
O            6.38902498687281       -1.59014393796877        0.99775251980948
C            7.44848804071907       -1.57496191147777        0.13978634580295
C            8.70323040877170       -2.10422198139560        0.37455721776321
C            9.64215691933229       -1.98091836131211       -0.63545664822453
C            9.33593247929993       -1.34990330975521       -1.83836598680242
C            8.08163598446503       -0.82147856375116       -2.07181383737587
C            7.12217469981600       -0.93296668744901       -1.07281502716440
C            5.75138878592847       -0.52687354028953       -0.93311612461763
C            4.84387450179726        0.13154235255953       -1.76712733088632
C            3.56315494684760        0.37549205225338       -1.32499344198446
C            3.20302041164651       -0.03394037508362       -0.03965222997008
N            2.01378448021732        4.03234749632954       -1.17708179588750
C            2.94791410667849        4.93742658203228       -1.09693144366346
H            4.77418222319850        5.62239595767134       -0.18404347051969
H            4.73708686188661        3.75261788347981        1.49350087048954
H            2.91545495072318        2.11569964587477        1.42666359894839
H           -0.16245355052933        3.42936517939249       -1.72621205207225
H           -2.25467351487256        2.11549534899920       -1.80004324626755
H           -0.79591167756469       -2.17340561337037       -1.45987232774620
H           -1.51103197590786       -4.46851554024333       -1.98253827480884
H           -3.86065346359620       -5.13615814676584       -1.80627518321418
H           -5.59310529088476       -3.49275017025966       -1.12981636903745
H           -9.94516371711310       -1.91750452087230       -0.18264870937347
H          -11.66178902356948       -0.26073874150107        0.49585279621243
H          -11.03735404613904        2.03787292706220        1.05643117493841
H           -8.67793687474024        2.77078494622829        0.96087346365704
H           -5.87801121414145        2.85013711300252        0.67800112301237
H           -3.49886391533413        2.32165353975258        0.25252396329570
H           -0.35942310154273       -0.98180723371200        0.47381017207346
H            0.13676489830955       -0.12838763549561        2.72432395386808
H            0.75201044733652       -1.26843501645348        4.82296238520171
H            2.98255984114538       -2.22829282366350        5.13435975895227
H            4.69617810228780       -2.05261435316037        3.34862405443820
H            8.93376001290448       -2.59155771173529        1.30832863236811
H           10.63286542970908       -2.38294803558883       -0.48637112029829
H           10.09676356930509       -1.27431239410168       -2.60089862870777
H            7.84633116461858       -0.33260000685686       -3.00469284784600
H            5.15023221888134        0.44128271435115       -2.75379144153863
H            2.84730224717240        0.87670676259336       -1.95666342498767
H            2.88686821160518        5.73796423554966       -1.82452579055668

 projected vibrational frequencies (cm⁻¹)
eigval :       -0.00    -0.00    -0.00     0.00     0.00     0.00
eigval :       10.12    11.25    18.59    25.41    29.71    45.99
eigval :       55.18    62.89    63.22    66.04    67.84    90.75
eigval :      105.89   109.55   114.43   128.87   136.19   144.46
eigval :      152.72   157.59   159.92   185.62   195.75   225.19
eigval :      233.56   248.87   256.95   262.02   262.61   290.61
eigval :      304.60   307.93   315.49   326.63   335.15   361.26
eigval :      377.86   380.94   390.47   398.89   405.91   407.72
eigval :      427.00   430.59   434.04   439.83   444.77   450.54
eigval :      476.90   483.92   496.01   502.29   516.61   522.03
eigval :      536.78   538.71   542.99   545.66   554.92   556.19
eigval :      563.00   566.54   570.88   588.37   595.78   600.76
eigval :      608.96   619.74   623.07   624.31   639.36   656.53
eigval :      666.84   668.63   679.04   679.75   686.47   701.05
eigval :      702.39   707.03   709.58   710.25   712.04   715.95
eigval :      760.23   773.61   775.23   775.55   776.39   800.84
eigval :      806.69   816.77   818.43   822.89   833.59   839.06
eigval :      850.20   857.99   864.56   869.60   870.25   870.50
eigval :      871.68   874.19   891.46   891.92   892.91   896.55
eigval :      897.40   900.78   901.48   905.25   909.54   911.87
eigval :      912.29   921.03   921.42   922.03   923.86   953.77
eigval :      989.06   998.98  1001.50  1043.72  1051.95  1061.49
eigval :     1062.07  1069.24  1072.53  1074.59  1094.92  1096.09
eigval :     1107.00  1125.40  1130.88  1137.34  1144.18  1144.53
eigval :     1152.55  1167.14  1172.11  1173.18  1174.77  1180.28
eigval :     1184.22  1191.07  1194.42  1200.71  1204.31  1206.20
eigval :     1220.31  1227.16  1235.89  1247.89  1248.79  1274.69
eigval :     1275.67  1279.96  1288.48  1292.80  1295.37  1298.85
eigval :     1312.52  1317.15  1334.35  1342.58  1351.91  1353.85
eigval :     1354.05  1354.24  1363.29  1371.91  1379.31  1395.66
eigval :     1398.56  1400.50  1404.99  1408.83  1413.76  1421.97
eigval :     1427.19  1435.07  1455.96  1457.30  1460.49  1468.64
eigval :     1473.91  1474.88  1479.72  1482.78  1526.23  1548.67
eigval :     1558.68  1560.60  1568.48  1571.76  1579.23  1585.47
eigval :     1588.42  1590.96  1597.12  1603.35  1609.45  1616.10
eigval :     3034.36  3067.00  3079.72  3080.72  3081.92  3082.00
eigval :     3082.44  3085.94  3088.01  3090.09  3090.33  3090.75
eigval :     3092.03  3095.60  3096.09  3097.13  3098.35  3098.69
eigval :     3098.94  3102.05  3102.67  3106.47  3106.79  3107.09
eigval :     3107.75  3109.36  3112.12

   temp. (K)  partition function   enthalpy   heat capacity  entropy
                                   cal/mol     cal/K/mol   cal/K/mol   J/K/mol
 298.15  VIB  0.409E+17            22442.781    147.437    137.601
         ROT  0.106E+09              888.752      2.981     39.698
         INT  0.432E+25            23331.533    150.418    177.299
         TR   0.166E+29             1481.254      4.968     45.348
         TOT                       24812.7871   155.3860   222.6470   931.5552

       T/K    H(0)-H(T)+PV         H(T)/Eh          T*S/Eh         G(T)/Eh
   ------------------------------------------------------------------------
    298.15    0.395417E-01    0.626136E+00    0.105787E+00    0.520349E+00
   ------------------------------------------------------------------------

         :::::::::::::::::::::::::::::::::::::::::::::::::::::
         ::                  THERMODYNAMIC                  ::
         :::::::::::::::::::::::::::::::::::::::::::::::::::::
         :: total free energy        -130.840521593349 Eh   ::
         ::.................................................::
         :: total energy             -131.360870950633 Eh   ::
         :: zero point energy           0.586594460474 Eh   ::
         :: G(RRHO) w/o ZPVE           -0.066245103190 Eh   ::
         :: G(RRHO) contrib.            0.520349357284 Eh   ::
         :::::::::::::::::::::::::::::::::::::::::::::::::::::

           -------------------------------------------------
          | TOTAL ENERGY             -131.360870950633 Eh   |
          | TOTAL ENTHALPY           -130.734734796968 Eh   |
          | TOTAL FREE ENERGY        -130.840521593349 Eh   |
          | GRADIENT NORM               0.000081176311 Eh/α |
           -------------------------------------------------

 * finished run on 2025/09/14 at 09:34:53.344
