   * xtb version 6.7.1 (edcfbbe) compiled by 'albert@albert-system' on 2024-07-22

   ID    Z sym.   atoms
    1    6 C      1-8, 10-17, 19-30, 32-39, 41-50, 52
    2    7 N      9, 31, 51
    3    8 O      18, 40
    4    1 H      53-79

          program call               : xtb data2507/gas/2BFCzPy/2BFCzPy.xyz --gfn 2 --ohess vtight --parallel 40 --molden --ceasefiles --namespace data2507/gas/2BFCzPy/2BFCzPy_gas_S0_preOpt
          :  Hamiltonian                  GFN2-xTB          :
 * total energy  :  -131.4135486 Eh     change       -0.2504180E-08 Eh
 * total energy  :  -131.4341304 Eh     change       -0.2058186E-01 Eh
 * total energy  :  -131.4402934 Eh     change       -0.6162931E-02 Eh
 * total energy  :  -131.4430585 Eh     change       -0.2765168E-02 Eh
 * total energy  :  -131.4458567 Eh     change       -0.2798175E-02 Eh
 * total energy  :  -131.4478141 Eh     change       -0.1957421E-02 Eh
 * total energy  :  -131.4491362 Eh     change       -0.1322051E-02 Eh
 * total energy  :  -131.4499653 Eh     change       -0.8291541E-03 Eh
 * total energy  :  -131.4504377 Eh     change       -0.4723589E-03 Eh
 * total energy  :  -131.4507390 Eh     change       -0.3012851E-03 Eh
 * total energy  :  -131.4520471 Eh     change       -0.4712720E-06 Eh
 * total energy  :  -131.4520477 Eh     change       -0.5729521E-06 Eh
 * total energy  :  -131.4520483 Eh     change       -0.5669342E-06 Eh
 * total energy  :  -131.4520488 Eh     change       -0.5165800E-06 Eh
 * total energy  :  -131.4520493 Eh     change       -0.4511840E-06 Eh
 * total energy  :  -131.4520497 Eh     change       -0.4267845E-06 Eh
 * total energy  :  -131.4520501 Eh     change       -0.4391719E-06 Eh
 * total energy  :  -131.4520505 Eh     change       -0.4267201E-06 Eh
 * total energy  :  -131.4520505 Eh     change       -0.4745431E-08 Eh
   *** GEOMETRY OPTIMIZATION CONVERGED AFTER 68 ITERATIONS ***

 final structure:
================
79
 xtb: 6.7.1 (edcfbbe)
C            4.32509903569190        4.25567785240950       -0.08193716606030
C            3.95232446993007        3.49709930664766        1.01675167447421
C            2.79215738518407        2.74742071393884        0.95190422517239
C            2.04588118337879        2.77171849910663       -0.22717200408720
C            0.81789589835758        1.97342211586886       -0.38933802015571
C           -0.30004312311391        2.55664145236776       -0.97843704411742
C           -1.48305595084551        1.86078944566461       -1.11609450321815
C           -1.57131506586431        0.54508806169588       -0.66551810139708
N           -2.76539946390477       -0.17238302650225       -0.79650997081664
C           -2.89062599745540       -1.43273236599691       -1.35202146562628
C           -1.92802428746755       -2.25166226825319       -1.92454361480611
C           -2.33904511181869       -3.46752577398956       -2.43701086166681
C           -3.67416666222201       -3.86453876342208       -2.39437338907489
C           -4.64175393189573       -3.04474371443961       -1.85002333323464
C           -4.24975420452392       -1.81855227781894       -1.32935475363980
C           -4.96498851548454       -0.73419088207436       -0.72595838497888
C           -6.28958882494563       -0.48416421716935       -0.39689092597202
O           -7.36177351213686       -1.29082664136788       -0.60468342488801
C           -8.44108599732586       -0.61858270543324       -0.11418479800617
C           -9.75177532300838       -1.05840070134296       -0.11174496990015
C          -10.70177640928981       -0.21622393113936        0.43894958489968
C          -10.35324365729392        1.02325383079945        0.96883889432945
C           -9.04349961454927        1.46145208176815        0.96573236074396
C           -8.07223295927453        0.63327851452925        0.41858291285813
C           -6.64894530439429        0.72124695844039        0.23266586184264
C           -5.68569148421828        1.67992461388877        0.55214213444449
C           -4.36445756139166        1.45430704848372        0.23326804038096
C           -4.01711260392432        0.26746044918969       -0.41336826405845
C           -0.45368559577275       -0.06304988016885       -0.10531270409831
C            0.73794808500608        0.63714832487632        0.02428098253518
N            1.85801802473860       -0.01924547235958        0.55795822622250
C            1.92562644938407       -0.59812637396633        1.80993776202069
C            0.94228542495121       -0.72613813552341        2.77997459830552
C            1.29105931887712       -1.33225446421754        3.97202641260647
C            2.58517986998552       -1.79507377453570        4.20362321899715
C            3.57325084257159       -1.65422305573132        3.25002722323423
C            3.24492591975268       -1.04791906909070        2.04456593539156
C            3.99450328120854       -0.72016212853223        0.86854813688140
C            5.30862308122935       -0.88029799148779        0.45213898552685
O            6.33331448506284       -1.44775148192901        1.13967941442371
C            7.42304579058782       -1.37133438580092        0.32454918543305
C            8.69667333464434       -1.82715738521424        0.60996037578881
C            9.66538652916744       -1.65126618098431       -0.36254348466761
C            9.37064753575971       -1.04022265472089       -1.57842069545316
C            8.09786139384090       -0.58522910402432       -1.86212548314072
C            7.10867314596641       -0.75096530734825       -0.90153929832333
C            5.70992591879698       -0.42749302899945       -0.81729780004344
C            4.79885616921721        0.17124330011882       -1.69014103746192
C            3.48857610074349        0.33785741012940       -1.30130252194637
C            3.10510990410207       -0.08522978959706       -0.02818967695019
N            2.38689360419407        3.53189185348652       -1.26398374077478
C            3.49170253993867        4.24785846630770       -1.18983101536803
H            5.22901156076313        4.84410681044562       -0.07496465266592
H            4.55611299790606        3.48969111218939        1.91266179035295
H            2.46481497991754        2.16826322041418        1.80169174615620
H           -0.22070413775755        3.57483170651753       -1.32591987413564
H           -2.33778469415080        2.32167539819919       -1.58646343818725
H           -0.89362780640735       -1.94872872912072       -1.98323700701302
H           -1.60735946184236       -4.12367008225088       -2.88469795394086
H           -3.95174505046091       -4.82426168903516       -2.80382682339849
H           -5.68080070125019       -3.33461762975648       -1.82787285223875
H          -10.01459717536779       -2.01952216293615       -0.52379527819006
H          -11.73530113586208       -0.52758546399433        0.45793187737121
H          -11.12461687337814        1.65114234325579        1.38944010018878
H           -8.77590754178489        2.42283393298205        1.37694394988363
H           -5.97967871885508        2.59019449542256        1.05099975927439
H           -3.60736038831312        2.17876611085804        0.49069044938918
H           -0.50661272538255       -1.08780569415180        0.23000620507072
H           -0.05946172909011       -0.35837807408130        2.61469135924189
H            0.54345417740713       -1.44711206064789        4.74287430200767
H            2.81481740741117       -2.26431825758513        5.14855330532728
H            4.58059791497722       -1.99849934704787        3.42594145885498
H            8.91773629332624       -2.30012495434232        1.55341040550578
H           10.67093992545203       -1.99594499330776       -0.17401879268444
H           10.15486074128900       -0.92217091715882       -2.31139095299467
H            7.87141000228006       -0.11240788793898       -2.80554794171674
H            5.12419662182439        0.49618918317738       -2.66588342632659
H            2.77062853839420        0.78945540082938       -1.96780921175855
H            3.71857741882460        4.84088386260831       -2.06666319591586

          :  Hamiltonian                  GFN2-xTB          :
         :: gradient norm              0.000048826051 Eh/a0 ::
         :: HOMO-LUMO gap              2.573592672622 eV    ::
         :: SCC energy              -133.805793601062 Eh    ::
         :: -> dispersion             -0.118188666755 Eh    ::
         :: repulsion energy           2.353743053523 Eh    ::

    * Orbital Energies and Occupations

         #    Occupation            Energy/Eh            Energy/eV
      -------------------------------------------------------------
         1        2.0000           -0.7321573             -19.9230
       ...           ...                  ...                  ...
       109        2.0000           -0.4190595             -11.4032
       110        2.0000           -0.4186361             -11.3917
       111        2.0000           -0.4173396             -11.3564
       112        2.0000           -0.4071127             -11.0781
       113        2.0000           -0.4010305             -10.9126
       114        2.0000           -0.4002490             -10.8913
       115        2.0000           -0.3941844             -10.7263
       116        2.0000           -0.3929099             -10.6916
       117        2.0000           -0.3757290             -10.2241
       118        2.0000           -0.3752271             -10.2104
       119        2.0000           -0.3737721             -10.1709
       120        2.0000           -0.3646480              -9.9226
       121        2.0000           -0.3639042              -9.9023 (HOMO)
       122                         -0.2693264              -7.3287 (LUMO)
       123                         -0.2544646              -6.9243
       124                         -0.2514530              -6.8424
       125                         -0.2480382              -6.7495
       126                         -0.2425339              -6.5997
       127                         -0.2408672              -6.5543
       128                         -0.2407674              -6.5516
       129                         -0.2234245              -6.0797
       130                         -0.2155708              -5.8660
       131                         -0.2144294              -5.8349
       132                         -0.2134377              -5.8079
       ...                                ...                  ...
       235                          0.7646427              20.8070
      -------------------------------------------------------------
                  HL-Gap            0.0945778 Eh            2.5736 eV

     #   Z          covCN         q      C6AA      α(0)
     1   6 C        2.914    -0.040    28.993     8.830
     2   6 C        2.928    -0.011    28.286     8.722
     3   6 C        2.917    -0.041    29.016     8.833
     4   6 C        2.965     0.099    25.810     8.333
     5   6 C        2.981    -0.008    28.203     8.711
     6   6 C        2.925    -0.026    28.656     8.779
     7   6 C        2.920    -0.046    29.153     8.854
     8   6 C        2.912     0.066    26.512     8.443
     9   7 N        2.806    -0.037    21.949     6.958
    10   6 C        3.075     0.045    26.911     8.505
    11   6 C        2.910    -0.050    29.237     8.866
    12   6 C        2.924    -0.033    28.811     8.802
    13   6 C        2.921    -0.039    28.963     8.825
    14   6 C        2.912    -0.031    28.784     8.797
    15   6 C        3.065    -0.010    28.194     8.707
    16   6 C        3.065    -0.037    28.842     8.806
    17   6 C        3.102     0.127    25.106     8.211
    18   8 O        1.714    -0.221    17.660     5.674
    19   6 C        3.107     0.126    25.101     8.209
    20   6 C        2.908    -0.052    29.293     8.875
    21   6 C        2.926    -0.034    28.851     8.809
    22   6 C        2.921    -0.039    28.963     8.825
    23   6 C        2.913    -0.035    28.877     8.812
    24   6 C        3.061    -0.018    28.404     8.740
    25   6 C        3.052    -0.032    28.735     8.791
    26   6 C        2.916    -0.038    28.934     8.821
    27   6 C        2.911    -0.060    29.485     8.904
    28   6 C        3.068     0.043    26.973     8.516
    29   6 C        2.926    -0.057    29.424     8.896
    30   6 C        2.915     0.062    26.603     8.458
    31   7 N        2.807    -0.041    22.035     6.972
    32   6 C        3.078     0.045    26.902     8.504
    33   6 C        2.909    -0.051    29.269     8.871
    34   6 C        2.924    -0.033    28.822     8.804
    35   6 C        2.921    -0.039    28.980     8.828
    36   6 C        2.912    -0.032    28.792     8.799
    37   6 C        3.065    -0.011    28.215     8.710
    38   6 C        3.065    -0.038    28.884     8.813
    39   6 C        3.102     0.126    25.126     8.214
    40   8 O        1.714    -0.221    17.672     5.676
    41   6 C        3.106     0.126    25.109     8.210
    42   6 C        2.908    -0.052    29.298     8.876
    43   6 C        2.926    -0.034    28.857     8.810
    44   6 C        2.921    -0.039    28.964     8.826
    45   6 C        2.913    -0.035    28.880     8.812
    46   6 C        3.061    -0.018    28.405     8.740
    47   6 C        3.052    -0.032    28.758     8.795
    48   6 C        2.916    -0.037    28.931     8.820
    49   6 C        2.911    -0.059    29.455     8.899
    50   6 C        3.071     0.043    26.952     8.512
    51   7 N        1.845    -0.230    26.877     7.683
    52   6 C        2.906     0.061    26.630     8.462
    53   1 H        0.926     0.037     2.488     2.466
    54   1 H        0.926     0.036     2.498     2.471
    55   1 H        0.926     0.034     2.523     2.484
    56   1 H        0.926     0.060     2.202     2.320
    57   1 H        0.926     0.051     2.311     2.377
    58   1 H        0.926     0.029     2.599     2.521
    59   1 H        0.926     0.032     2.561     2.502
    60   1 H        0.926     0.031     2.567     2.506
    61   1 H        0.926     0.042     2.422     2.434
    62   1 H        0.926     0.044     2.391     2.418
    63   1 H        0.926     0.037     2.486     2.466
    64   1 H        0.926     0.034     2.524     2.484
    65   1 H        0.926     0.035     2.513     2.479
    66   1 H        0.926     0.038     2.472     2.459
    67   1 H        0.926     0.034     2.532     2.488
    68   1 H        0.926     0.055     2.260     2.351
    69   1 H        0.926     0.027     2.635     2.539
    70   1 H        0.926     0.031     2.571     2.507
    71   1 H        0.926     0.031     2.574     2.509
    72   1 H        0.926     0.041     2.432     2.439
    73   1 H        0.926     0.044     2.393     2.419
    74   1 H        0.926     0.037     2.486     2.466
    75   1 H        0.926     0.035     2.522     2.484
    76   1 H        0.926     0.035     2.511     2.478
    77   1 H        0.926     0.039     2.466     2.456
    78   1 H        0.926     0.037     2.487     2.466
    79   1 H        0.925     0.039     2.458     2.452

molecular dipole:
                 x           y           z       tot (Debye)
 q only:        0.075       0.714       0.001
   full:        0.345       0.787       0.305       2.317

 projected vibrational frequencies (cm⁻¹)
eigval :       -0.00    -0.00    -0.00     0.00     0.00     0.00
eigval :        9.82    11.05    17.17    25.98    27.57    48.44
eigval :       50.37    60.63    61.65    63.48    68.12    87.70
eigval :      101.90   106.35   107.46   129.92   136.91   146.36
eigval :      155.33   159.33   165.91   193.59   195.77   226.59
eigval :      233.90   249.69   253.08   262.51   263.35   290.57
eigval :      306.03   314.42   320.14   333.05   342.07   366.95
eigval :      371.70   381.76   385.98   408.38   409.10   419.88
eigval :      429.81   435.80   437.39   440.74   454.77   467.79
eigval :      488.52   496.82   501.39   509.69   528.01   535.60
eigval :      538.85   541.24   546.71   554.42   556.78   559.69
eigval :      568.04   572.33   590.78   598.11   606.48   615.05
eigval :      616.97   624.20   625.12   648.90   667.49   674.48
eigval :      680.15   680.65   692.19   694.56   702.83   703.31
eigval :      710.45   710.76   711.48   718.27   726.66   770.13
eigval :      773.30   776.47   777.23   777.41   777.58   819.09
eigval :      821.93   823.66   835.88   841.24   843.53   852.75
eigval :      859.62   870.24   871.21   871.25   873.03   874.87
eigval :      897.42   898.33   898.74   901.00   901.93   902.32
eigval :      905.64   907.50   910.65   916.76   922.57   922.63
eigval :      923.49   924.66   927.11   937.97   966.88   986.32
eigval :     1001.02  1004.10  1032.23  1060.49  1062.56  1063.14
eigval :     1066.97  1075.84  1084.70  1096.22  1099.43  1101.51
eigval :     1127.97  1135.10  1138.65  1144.63  1147.27  1151.27
eigval :     1168.57  1170.93  1174.59  1176.35  1178.30  1182.19
eigval :     1187.94  1196.66  1207.15  1208.30  1211.81  1228.91
eigval :     1233.04  1246.14  1247.29  1250.44  1250.89  1276.87
eigval :     1278.48  1279.99  1292.79  1302.08  1303.62  1308.65
eigval :     1311.74  1313.94  1340.65  1354.54  1354.80  1356.53
eigval :     1360.20  1367.71  1390.45  1400.04  1402.24  1402.92
eigval :     1411.40  1416.65  1419.89  1428.00  1428.90  1437.54
eigval :     1454.18  1459.44  1462.62  1476.18  1476.21  1485.55
eigval :     1486.08  1490.16  1549.21  1560.73  1570.78  1571.72
eigval :     1577.14  1579.73  1580.70  1586.98  1592.35  1592.41
eigval :     1601.42  1601.82  1610.56  1610.67  1626.66  1627.33
eigval :     3053.20  3074.30  3077.75  3079.06  3080.67  3080.71
eigval :     3084.21  3086.13  3088.63  3088.91  3090.65  3092.68
eigval :     3093.03  3094.23  3095.14  3096.51  3096.96  3097.54
eigval :     3099.04  3099.68  3101.82  3102.20  3102.52  3106.28
eigval :     3106.72  3106.86  3108.54

   temp. (K)  partition function   enthalpy   heat capacity  entropy
                                   cal/mol     cal/K/mol   cal/K/mol   J/K/mol
 298.15  VIB  0.457E+17            22190.558    145.207    136.567
         ROT  0.103E+09              888.752      2.981     39.638
         INT  0.469E+25            23079.310    148.188    176.205
         TR   0.166E+29             1481.254      4.968     45.348
         TOT                       24560.5641   153.1558   221.5534   926.9793

       T/K    H(0)-H(T)+PV         H(T)/Eh          T*S/Eh         G(T)/Eh
   ------------------------------------------------------------------------
    298.15    0.391398E-01    0.630241E+00    0.105267E+00    0.524974E+00
   ------------------------------------------------------------------------

         :::::::::::::::::::::::::::::::::::::::::::::::::::::
         ::                  THERMODYNAMIC                  ::
         :::::::::::::::::::::::::::::::::::::::::::::::::::::
         :: total free energy        -130.927076753642 Eh   ::
         ::.................................................::
         :: total energy             -131.452050547540 Eh   ::
         :: zero point energy           0.591101197857 Eh   ::
         :: G(RRHO) w/o ZPVE           -0.066127403959 Eh   ::
         :: G(RRHO) contrib.            0.524973793898 Eh   ::
         :::::::::::::::::::::::::::::::::::::::::::::::::::::

           -------------------------------------------------
          | TOTAL ENERGY             -131.452050547540 Eh   |
          | TOTAL ENTHALPY           -130.821809599357 Eh   |
          | TOTAL FREE ENERGY        -130.927076753642 Eh   |
          | GRADIENT NORM               0.000048828018 Eh/α |
          | HOMO-LUMO GAP               2.573593005172 eV   |
           -------------------------------------------------

 * finished run on 2025/09/14 at 09:30:34.555
