   * xtb version 6.7.1 (edcfbbe) compiled by 'albert@albert-system' on 2024-07-22

   ID    Z sym.   atoms
    1    6 C      1-8, 10-17, 19-30, 32-39, 41-50, 52
    2    7 N      9, 31, 51
    3    8 O      18, 40
    4    1 H      53-79

          program call               : xtb data2507/gas/2BFCzPy/2BFCzPy_gas_T1_crest.xyz --gfn 2 --spinpol --tblite --uhf 2 --ohess vtight --parallel 40 --molden --ceasefiles --namespace data2507/gas/2BFCzPy/2BFCzPy_gas_T1_finalOpt
 * total energy  :  -131.3613335 Eh     change       -0.1019058E-07 Eh
 * total energy  :  -131.3613767 Eh     change       -0.4325040E-04 Eh
 * total energy  :  -131.3613986 Eh     change       -0.2187815E-04 Eh
 * total energy  :  -131.3614026 Eh     change       -0.4030613E-05 Eh
 * total energy  :  -131.3614077 Eh     change       -0.5111973E-05 Eh
 * total energy  :  -131.3614129 Eh     change       -0.5127126E-05 Eh
 * total energy  :  -131.3614184 Eh     change       -0.5541061E-05 Eh
 * total energy  :  -131.3614226 Eh     change       -0.4204864E-05 Eh
 * total energy  :  -131.3614252 Eh     change       -0.2586868E-05 Eh
 * total energy  :  -131.3614279 Eh     change       -0.2709837E-05 Eh
 * total energy  :  -131.3614449 Eh     change       -0.5028958E-06 Eh
 * total energy  :  -131.3614453 Eh     change       -0.3837258E-06 Eh
 * total energy  :  -131.3614456 Eh     change       -0.2408442E-06 Eh
 * total energy  :  -131.3614458 Eh     change       -0.2880976E-06 Eh
 * total energy  :  -131.3614460 Eh     change       -0.1973745E-06 Eh
 * total energy  :  -131.3614462 Eh     change       -0.1921157E-06 Eh
 * total energy  :  -131.3614464 Eh     change       -0.2001958E-06 Eh
 * total energy  :  -131.3614464 Eh     change        0.9615860E-08 Eh
 * total energy  :  -131.3614465 Eh     change       -0.8018040E-07 Eh
   *** GEOMETRY OPTIMIZATION CONVERGED AFTER 40 ITERATIONS ***

 final structure:
================
79
 xtb: 6.7.1 (edcfbbe)
C            3.84546172614047        5.52633175761408       -1.72250888758297
C            4.21601086713574        4.17914641324859       -1.57744777434544
C            3.26356776667668        3.23006961548026       -1.34161670777008
C            1.89107943970685        3.60368067442442       -1.22131082789169
C            0.82672962398783        2.71547351255929       -0.95455383070828
C           -0.50479376044223        3.11147922519254       -1.28771262935179
C           -1.55468843245994        2.25275551400755       -1.23396919477252
C           -1.36304684708062        0.90840612359334       -0.81647369484724
N           -2.43157426060253        0.01934439999163       -0.76620998801481
C           -2.42006553859392       -1.27696486359827       -1.24786697434461
C           -1.41474828393361       -1.96896427298958       -1.90762845300169
C           -1.67842155189418       -3.26300224945996       -2.31634095485490
C           -2.91679273923622       -3.85972245188125       -2.08669410803131
C           -3.93524126736100       -3.16843449675760       -1.45811363500458
C           -3.68971937220459       -1.86825725138542       -1.04081943916760
C           -4.49365368450473       -0.87170322753185       -0.40040716724449
C           -5.79178431699617       -0.80530112888334        0.07680758732992
O           -6.74375302056229       -1.77105279126415        0.02714472310185
C           -7.84931896070756       -1.24422878714020        0.62671562558761
C           -9.06655649416172       -1.87289488859766        0.80348195462855
C          -10.06401712508027       -1.15505380902916        1.44235170385957
C           -9.84994580958353        0.14677544221856        1.88867800479332
C           -8.63319521370462        0.77447051693088        1.71164451641625
C           -7.61586652369734        0.07411232692356        1.07270991876693
C           -6.25853566315893        0.36463255174381        0.71122883154083
C           -5.41996288292499        1.47020205714812        0.88909995550249
C           -4.12693434932461        1.42822851784857        0.41810326290462
C           -3.67858697837767        0.27978755171259       -0.24049577456840
C           -0.09011975049758        0.51172701951198       -0.39449610786960
C            0.97401646285581        1.38346169081860       -0.41229058001234
N            2.17557778931735        0.98300341187266        0.18480135617711
C            2.81866303802739        1.66037096341851        1.20494671023855
C            2.47839087595495        2.85390490619519        1.82483677940016
C            3.30410455925415        3.31031393775454        2.83454805044606
C            4.43383389802361        2.59734169128798        3.23161636469228
C            4.76510981624494        1.39568973813288        2.63539703389334
C            3.95050565092972        0.92059175963017        1.61781644756721
C            3.97457751460508       -0.26034748942871        0.80591276532519
C            4.79974875505149       -1.36691816889899        0.68683057081604
O            5.91293426528470       -1.65267326105300        1.40885223509286
C            6.38055679884972       -2.84003682638175        0.92986168779719
C            7.49943876549600       -3.52074045811558        1.37073084880638
C            7.80042871553071       -4.71820887807687        0.74442942705692
C            7.00941373713216       -5.21737998464911       -0.28739597442246
C            5.89181052744792       -4.53650893601438       -0.72740836480680
C            5.56927009463093       -3.33178445516058       -0.11398595706466
C            4.52617526426444       -2.35881424907798       -0.27670600115713
C            3.43512937923039       -2.24125084617977       -1.14255935652800
C            2.60061315611086       -1.15148210676196       -1.04009263762503
C            2.85798347494537       -0.18570423866932       -0.06430354162383
N            1.57285467396549        4.91505452526730       -1.42373588331162
C            2.48845717045927        5.81311101262075       -1.65683721691077
H            4.57298105411938        6.30254960096700       -1.88893209749306
H            5.25415635617637        3.89519867095867       -1.67581050286246
H            3.53279629950642        2.18681794302347       -1.31956816923835
H           -0.63606157489001        4.12606164451516       -1.62967900824689
H           -2.53771181896855        2.56428700467620       -1.55243680788628
H           -0.46129142340992       -1.50837884726070       -2.11154689926377
H           -0.90955353679863       -3.82142687673789       -2.82899307025789
H           -3.08265158682679       -4.87389485126315       -2.41787334497484
H           -4.90344993763946       -3.61600562508578       -1.29568488048867
H           -9.22596288288009       -2.88096886383397        0.45582737497861
H          -11.02797858457329       -1.61543701972371        1.59747921143638
H          -10.65395484416481        0.67186278227945        2.38248161155698
H           -8.46925494790609        1.78322667389362        2.05821661663221
H           -5.78770499131062        2.34416672541074        1.40297087751021
H           -3.46093172183065        2.26218265488673        0.57316205970412
H            0.03867057133348       -0.47018370852051        0.03850027870291
H            1.60164959719627        3.40781487103307        1.52812860272639
H            3.06623761936137        4.24003293963120        3.32934525493851
H            5.05369095827073        2.99039373583847        4.02357440664312
H            5.63089125912915        0.83144611403793        2.94596944190965
H            8.10755833453387       -3.12891559446365        2.17018058975456
H            8.66734686350010       -5.27673403185565        1.06343775507299
H            7.27867439859815       -6.15541973419914       -0.74950206210417
H            5.27991561986829       -4.92523502121698       -1.52688457384792
H            3.25762188213591       -3.00020328154820       -1.88811037238258
H            1.76800669348747       -1.02985322115740       -1.71458008346801
H            2.12792862991573        6.82728297547014       -1.78157767926144

 projected vibrational frequencies (cm⁻¹)
eigval :       -0.00     0.00     0.00     0.00     0.00     0.00
eigval :        9.42    15.10    16.95    26.39    28.36    45.83
eigval :       56.93    59.07    62.92    63.46    68.30    88.84
eigval :      103.25   110.18   115.60   127.85   136.90   145.58
eigval :      149.57   155.68   157.03   183.18   195.43   219.80
eigval :      232.74   247.23   260.12   261.69   262.28   293.85
eigval :      300.60   311.04   316.59   327.14   337.06   365.00
eigval :      372.67   381.62   388.30   393.44   403.71   407.04
eigval :      427.26   430.73   434.81   439.57   440.59   445.98
eigval :      471.22   489.87   493.60   503.23   513.12   522.26
eigval :      536.14   540.86   542.74   545.70   554.48   558.95
eigval :      560.50   565.28   569.08   584.95   595.83   600.21
eigval :      607.58   619.75   622.05   626.38   644.36   656.69
eigval :      667.24   670.42   678.51   679.60   687.91   694.95
eigval :      700.37   702.30   707.41   709.15   710.02   710.36
eigval :      760.02   770.37   772.34   775.14   776.09   778.49
eigval :      807.35   814.78   817.60   823.38   832.39   838.81
eigval :      847.69   857.88   863.05   866.65   869.27   870.25
eigval :      871.26   872.18   885.21   892.93   895.85   896.40
eigval :      900.49   901.46   901.57   904.67   908.02   910.91
eigval :      918.91   920.68   921.16   921.19   922.04   959.39
eigval :      987.82   998.90  1004.17  1036.91  1052.08  1061.19
eigval :     1061.75  1068.63  1070.36  1072.02  1094.14  1096.15
eigval :     1107.03  1127.23  1128.31  1137.27  1141.35  1145.23
eigval :     1154.30  1167.37  1171.77  1172.30  1175.20  1180.90
eigval :     1184.09  1191.57  1196.07  1199.96  1203.78  1205.24
eigval :     1222.29  1224.46  1236.26  1247.96  1248.92  1274.20
eigval :     1274.93  1277.76  1285.60  1293.22  1296.72  1298.22
eigval :     1312.73  1318.55  1335.70  1344.55  1351.31  1353.89
eigval :     1354.18  1355.10  1364.30  1369.49  1378.73  1396.38
eigval :     1397.70  1399.24  1403.63  1408.65  1412.41  1415.19
eigval :     1424.18  1433.25  1453.12  1456.57  1461.77  1466.77
eigval :     1473.37  1474.63  1479.90  1481.14  1525.24  1544.52
eigval :     1551.36  1559.18  1566.95  1573.48  1579.33  1585.44
eigval :     1587.76  1590.64  1595.06  1602.41  1607.69  1615.07
eigval :     3033.77  3066.65  3079.18  3081.35  3081.69  3082.13
eigval :     3082.16  3088.55  3089.77  3090.07  3090.22  3090.42
eigval :     3095.38  3096.74  3097.82  3098.31  3099.53  3101.02
eigval :     3102.91  3103.77  3103.85  3106.06  3106.42  3107.41
eigval :     3107.56  3107.68  3110.61

   temp. (K)  partition function   enthalpy   heat capacity  entropy
                                   cal/mol     cal/K/mol   cal/K/mol   J/K/mol
 298.15  VIB  0.425E+17            22489.081    147.553    137.858
         ROT  0.115E+09              888.752      2.981     39.870
         INT  0.490E+25            23377.834    150.534    177.728
         TR   0.166E+29             1481.254      4.968     45.348
         TOT                       24859.0875   155.5023   223.0761   933.3505

       T/K    H(0)-H(T)+PV         H(T)/Eh          T*S/Eh         G(T)/Eh
   ------------------------------------------------------------------------
    298.15    0.396155E-01    0.625895E+00    0.105991E+00    0.519904E+00
   ------------------------------------------------------------------------

         :::::::::::::::::::::::::::::::::::::::::::::::::::::
         ::                  THERMODYNAMIC                  ::
         :::::::::::::::::::::::::::::::::::::::::::::::::::::
         :: total free energy        -130.841542599291 Eh   ::
         ::.................................................::
         :: total energy             -131.361446523577 Eh   ::
         :: zero point energy           0.586279113526 Eh   ::
         :: G(RRHO) w/o ZPVE           -0.066375189239 Eh   ::
         :: G(RRHO) contrib.            0.519903924286 Eh   ::
         :::::::::::::::::::::::::::::::::::::::::::::::::::::

           -------------------------------------------------
          | TOTAL ENERGY             -131.361446523577 Eh   |
          | TOTAL ENTHALPY           -130.735551932425 Eh   |
          | TOTAL FREE ENERGY        -130.841542599291 Eh   |
          | GRADIENT NORM               0.000027998825 Eh/α |
           -------------------------------------------------

 * finished run on 2025/09/14 at 09:41:27.942
