   * xtb version 6.7.1 (edcfbbe) compiled by 'albert@albert-system' on 2024-07-22

   ID    Z sym.   atoms
    1    6 C      1-5, 7-13, 15-18, 20-33, 35-41, 43-49, 51, 52, 54-65, 67, 68
    2    7 N      6, 14, 19, 34, 42, 50, 53, 66
    3    1 H      69-106

          program call               : xtb data2507/toluene/p2Cz2Trz/p2Cz2Trz_toluene_T1_crest.xyz --gfn 2 --uhf 2 --gbsa toluene --ohess vtight --parallel 40 --molden --ceasefiles --namespace data2507/toluene/p2Cz2Trz/p2Cz2Trz_toluene_T1_finalOpt
      * Solvation model:               GBSA
        Solvent                        toluene
        Solvent mass                       9.2140E+01 g/mol
          :  Hamiltonian                  GFN2-xTB          :
 * total energy  :  -171.3736953 Eh     change        0.1275998E-07 Eh
 * total energy  :  -171.3738671 Eh     change       -0.1717680E-03 Eh
 * total energy  :  -171.3740005 Eh     change       -0.1333924E-03 Eh
 * total energy  :  -171.3740709 Eh     change       -0.7042153E-04 Eh
 * total energy  :  -171.3741952 Eh     change       -0.1242889E-03 Eh
 * total energy  :  -171.3743668 Eh     change       -0.1715648E-03 Eh
 * total energy  :  -171.3745172 Eh     change       -0.1504280E-03 Eh
 * total energy  :  -171.3746300 Eh     change       -0.1127617E-03 Eh
 * total energy  :  -171.3747106 Eh     change       -0.8063933E-04 Eh
 * total energy  :  -171.3747973 Eh     change       -0.8672375E-04 Eh
 * total energy  :  -171.3752251 Eh     change       -0.3581840E-05 Eh
 * total energy  :  -171.3752267 Eh     change       -0.1589907E-05 Eh
 * total energy  :  -171.3752275 Eh     change       -0.8552060E-06 Eh
 * total energy  :  -171.3752281 Eh     change       -0.5763045E-06 Eh
 * total energy  :  -171.3752285 Eh     change       -0.4419150E-06 Eh
 * total energy  :  -171.3752289 Eh     change       -0.3618135E-06 Eh
 * total energy  :  -171.3752291 Eh     change       -0.2217154E-06 Eh
 * total energy  :  -171.3752293 Eh     change       -0.1422617E-06 Eh
 * total energy  :  -171.3752293 Eh     change       -0.8187158E-07 Eh
   *** GEOMETRY OPTIMIZATION CONVERGED AFTER 43 ITERATIONS ***

 final structure:
================
106
 xtb: 6.7.1 (edcfbbe)
C            5.10028140116346       -6.70654532524593       -0.10702381462849
C            6.09896023600568       -5.79364442453615       -0.40964278601378
C            5.81063542589851       -4.44344552141737       -0.46827753847267
C            4.51386112798058       -3.99355031407888       -0.22426909007306
C            4.20450758004879       -2.56305518657837       -0.29312319418231
N            5.22706377658929       -1.71512049089759       -0.46621881565236
C            4.89928954791230       -0.42518088619389       -0.57863973100749
C            5.96756180782980        0.55058713434412       -0.78913449398816
C            5.66499865950017        1.82927509295925       -1.25301687315984
C            6.67211209021574        2.75765600298196       -1.43056969001199
C            7.98583314277358        2.42242513343372       -1.14037151733031
C            8.29264150927687        1.15119738989651       -0.67949046773515
C            7.29014333624443        0.21594056521187       -0.50704415204398
N            3.66174160804096        0.01922902168650       -0.50266244135723
C            2.69463962676937       -0.87768632865567       -0.25013730789987
C            1.35026371166214       -0.43351007489372       -0.06109109102161
C            0.28769382876222       -1.33873207820483       -0.21140375073118
C           -1.02705167641849       -0.93830261125188       -0.17961645007971
N           -2.03329647520021       -1.86996747640729       -0.43961525888175
C           -2.19871884933090       -3.07433701431397        0.20643670619398
C           -1.48794615811789       -3.60415880696064        1.27645801892193
C           -1.87721564923765       -4.84050379344556        1.75816089422382
C           -2.95041092315770       -5.53151242491861        1.19937761889104
C           -3.67356060237399       -4.99963541644784        0.14483421408012
C           -3.30128017661428       -3.76210097519139       -0.35596993537598
C           -3.81135850604072       -2.92006153139994       -1.40796842765027
C           -4.85321524848634       -3.04821232231000       -2.31312095017287
C           -5.05659226155495       -2.03592661503024       -3.23491746386275
C           -4.22311341221181       -0.92181152506793       -3.27293058656148
C           -3.17544704515606       -0.77542618705578       -2.38111789896857
C           -2.99222651890833       -1.76886056838891       -1.43054641420661
C           -1.34886067418580        0.43150778434128        0.06194745045602
C           -2.69329547974622        0.87629488310495        0.24912681259174
N           -2.93953619865502        2.19975993759456        0.16915562554225
C           -4.20255684670845        2.56232779823759        0.28781999461699
C           -4.51110629592295        3.99293055582588        0.21764535683009
C           -5.80784965374954        4.44365711814829        0.46023528891006
C           -6.09535154187667        5.79399423978912        0.40069027976379
C           -5.09589906611961        6.70618385327291        0.09848836436709
C           -3.80439437922880        6.26384340559085       -0.14550480956582
C           -3.51045182022375        4.91530119461468       -0.08611803280242
N           -5.22586794914229        1.71491891577841        0.45906380598101
C           -4.89874479512856        0.42501661779877        0.57362614544602
C           -5.96784710996383       -0.55020858131207        0.78244763477564
C           -7.28922864149765       -0.21631199505737        0.49395070091584
C           -8.29243266088729       -1.15113149887364        0.66465512607939
C           -7.98757302625053       -2.42105951223155        1.13038645012105
C           -6.67507161094683       -2.75550208654102        1.42696075162274
C           -5.66720006172687       -1.82761991173432        1.25102684621949
N           -3.66119058122212       -0.01993208812029        0.50104479826906
C           -0.28629080183341        1.33661481831470        0.21282334268366
C            1.02845046323598        0.93618275823139        0.18113577446058
N            2.03456480881524        1.86774820985552        0.44182603066531
C            2.19856504350986        3.07348475098575       -0.20206163680796
C            1.48738116116844        3.60422679622348       -1.27135613984020
C            1.87487387074739        4.84210762320378       -1.75053579954466
C            2.94676960812376        5.53372770248814       -1.19003018978378
C            3.67052555833611        5.00084917415759       -0.13640466937406
C            3.30005147077678        3.76173959504069        0.36183468633665
C            3.81109663167685        2.91843605051088        1.41235975006730
C            4.85261704669320        3.04638266225629        2.31793021981053
C            5.05717144488146        2.03274610153364        3.23798923581411
C            4.22514073715261        0.91748519248271        3.27389920769566
C            3.17783784534740        0.77127776680413        2.38162314987730
C            2.99346212838611        1.76612130170870        1.43275249926364
N            2.94156627031862       -2.20111696274329       -0.17165876394529
C            3.51397715087108       -4.91664448169867        0.07986123906862
C            3.80872840648798       -6.26505087818994        0.13829648928765
H            5.32816254000436       -7.76121648889561       -0.06212492851681
H            7.10500900213198       -6.13646560592106       -0.60160707775822
H            6.57499341559849       -3.71968870404553       -0.70611509744846
H            4.63787086228297        2.07429423612883       -1.47621744461950
H            6.43165950348502        3.74513697951588       -1.79497108514790
H            8.77162032624518        3.15075842011668       -1.27575990943169
H            9.31619882454105        0.88992321206400       -0.45441839282922
H            7.50880437590280       -0.77770250792356       -0.14645886385538
H            0.53318401074300       -2.36497372502806       -0.43916459855115
H           -0.66323771812018       -3.06533234522536        1.71782811232931
H           -1.33901898796968       -5.27723046410995        2.58593951959364
H           -3.22354558389713       -6.49489215686425        1.60258997019111
H           -4.51106166312900       -5.53215823767776       -0.27795984229178
H           -5.49046507715912       -3.91859128584575       -2.29801669229916
H           -5.86696404858144       -2.11162980797323       -3.94396556203560
H           -4.39409474606247       -0.15555903504277       -4.01475136632876
H           -2.52769228657807        0.08874754747607       -2.41945126245299
H           -6.57281684781645        3.72044275577819        0.69781402818807
H           -7.10135861764287        6.13748196847823        0.59169866140584
H           -5.32313727591717        7.76096403405725        0.05290956404351
H           -3.02481148105547        6.97313615371372       -0.38162161243244
H           -2.51081423261257        4.55481670883799       -0.27420182047866
H           -7.50636667868316        0.77633692362834        0.12971992413599
H           -9.31501148026783       -0.89051331781318        0.43450131957504
H           -8.77391585509518       -3.14903409976825        1.26441121935707
H           -6.43615445732906       -3.74196265241264        1.79512312174938
H           -4.64101182477429       -2.07203807371939        1.47919092302114
H           -0.53182686763513        2.36280163648131        0.44077692851255
H            0.66371856616860        3.06492695557038       -1.71409831010185
H            1.33627279295517        5.27957550620642       -2.57766044288798
H            3.21841714162174        6.49838989345862       -1.59117323186519
H            4.50706092721794        5.53386164757741        0.28768513773442
H            5.48871851691565        3.91762776787317        2.30445675233791
H            5.86730472222973        2.10827998994544        3.94732822880617
H            4.39698285323038        0.15015818133623        4.01440858083318
H            2.53117955568570       -0.09377403731486        2.41838910398078
H            2.51429359199009       -4.55681485153825        0.26897106265796
H            3.02974034179745       -6.97491348813605        0.37463955668263

          :  Hamiltonian                  GFN2-xTB          :
         :: gradient norm              0.000057137080 Eh/a0 ::
         :: HOMO-LUMO gap              0.607637531945 eV    ::
         :: SCC energy              -174.491380350437 Eh    ::
         :: -> dispersion             -0.169810286642 Eh    ::
         :: -> Gsolv                  -0.078071524177 Eh    ::
         :: repulsion energy           3.116150982804 Eh    ::

    * Orbital Energies and Occupations

         #    Occupation            Energy/Eh            Energy/eV
      -------------------------------------------------------------
         1        2.0000           -0.6929982             -18.8574
       ...           ...                  ...                  ...
       148        2.0000           -0.4108258             -11.1791
       149        2.0000           -0.4097911             -11.1510
       150        2.0000           -0.4097745             -11.1505
       151        2.0000           -0.4088559             -11.1255
       152        2.0000           -0.3945973             -10.7375
       153        2.0000           -0.3945608             -10.7365
       154        2.0000           -0.3855389             -10.4910
       155        1.9999           -0.3811021             -10.3703
       156        1.9898           -0.3769130             -10.2563
       157        1.9881           -0.3767634             -10.2523
       158        1.9670           -0.3757781             -10.2254
       159        1.0553           -0.3698711             -10.0647
       160        1.0000           -0.3087149              -8.4006 (HOMO)
       161        0.0000           -0.2863852              -7.7929 (LUMO)
       162        0.0000           -0.2863479              -7.7919
       163                         -0.2756381              -7.5005
       164                         -0.2611531              -7.1063
       165                         -0.2595135              -7.0617
       166                         -0.2519356              -6.8555
       167                         -0.2468780              -6.7179
       168                         -0.2378262              -6.4716
       169                         -0.2375426              -6.4639
       170                         -0.2323926              -6.3237
       171                         -0.2321723              -6.3177
       ...                                ...                  ...
       310                          0.7306197              19.8812
      -------------------------------------------------------------
                  HL-Gap            0.0223297 Eh            0.6076 eV

     #   Z          covCN         q      C6AA      α(0)
     1   6 C        2.920    -0.025    28.631     8.775
     2   6 C        2.918    -0.029    28.716     8.787
     3   6 C        2.923    -0.028    28.704     8.786
     4   6 C        2.984    -0.009    28.231     8.716
     5   6 C        2.967     0.215    23.471     7.947
     6   7 N        1.843    -0.335    29.552     8.057
     7   6 C        2.960     0.215    23.466     7.946
     8   6 C        2.984    -0.009    28.239     8.717
     9   6 C        2.924    -0.026    28.662     8.780
    10   6 C        2.918    -0.028    28.699     8.785
    11   6 C        2.920    -0.024    28.615     8.772
    12   6 C        2.918    -0.028    28.704     8.786
    13   6 C        2.924    -0.027    28.671     8.781
    14   7 N        1.846    -0.301    28.661     7.934
    15   6 C        2.963     0.206    23.636     7.974
    16   6 C        2.979    -0.027    28.670     8.783
    17   6 C        2.925    -0.051    29.256     8.870
    18   6 C        2.908     0.057    26.729     8.477
    19   7 N        2.803    -0.009    21.431     6.876
    20   6 C        3.075     0.051    26.785     8.485
    21   6 C        2.909    -0.043    29.067     8.840
    22   6 C        2.923    -0.031    28.766     8.795
    23   6 C        2.920    -0.032    28.808     8.802
    24   6 C        2.912    -0.029    28.728     8.789
    25   6 C        3.066    -0.009    28.164     8.702
    26   6 C        3.065    -0.012    28.258     8.717
    27   6 C        2.912    -0.031    28.769     8.795
    28   6 C        2.920    -0.037    28.917     8.818
    29   6 C        2.923    -0.034    28.848     8.808
    30   6 C        2.910    -0.043    29.060     8.839
    31   6 C        3.076     0.058    26.615     8.458
    32   6 C        2.979    -0.027    28.670     8.783
    33   6 C        2.963     0.206    23.635     7.974
    34   7 N        1.845    -0.336    29.562     8.058
    35   6 C        2.967     0.215    23.471     7.947
    36   6 C        2.984    -0.009    28.231     8.716
    37   6 C        2.923    -0.028    28.704     8.786
    38   6 C        2.918    -0.029    28.716     8.787
    39   6 C        2.920    -0.025    28.631     8.775
    40   6 C        2.918    -0.029    28.724     8.789
    41   6 C        2.923    -0.029    28.716     8.788
    42   7 N        1.843    -0.335    29.553     8.057
    43   6 C        2.960     0.215    23.465     7.945
    44   6 C        2.984    -0.009    28.239     8.717
    45   6 C        2.924    -0.027    28.671     8.781
    46   6 C        2.918    -0.028    28.704     8.786
    47   6 C        2.920    -0.025    28.616     8.772
    48   6 C        2.918    -0.028    28.699     8.785
    49   6 C        2.924    -0.026    28.662     8.780
    50   7 N        1.846    -0.301    28.662     7.934
    51   6 C        2.925    -0.051    29.256     8.870
    52   6 C        2.908     0.057    26.729     8.477
    53   7 N        2.803    -0.009    21.430     6.875
    54   6 C        3.075     0.051    26.785     8.486
    55   6 C        2.909    -0.043    29.067     8.840
    56   6 C        2.923    -0.031    28.766     8.795
    57   6 C        2.920    -0.032    28.808     8.802
    58   6 C        2.912    -0.029    28.728     8.789
    59   6 C        3.066    -0.009    28.164     8.702
    60   6 C        3.065    -0.012    28.258     8.717
    61   6 C        2.912    -0.031    28.769     8.795
    62   6 C        2.920    -0.037    28.917     8.818
    63   6 C        2.923    -0.034    28.848     8.808
    64   6 C        2.910    -0.043    29.059     8.839
    65   6 C        3.076     0.058    26.616     8.459
    66   7 N        1.845    -0.336    29.562     8.058
    67   6 C        2.923    -0.029    28.716     8.788
    68   6 C        2.918    -0.029    28.724     8.789
    69   1 H        0.926     0.048     2.348     2.396
    70   1 H        0.926     0.045     2.381     2.413
    71   1 H        0.926     0.047     2.353     2.399
    72   1 H        0.926     0.039     2.458     2.452
    73   1 H        0.926     0.047     2.363     2.404
    74   1 H        0.926     0.050     2.324     2.384
    75   1 H        0.926     0.047     2.364     2.404
    76   1 H        0.926     0.046     2.373     2.409
    77   1 H        0.926     0.057     2.232     2.336
    78   1 H        0.926     0.035     2.520     2.482
    79   1 H        0.926     0.046     2.366     2.406
    80   1 H        0.926     0.050     2.326     2.385
    81   1 H        0.926     0.051     2.311     2.377
    82   1 H        0.926     0.051     2.313     2.378
    83   1 H        0.926     0.046     2.375     2.410
    84   1 H        0.926     0.038     2.480     2.462
    85   1 H        0.926     0.018     2.759     2.598
    86   1 H        0.926     0.047     2.353     2.399
    87   1 H        0.926     0.045     2.381     2.413
    88   1 H        0.926     0.048     2.348     2.396
    89   1 H        0.926     0.045     2.380     2.412
    90   1 H        0.926     0.045     2.383     2.414
    91   1 H        0.926     0.046     2.373     2.409
    92   1 H        0.926     0.047     2.364     2.404
    93   1 H        0.926     0.050     2.324     2.384
    94   1 H        0.926     0.047     2.363     2.404
    95   1 H        0.926     0.039     2.459     2.452
    96   1 H        0.926     0.057     2.232     2.336
    97   1 H        0.926     0.035     2.520     2.482
    98   1 H        0.926     0.046     2.366     2.406
    99   1 H        0.926     0.050     2.326     2.385
   100   1 H        0.926     0.051     2.311     2.377
   101   1 H        0.926     0.051     2.313     2.378
   102   1 H        0.926     0.046     2.375     2.410
   103   1 H        0.926     0.038     2.479     2.462
   104   1 H        0.926     0.018     2.759     2.597
   105   1 H        0.926     0.045     2.383     2.414
   106   1 H        0.926     0.045     2.380     2.412

molecular dipole:
                 x           y           z       tot (Debye)
 q only:        0.001       0.001       0.002
   full:        0.001       0.001       0.002       0.006

 projected vibrational frequencies (cm⁻¹)
eigval :       -0.00    -0.00     0.00     0.00     0.00     0.00
eigval :       10.18    12.34    15.21    17.53    21.79    23.33
eigval :       25.09    25.77    29.33    30.30    31.63    47.49
eigval :       48.52    52.56    55.02    58.43    59.65    70.73
eigval :       71.96    93.51    94.46   105.02   106.24   110.60
eigval :      115.04   123.46   138.35   139.39   148.24   152.61
eigval :      154.87   167.06   187.67   193.39   196.37   197.68
eigval :      216.49   216.65   219.18   242.80   242.97   257.33
eigval :      257.73   265.59   273.78   274.87   300.66   311.91
eigval :      353.99   360.64   368.38   368.48   368.57   368.86
eigval :      369.52   374.78   389.79   395.04   397.90   408.18
eigval :      409.03   420.10   420.15   421.91   425.94   431.26
eigval :      433.05   433.99   450.57   486.12   488.01   511.97
eigval :      514.63   517.59   538.36   538.82   543.37   549.11
eigval :      550.46   566.24   577.20   585.54   586.07   586.62
eigval :      587.25   587.83   589.75   598.31   598.94   607.45
eigval :      616.47   617.42   622.26   622.70   633.35   638.70
eigval :      653.30   659.65   667.78   669.91   673.35   673.50
eigval :      674.36   676.40   683.00   689.26   709.05   710.31
eigval :      730.23   732.53   734.73   754.20   755.23   770.01
eigval :      770.29   771.26   771.61   776.22   776.33   780.30
eigval :      780.69   805.43   831.93   833.31   860.05   860.62
eigval :      866.72   872.20   872.36   874.98   875.03   875.32
eigval :      875.61   877.13   880.64   896.62   897.68   903.93
eigval :      904.27   905.45   905.64   907.75   907.87   909.50
eigval :      909.69   923.39   923.58   925.63   927.00   928.60
eigval :      928.70   929.13   929.22   931.17   931.23   931.50
eigval :      931.54   931.97   961.83   967.86   986.97   987.17
eigval :     1006.32  1011.14  1011.36  1012.20  1035.82  1063.81
eigval :     1066.18  1066.25  1069.64  1070.41  1074.42  1074.65
eigval :     1076.14  1076.98  1101.60  1101.78  1107.92  1108.11
eigval :     1110.80  1111.13  1141.62  1141.83  1150.60  1154.21
eigval :     1161.37  1164.65  1168.67  1174.99  1175.72  1175.80
eigval :     1176.14  1176.27  1177.40  1177.83  1180.29  1184.54
eigval :     1185.61  1192.36  1192.56  1199.72  1212.32  1226.87
eigval :     1228.00  1228.33  1237.41  1243.21  1244.97  1266.63
eigval :     1267.31  1269.29  1270.35  1275.31  1281.94  1284.48
eigval :     1288.83  1290.27  1302.77  1312.66  1324.34  1326.25
eigval :     1327.00  1327.21  1327.32  1338.74  1338.99  1345.57
eigval :     1349.90  1355.78  1358.62  1361.20  1367.96  1377.51
eigval :     1378.97  1391.18  1404.71  1409.80  1414.81  1421.06
eigval :     1422.67  1428.93  1430.23  1431.03  1433.26  1436.85
eigval :     1459.71  1459.97  1465.40  1467.82  1467.87  1472.63
eigval :     1475.28  1479.33  1479.37  1506.82  1515.94  1548.90
eigval :     1566.77  1567.40  1577.71  1579.18  1580.02  1580.08
eigval :     1581.93  1582.06  1583.07  1583.64  1589.97  1591.03
eigval :     1592.12  1593.14  1598.67  1601.76  3071.75  3071.83
eigval :     3076.34  3076.41  3077.22  3077.34  3080.06  3080.15
eigval :     3082.95  3083.00  3083.07  3083.11  3083.18  3083.22
eigval :     3088.05  3088.09  3090.28  3090.34  3090.37  3090.44
eigval :     3090.80  3090.86  3094.89  3095.01  3096.42  3096.89
eigval :     3096.97  3097.09  3099.16  3099.34  3100.39  3100.50
eigval :     3100.63  3100.66  3101.42  3101.67  3102.39  3102.91

   temp. (K)  partition function   enthalpy   heat capacity  entropy
                                   cal/mol     cal/K/mol   cal/K/mol   J/K/mol
 298.15  VIB  0.202E+27            32011.980    196.379    201.513
         ROT  0.182E+09              888.752      2.981     40.773
         INT  0.368E+35            32900.732    199.360    242.286
         TR   0.249E+29             1481.254      4.968     46.149
         TOT                       34381.9859   204.3284   288.4350  1206.8121

       T/K    H(0)-H(T)+PV         H(T)/Eh          T*S/Eh         G(T)/Eh
   ------------------------------------------------------------------------
    298.15    0.547912E-01    0.850108E+00    0.137045E+00    0.713063E+00
   ------------------------------------------------------------------------

         :::::::::::::::::::::::::::::::::::::::::::::::::::::
         ::                  THERMODYNAMIC                  ::
         :::::::::::::::::::::::::::::::::::::::::::::::::::::
         :: total free energy        -170.662166460029 Eh   ::
         ::.................................................::
         :: total energy             -171.375229365466 Eh   ::
         :: zero point energy           0.795316501909 Eh   ::
         :: G(RRHO) w/o ZPVE           -0.082253596472 Eh   ::
         :: G(RRHO) contrib.            0.713062905437 Eh   ::
         :::::::::::::::::::::::::::::::::::::::::::::::::::::

           -------------------------------------------------
          | TOTAL ENERGY             -171.375229365466 Eh   |
          | TOTAL ENTHALPY           -170.525121681477 Eh   |
          | TOTAL FREE ENERGY        -170.662166460029 Eh   |
          | GRADIENT NORM               0.000057968313 Eh/α |
          | HOMO-LUMO GAP               0.607621239114 eV   |
           -------------------------------------------------

 * finished run on 2025/08/25 at 01:42:03.506
