   * xtb version 6.7.1 (edcfbbe) compiled by 'albert@albert-system' on 2024-07-22

   ID    Z sym.   atoms
    1    6 C      1-5, 7-13, 15-18, 20-33, 35-41, 43-49, 51, 52, 54-65, 67, 68
    2    7 N      6, 14, 19, 34, 42, 50, 53, 66
    3    1 H      69-106

          program call               : xtb data2507/toluene/p2Cz2Trz/p2Cz2Trz_toluene_S0_finalOpt.xtbopt.xyz --gfn 2 --uhf 2 --gbsa toluene --ohess vtight --parallel 40 --molden --ceasefiles --namespace data2507/toluene/p2Cz2Trz/p2Cz2Trz_toluene_T1_preOpt
      * Solvation model:               GBSA
        Solvent                        toluene
        Solvent mass                       9.2140E+01 g/mol
          :  Hamiltonian                  GFN2-xTB          :
 * total energy  :  -171.3667542 Eh     change        0.7185577E-09 Eh
 * total energy  :  -171.3705012 Eh     change       -0.3747051E-02 Eh
 * total energy  :  -171.3725975 Eh     change       -0.2096204E-02 Eh
 * total energy  :  -171.3729423 Eh     change       -0.3448382E-03 Eh
 * total energy  :  -171.3734215 Eh     change       -0.4791625E-03 Eh
 * total energy  :  -171.3735352 Eh     change       -0.1137872E-03 Eh
 * total energy  :  -171.3736501 Eh     change       -0.1148892E-03 Eh
 * total energy  :  -171.3737417 Eh     change       -0.9159233E-04 Eh
 * total energy  :  -171.3738155 Eh     change       -0.7374163E-04 Eh
 * total energy  :  -171.3738840 Eh     change       -0.6852618E-04 Eh
 * total energy  :  -171.3751340 Eh     change       -0.2358257E-06 Eh
 * total energy  :  -171.3751343 Eh     change       -0.2444490E-06 Eh
 * total energy  :  -171.3751345 Eh     change       -0.1963180E-06 Eh
 * total energy  :  -171.3751346 Eh     change       -0.1433677E-06 Eh
 * total energy  :  -171.3751347 Eh     change       -0.1065271E-06 Eh
 * total energy  :  -171.3751345 Eh     change        0.1725541E-06 Eh
 * total energy  :  -171.3751349 Eh     change       -0.3855052E-06 Eh
 * total energy  :  -171.3751350 Eh     change       -0.1005311E-06 Eh
 * total energy  :  -171.3751351 Eh     change       -0.8092067E-07 Eh
   *** GEOMETRY OPTIMIZATION CONVERGED AFTER 148 ITERATIONS ***

 final structure:
================
106
 xtb: 6.7.1 (edcfbbe)
C            5.19511158350996       -6.56980769707491       -0.94007050792570
C            6.16800356516085       -5.61343161481404       -1.18734775484177
C            5.85549581454771       -4.26949521486163       -1.11107442180963
C            4.56024552865762       -3.86978929361484       -0.78523964882938
C            4.22766287307554       -2.44543000742003       -0.69980296689249
N            5.23318765104666       -1.56703276102013       -0.80910938735676
C            4.88471118604549       -0.27827643785789       -0.77412981504859
C            5.93221932239138        0.73318557744285       -0.90572568204531
C            5.59785167889759        2.04701508528533       -1.22760930709674
C            6.58438526976548        3.00875422810631       -1.32447570503191
C            7.90927953350168        2.67111119853090       -1.09403747494440
C            8.24778061880852        1.36485763646363       -0.77499349512398
C            7.26577636163884        0.39681753103595       -0.68421303411059
N            3.64416448859269        0.13456768157875       -0.61549363251774
C            2.69732264734967       -0.80002514025462       -0.43294172671933
C            1.35487670259456       -0.39968347625292       -0.15336541011445
C            0.29711073702190       -1.29555212643543       -0.37535445102308
C           -1.01956301070650       -0.91811612980750       -0.25788632625013
N           -2.02626331945869       -1.82452499399919       -0.59395423529832
C           -2.16959166805472       -3.09436711137712       -0.08208148621035
C           -1.42148165148207       -3.73901012588783        0.89543332127890
C           -1.79490456671200       -5.02273272627126        1.24875002364976
C           -2.88811803254051       -5.64961952225735        0.65428235247690
C           -3.64794965660993       -5.00470494287151       -0.30721586578681
C           -3.29211111757514       -3.71787149194812       -0.67900130848045
C           -3.83875746236443       -2.76435384857092       -1.61058492393566
C           -4.91357157103538       -2.79152343904562       -2.48529531903440
C           -5.14711608860477       -1.68307290496867       -3.28072452837347
C           -4.31229381360671       -0.57067658317370       -3.22482275818240
C           -3.23345048773776       -0.52286077433120       -2.35981399859515
C           -3.01918743884968       -1.61591142758528       -1.53313942550161
C           -1.34626053672833        0.41039703135142        0.15092328823585
C           -2.68882750227007        0.81062279508089        0.43004447873941
N           -2.95533372972406        2.13040621074145        0.50428094557542
C           -4.21947248264531        2.45576316739172        0.69688568531283
C           -4.55250039181673        3.88002363077033        0.78216449440890
C           -5.84799739076191        4.27930431249293        1.10757223615529
C           -6.16101991124528        5.62312767467988        1.18367724428131
C           -5.18839474644521        6.57983922557819        0.93665318217337
C           -3.89770191421343        6.18889915588244        0.61341622772886
C           -3.57838114207989        4.84701275919445        0.53658991559624
N           -5.22486822299510        1.57717663604480        0.80616297477271
C           -4.87619483105976        0.28846464171798        0.77084010495565
C           -5.92364056172813       -0.72306485782739        0.90245523697900
C           -7.25742190134864       -0.38631027129025        0.68282811436228
C           -8.23947951209393       -1.35426533354176        0.77390375671611
C           -7.90080833589299       -2.66088209139338        1.09127786262174
C           -6.57568720741105       -2.99894271443269        1.31979218735138
C           -5.58912467632796       -2.03724551929280        1.22276104727691
N           -3.63561052184162       -0.12424505967376        0.61200699733068
C           -0.28846477736223        1.30621292998248        0.37312540730459
C            1.02823507935617        0.92883385760676        0.25549032319569
N            2.03505264577772        1.83525401467440        0.59106077253776
C            2.17802923708417        3.10511149566567        0.07909869754657
C            1.42866387098110        3.75015534646696       -0.89719660442620
C            1.80184153824930        5.03388299980224       -1.25074683038014
C            2.89611675785434        5.66035581744196       -0.65780219136795
C            3.65725881877829        5.01500895135572        0.30236528207057
C            3.30160468701627        3.72821473495079        0.67445160126300
C            3.84933998427778        2.77443636014664        1.60512335454631
C            4.92556872805138        2.80114885021841        2.47810314358031
C            5.16000992884129        1.69254465060410        3.27305243243278
C            4.32460756876878        0.58052007191112        3.21849864251559
C            3.24433164739271        0.53319135474034        2.35525189088921
C            3.02925248613240        1.62629177098854        1.52885070184495
N            2.96362533646702       -2.11983228453865       -0.50701574057878
C            3.58584250993586       -4.83643436743791       -0.53943683946183
C            3.90465210535106       -6.17842929763700       -0.61643144109646
H            5.44218434852458       -7.61942714759241       -0.99931678038407
H            7.17299687940600       -5.91726072143195       -1.44083010674797
H            6.59950972234242       -3.51172230479549       -1.30342427833611
H            4.56234186150756        2.29358244292742       -1.40563610070035
H            6.31862879718129        4.02394752579511       -1.57845358176191
H            8.67907686942604        3.42510664260643       -1.16611557452129
H            9.28002674350272        1.10187037047254       -0.59661747145852
H            7.50906356559704       -0.62467719555146       -0.43391297127649
H            0.54497295353783       -2.28533650979884       -0.72783396950828
H           -0.58132184391591       -3.25052643284865        1.36534777864194
H           -1.22828772295212       -5.54824616301208        2.00263980990391
H           -3.14777323084114       -6.65302227385251        0.95607466577432
H           -4.50068252163929       -5.48856730520705       -0.75718966097363
H           -5.55266769331413       -3.65866384594006       -2.54389828839442
H           -5.98240884360417       -1.68059852546871       -3.96435705372493
H           -4.50752139597513        0.27280050623319       -3.87066958884582
H           -2.58508768793831        0.34098549713765       -2.32430328181635
H           -6.59180139184079        3.52128197082863        1.29974940980569
H           -7.16620348931317        5.92660337104968        1.43684164603737
H           -5.43586345768383        7.62936873987095        0.99576064498619
H           -3.13903729701365        6.93322989429377        0.42113163473551
H           -2.57946810277107        4.52598671515459        0.28401694046256
H           -7.50084600498522        0.63545489205425        0.43376812031280
H           -9.27190051720114       -1.09092262522819        0.59705155647937
H           -8.67063593333843       -3.41481798411249        1.16356795761681
H           -6.30978285786093       -4.01442167435961        1.57247785645995
H           -4.55346433819191       -2.28413486762858        1.39944993203048
H           -0.53632442037826        2.29594004523420        0.72576386855085
H            0.58768928620633        3.26201274569872       -1.36600518836354
H            1.23416937820571        5.55973951642461       -2.00360304827356
H            3.15556502183032        6.66376665959900       -0.95974179966086
H            4.51083798931263        5.49853276377647        0.75109659494069
H            5.56510138251616        3.66803083759292        2.53573158651872
H            5.99651444300011        1.68964888694333        3.95520347473426
H            4.52055574844762       -0.26308397328090        3.86396460952386
H            2.59555290749350       -0.33038697717412        2.32080347509540
H            2.58711632488304       -4.51506372884576       -0.28656505501013
H            3.14576568397948       -6.92249507647618       -0.42399708727248

          :  Hamiltonian                  GFN2-xTB          :
         :: gradient norm              0.000082090494 Eh/a0 ::
         :: HOMO-LUMO gap              0.607924596624 eV    ::
         :: SCC energy              -174.491411659503 Eh    ::
         :: -> dispersion             -0.170266018398 Eh    ::
         :: -> Gsolv                  -0.077836934342 Eh    ::
         :: repulsion energy           3.116276561928 Eh    ::

    * Orbital Energies and Occupations

         #    Occupation            Energy/Eh            Energy/eV
      -------------------------------------------------------------
         1        2.0000           -0.6929798             -18.8569
       ...           ...                  ...                  ...
       148        2.0000           -0.4108390             -11.1795
       149        2.0000           -0.4097978             -11.1512
       150        2.0000           -0.4097872             -11.1509
       151        2.0000           -0.4088739             -11.1260
       152        2.0000           -0.3945932             -10.7374
       153        2.0000           -0.3945561             -10.7364
       154        2.0000           -0.3855630             -10.4917
       155        1.9999           -0.3811664             -10.3721
       156        1.9902           -0.3769505             -10.2573
       157        1.9886           -0.3768081             -10.2535
       158        1.9667           -0.3757666             -10.2251
       159        1.0545           -0.3698546             -10.0643
       160        1.0000           -0.3087005              -8.4002 (HOMO)
       161        0.0000           -0.2863597              -7.7922 (LUMO)
       162        0.0000           -0.2863296              -7.7914
       163                         -0.2756377              -7.5005
       164                         -0.2611969              -7.1075
       165                         -0.2595464              -7.0626
       166                         -0.2519380              -6.8556
       167                         -0.2468842              -6.7181
       168                         -0.2378638              -6.4726
       169                         -0.2375427              -6.4639
       170                         -0.2323909              -6.3237
       171                         -0.2321840              -6.3180
       ...                                ...                  ...
       310                          0.7306904              19.8831
      -------------------------------------------------------------
                  HL-Gap            0.0223408 Eh            0.6079 eV

     #   Z          covCN         q      C6AA      α(0)
     1   6 C        2.920    -0.025    28.632     8.775
     2   6 C        2.918    -0.029    28.716     8.787
     3   6 C        2.923    -0.028    28.704     8.786
     4   6 C        2.984    -0.009    28.231     8.716
     5   6 C        2.968     0.215    23.471     7.947
     6   7 N        1.843    -0.335    29.553     8.057
     7   6 C        2.960     0.215    23.464     7.945
     8   6 C        2.984    -0.009    28.238     8.717
     9   6 C        2.924    -0.026    28.661     8.779
    10   6 C        2.918    -0.028    28.698     8.785
    11   6 C        2.920    -0.025    28.616     8.772
    12   6 C        2.918    -0.028    28.704     8.786
    13   6 C        2.924    -0.027    28.670     8.781
    14   7 N        1.846    -0.301    28.662     7.934
    15   6 C        2.963     0.206    23.633     7.974
    16   6 C        2.979    -0.027    28.670     8.783
    17   6 C        2.925    -0.051    29.254     8.870
    18   6 C        2.908     0.057    26.729     8.477
    19   7 N        2.803    -0.009    21.431     6.876
    20   6 C        3.075     0.051    26.781     8.485
    21   6 C        2.909    -0.043    29.068     8.841
    22   6 C        2.923    -0.031    28.766     8.795
    23   6 C        2.920    -0.032    28.808     8.802
    24   6 C        2.912    -0.029    28.727     8.789
    25   6 C        3.066    -0.009    28.163     8.702
    26   6 C        3.065    -0.012    28.259     8.717
    27   6 C        2.912    -0.031    28.770     8.795
    28   6 C        2.920    -0.037    28.919     8.819
    29   6 C        2.923    -0.034    28.849     8.808
    30   6 C        2.910    -0.043    29.066     8.840
    31   6 C        3.076     0.058    26.613     8.458
    32   6 C        2.979    -0.027    28.669     8.783
    33   6 C        2.963     0.206    23.634     7.974
    34   7 N        1.845    -0.336    29.563     8.058
    35   6 C        2.968     0.215    23.471     7.947
    36   6 C        2.984    -0.009    28.231     8.716
    37   6 C        2.923    -0.028    28.703     8.786
    38   6 C        2.918    -0.029    28.716     8.787
    39   6 C        2.920    -0.025    28.632     8.775
    40   6 C        2.918    -0.029    28.724     8.789
    41   6 C        2.923    -0.029    28.716     8.788
    42   7 N        1.843    -0.335    29.553     8.057
    43   6 C        2.960     0.215    23.464     7.945
    44   6 C        2.984    -0.009    28.239     8.717
    45   6 C        2.924    -0.027    28.671     8.781
    46   6 C        2.918    -0.028    28.704     8.786
    47   6 C        2.920    -0.024    28.615     8.772
    48   6 C        2.918    -0.028    28.698     8.785
    49   6 C        2.924    -0.026    28.661     8.780
    50   7 N        1.846    -0.301    28.661     7.934
    51   6 C        2.925    -0.051    29.255     8.870
    52   6 C        2.908     0.057    26.729     8.477
    53   7 N        2.803    -0.009    21.431     6.876
    54   6 C        3.075     0.051    26.781     8.485
    55   6 C        2.909    -0.043    29.068     8.841
    56   6 C        2.923    -0.031    28.766     8.795
    57   6 C        2.920    -0.032    28.808     8.802
    58   6 C        2.912    -0.029    28.727     8.789
    59   6 C        3.066    -0.009    28.163     8.702
    60   6 C        3.065    -0.012    28.259     8.717
    61   6 C        2.912    -0.031    28.770     8.795
    62   6 C        2.920    -0.037    28.919     8.819
    63   6 C        2.923    -0.034    28.849     8.808
    64   6 C        2.910    -0.043    29.066     8.840
    65   6 C        3.076     0.058    26.613     8.458
    66   7 N        1.845    -0.336    29.563     8.058
    67   6 C        2.923    -0.029    28.716     8.788
    68   6 C        2.918    -0.029    28.724     8.789
    69   1 H        0.926     0.048     2.348     2.396
    70   1 H        0.926     0.045     2.381     2.413
    71   1 H        0.926     0.047     2.353     2.399
    72   1 H        0.926     0.039     2.460     2.453
    73   1 H        0.926     0.047     2.363     2.404
    74   1 H        0.926     0.050     2.323     2.383
    75   1 H        0.926     0.047     2.363     2.404
    76   1 H        0.926     0.046     2.375     2.410
    77   1 H        0.926     0.057     2.233     2.337
    78   1 H        0.926     0.035     2.519     2.482
    79   1 H        0.926     0.046     2.366     2.405
    80   1 H        0.926     0.050     2.325     2.385
    81   1 H        0.926     0.051     2.311     2.377
    82   1 H        0.926     0.050     2.314     2.379
    83   1 H        0.926     0.046     2.376     2.410
    84   1 H        0.926     0.038     2.479     2.462
    85   1 H        0.926     0.018     2.757     2.596
    86   1 H        0.926     0.047     2.353     2.399
    87   1 H        0.926     0.045     2.381     2.413
    88   1 H        0.926     0.048     2.348     2.396
    89   1 H        0.926     0.045     2.380     2.412
    90   1 H        0.926     0.045     2.383     2.414
    91   1 H        0.926     0.046     2.375     2.410
    92   1 H        0.926     0.047     2.363     2.404
    93   1 H        0.926     0.050     2.323     2.383
    94   1 H        0.926     0.047     2.363     2.404
    95   1 H        0.926     0.039     2.460     2.453
    96   1 H        0.926     0.057     2.233     2.337
    97   1 H        0.926     0.035     2.519     2.482
    98   1 H        0.926     0.046     2.366     2.405
    99   1 H        0.926     0.050     2.325     2.385
   100   1 H        0.926     0.051     2.311     2.377
   101   1 H        0.926     0.050     2.314     2.379
   102   1 H        0.926     0.046     2.376     2.410
   103   1 H        0.926     0.038     2.479     2.462
   104   1 H        0.926     0.018     2.757     2.597
   105   1 H        0.926     0.045     2.383     2.414
   106   1 H        0.926     0.045     2.380     2.412

molecular dipole:
                 x           y           z       tot (Debye)
 q only:       -0.000      -0.001      -0.001
   full:       -0.000      -0.001      -0.001       0.003

 projected vibrational frequencies (cm⁻¹)
eigval :       -0.00    -0.00     0.00     0.00     0.00     0.00
eigval :        8.93    12.30    13.00    18.54    23.14    24.79
eigval :       27.47    28.35    29.77    29.98    32.96    46.65
eigval :       51.16    54.59    57.02    59.08    63.10    70.72
eigval :       71.37    91.65    91.84   102.33   104.39   110.74
eigval :      114.15   122.11   135.85   138.23   147.70   151.60
eigval :      153.85   166.88   187.01   192.91   195.52   197.31
eigval :      216.46   216.96   219.66   242.10   242.24   256.77
eigval :      257.00   264.10   270.67   271.57   299.69   310.41
eigval :      353.73   360.44   367.72   368.32   368.40   370.95
eigval :      371.96   374.76   389.33   394.59   397.24   408.37
eigval :      409.86   418.92   419.07   421.78   425.52   431.10
eigval :      433.37   434.03   450.95   485.75   487.87   511.15
eigval :      514.33   517.16   536.40   537.04   542.28   547.33
eigval :      550.00   566.27   577.33   585.30   586.01   586.72
eigval :      587.01   587.91   589.93   598.53   598.95   607.10
eigval :      616.46   617.62   622.74   623.24   633.56   638.38
eigval :      653.80   660.15   667.77   670.34   673.77   673.90
eigval :      674.65   676.25   683.18   688.98   708.81   710.01
eigval :      730.35   733.02   734.89   753.81   754.89   765.71
eigval :      765.97   770.28   770.75   774.04   774.34   775.88
eigval :      776.12   805.23   832.21   833.47   852.19   858.45
eigval :      859.85   868.63   870.85   871.57   871.78   875.41
eigval :      875.69   877.47   878.22   895.32   897.31   900.01
eigval :      900.25   902.41   902.62   907.57   907.68   910.14
eigval :      910.39   916.84   917.10   917.91   918.08   929.20
eigval :      929.58   930.15   930.21   930.46   930.52   931.33
eigval :      931.63   932.56   961.78   967.98   987.08   987.28
eigval :     1006.72  1011.10  1011.25  1012.34  1035.57  1063.94
eigval :     1064.66  1064.91  1068.92  1069.44  1074.46  1074.49
eigval :     1075.41  1076.36  1101.01  1101.17  1108.18  1108.33
eigval :     1110.28  1110.59  1139.75  1139.85  1149.27  1154.09
eigval :     1160.36  1164.55  1166.63  1171.53  1174.49  1174.81
eigval :     1174.98  1175.33  1176.18  1176.25  1177.74  1183.95
eigval :     1185.18  1192.18  1192.20  1198.59  1211.47  1225.78
eigval :     1227.61  1227.86  1236.49  1243.15  1244.95  1266.98
eigval :     1267.86  1268.66  1269.52  1274.79  1281.11  1283.71
eigval :     1287.73  1289.92  1302.41  1312.67  1324.16  1326.39
eigval :     1327.03  1327.30  1327.46  1338.72  1338.99  1345.79
eigval :     1350.21  1355.53  1358.27  1360.76  1367.16  1377.58
eigval :     1379.17  1390.76  1404.56  1409.32  1414.79  1421.11
eigval :     1422.32  1429.04  1430.29  1431.15  1433.77  1436.91
eigval :     1459.27  1459.50  1465.58  1467.95  1468.00  1472.58
eigval :     1475.33  1479.04  1479.06  1506.78  1515.86  1548.64
eigval :     1566.67  1567.29  1577.81  1579.28  1579.99  1580.13
eigval :     1581.96  1582.08  1582.97  1583.50  1590.25  1591.29
eigval :     1592.31  1593.37  1598.72  1601.86  3071.36  3071.39
eigval :     3075.84  3075.86  3077.00  3077.04  3079.85  3079.86
eigval :     3082.37  3082.41  3082.59  3082.62  3082.65  3082.74
eigval :     3087.69  3087.74  3089.78  3089.79  3090.15  3090.26
eigval :     3090.99  3091.09  3094.91  3095.03  3096.03  3096.46
eigval :     3096.82  3096.92  3098.74  3098.79  3100.47  3100.53
eigval :     3100.56  3100.60  3101.04  3101.17  3102.34  3102.80

   temp. (K)  partition function   enthalpy   heat capacity  entropy
                                   cal/mol     cal/K/mol   cal/K/mol   J/K/mol
 298.15  VIB  0.184E+27            32042.401    196.823    201.923
         ROT  0.181E+09              888.752      2.981     40.770
         INT  0.334E+35            32931.153    199.804    242.693
         TR   0.249E+29             1481.254      4.968     46.149
         TOT                       34412.4071   204.7724   288.8423  1208.5160

       T/K    H(0)-H(T)+PV         H(T)/Eh          T*S/Eh         G(T)/Eh
   ------------------------------------------------------------------------
    298.15    0.548397E-01    0.849768E+00    0.137238E+00    0.712529E+00
   ------------------------------------------------------------------------

         :::::::::::::::::::::::::::::::::::::::::::::::::::::
         ::                  THERMODYNAMIC                  ::
         :::::::::::::::::::::::::::::::::::::::::::::::::::::
         :: total free energy        -170.662605797824 Eh   ::
         ::.................................................::
         :: total energy             -171.375135095387 Eh   ::
         :: zero point energy           0.794927913280 Eh   ::
         :: G(RRHO) w/o ZPVE           -0.082398615718 Eh   ::
         :: G(RRHO) contrib.            0.712529297562 Eh   ::
         :::::::::::::::::::::::::::::::::::::::::::::::::::::

           -------------------------------------------------
          | TOTAL ENERGY             -171.375135095387 Eh   |
          | TOTAL ENTHALPY           -170.525367520729 Eh   |
          | TOTAL FREE ENERGY        -170.662605797824 Eh   |
          | GRADIENT NORM               0.000075646187 Eh/α |
          | HOMO-LUMO GAP               0.607922781814 eV   |
           -------------------------------------------------

 * finished run on 2025/08/25 at 01:30:28.301
