   * xtb version 6.7.1 (edcfbbe) compiled by 'albert@albert-system' on 2024-07-22

   ID    Z sym.   atoms
    1    6 C      1-5, 7-13, 15-18, 20-33, 35-41, 43-49, 51, 52, 54-65, 67, 68
    2    7 N      6, 14, 19, 34, 42, 50, 53, 66
    3    1 H      69-106

          program call               : xtb data2507/toluene/p2Cz2Trz/p2Cz2Trz.xyz --gfn 2 --gbsa toluene --ohess vtight --parallel 40 --molden --ceasefiles --namespace data2507/toluene/p2Cz2Trz/p2Cz2Trz_toluene_S0_preOpt
      * Solvation model:               GBSA
        Solvent                        toluene
        Solvent mass                       9.2140E+01 g/mol
          :  Hamiltonian                  GFN2-xTB          :
 * total energy  :  -171.4072266 Eh     change       -0.7745797E-08 Eh
 * total energy  :  -171.4245716 Eh     change       -0.1734500E-01 Eh
 * total energy  :  -171.4299501 Eh     change       -0.5378518E-02 Eh
 * total energy  :  -171.4318802 Eh     change       -0.1930129E-02 Eh
 * total energy  :  -171.4329240 Eh     change       -0.1043802E-02 Eh
 * total energy  :  -171.4332246 Eh     change       -0.3005573E-03 Eh
 * total energy  :  -171.4333679 Eh     change       -0.1433221E-03 Eh
 * total energy  :  -171.4335078 Eh     change       -0.1398795E-03 Eh
 * total energy  :  -171.4336443 Eh     change       -0.1365619E-03 Eh
 * total energy  :  -171.4337830 Eh     change       -0.1387093E-03 Eh
 * total energy  :  -171.4355006 Eh     change       -0.1173856E-05 Eh
 * total energy  :  -171.4355016 Eh     change       -0.1023062E-05 Eh
 * total energy  :  -171.4355025 Eh     change       -0.9158077E-06 Eh
 * total energy  :  -171.4355032 Eh     change       -0.6472617E-06 Eh
 * total energy  :  -171.4355036 Eh     change       -0.4477421E-06 Eh
 * total energy  :  -171.4355041 Eh     change       -0.4327950E-06 Eh
 * total energy  :  -171.4355045 Eh     change       -0.4042207E-06 Eh
 * total energy  :  -171.4355048 Eh     change       -0.3780423E-06 Eh
 * total energy  :  -171.4355048 Eh     change       -0.5427296E-08 Eh
   *** GEOMETRY OPTIMIZATION CONVERGED AFTER 122 ITERATIONS ***

 final structure:
================
106
 xtb: 6.7.1 (edcfbbe)
C            5.76356023471854       -5.66043339038773        2.44680952774771
C            6.66879615787583       -4.85665599256497        1.76991838124714
C            6.23893631587087       -3.69975356366569        1.14916377490157
C            4.89330425439362       -3.33613816188136        1.20264240894257
C            4.43659716311307       -2.11238912003045        0.54776882343143
N            5.34382933008726       -1.33607068613468       -0.03707214498938
C            4.87764493767057       -0.27407772670414       -0.68714454105417
C            5.82935311922867        0.61154641012416       -1.35124492875203
C            5.37060474907295        1.64213981063534       -2.17098562728090
C            6.27164616891910        2.49702733822702       -2.77524333281352
C            7.63263754510261        2.33591520499722       -2.56365641364222
C            8.09425735353995        1.31317764226114       -1.74847562775475
C            7.19908431170100        0.45129009837626       -1.14505757870995
N            3.58666348774892        0.04879664734056       -0.74804886740557
C            2.77163595345513       -0.71886512778229       -0.04134287096215
C            1.35556170044111       -0.33185365485248        0.03755462860021
C            0.38826625542044       -1.32611194848570        0.07687862157905
C           -0.96599893992713       -1.01677562253848        0.07253846701990
N           -1.90985080941362       -2.04587370538708        0.12024156329374
C           -2.98410307878029       -2.11785211647021        0.98582455190998
C           -3.27503284762483       -1.33604597627014        2.09426092753947
C           -4.42383391672711       -1.62662443208211        2.80600633157662
C           -5.25785258063266       -2.68040667025419        2.43799588800539
C           -4.95199027762017       -3.48537967133118        1.35839898045360
C           -3.80406985481824       -3.21046208607170        0.62690726190568
C           -3.18821077158014       -3.82334819338355       -0.51824465456286
C           -3.52305565974717       -4.90996162282238       -1.31592949474369
C           -2.70530299036582       -5.22361063036533       -2.38395997981138
C           -1.57349231995451       -4.46266142717323       -2.66792027708716
C           -1.21911229834384       -3.37764605003859       -1.88695976764107
C           -2.02573049192201       -3.07167265565476       -0.80122184721543
C           -1.35586201502194        0.33102285635586        0.04170594600448
C           -2.77195625061858        0.71866560244296       -0.03327195645503
N           -3.58890636853274       -0.04767269871423       -0.73919031743380
C           -4.87952492400418        0.27608287085150       -0.67568625798409
C           -5.83300208160986       -0.60774769233274       -1.33962974493160
C           -5.37637534040124       -1.63740118478506       -2.16172743264844
C           -6.27906686764402       -2.49056173082174       -2.76596039477392
C           -7.63959335243215       -2.32861697896443       -2.55203921063543
C           -8.09910260621145       -1.30679776301376       -1.73451806464478
C           -7.20227487286991       -0.44665437004077       -1.13107286390452
N           -5.34381251501991        1.33739122933233       -0.02316832137637
C           -4.43500831402646        2.11221203682033        0.56124302882533
C           -4.89004372212373        3.33503390096701        1.21903793215644
C           -6.23587230503850        3.69850365068124        1.16946722902859
C           -6.66445666814068        4.85427888510339        1.79318160255196
C           -5.75771393073858        5.65711259669212        2.46917052218009
C           -4.41814935547448        5.30186289346408        2.52103055046685
C           -3.98273075997331        4.14710037622061        1.89976301454457
N           -3.13231012334365        1.82703759111788        0.60012111799015
C           -0.38842544245698        1.32513563012432        0.08265302110937
C            0.96578181323428        1.01580822195322        0.07422546195339
N            1.90997724910060        2.04452857654320        0.12349355827790
C            2.02449253636118        3.07318497956508       -0.79493801348849
C            1.21530987583337        3.38350677106677       -1.87752688185943
C            1.56856399710603        4.47089744612985       -2.65569089246902
C            2.70188853729124        5.22977935540515       -2.37221213624608
C            3.52210649713281        4.91185354997186       -1.30734103002450
C            3.18822377367960        3.82303265051986       -0.51227496019990
C            3.80610702880727        3.20620484000010        0.62966424752481
C            4.95547048438288        3.47838588904880        1.35991342984830
C            5.26282564609837        2.67010561768339        2.43661793618245
C            4.42902991561089        1.61554926405430        2.80291009738230
C            3.27878957731066        1.32766169880128        2.09239524720449
C            2.98615509267955        2.11304829622500        0.98694449576755
N            3.13385071136667       -1.82785743046265        0.58982403925081
C            3.98752495563906       -4.14908329214485        1.88437015429217
C            4.42421476596032       -5.30495563394577        2.50265557638886
H            6.10180951411024       -6.56426290077667        2.93112498143034
H            7.71123371111195       -5.13438916958737        1.72637819240035
H            6.92715104291247       -3.06323442709472        0.61539040781520
H            4.30829384046510        1.75697434288590       -2.32027583843872
H            5.91119533803336        3.29241150612851       -3.40983893001915
H            8.33459571380904        3.00815492055974       -3.03422619957855
H            9.15417129368974        1.18949131589933       -1.58344831313873
H            7.53814233968974       -0.34708737483430       -0.50352454296810
H            0.70470851099519       -2.35795626395781        0.10190486766287
H           -2.63015178190687       -0.51962866571218        2.39043270703118
H           -4.67798367891855       -1.02237932481723        3.66497239300388
H           -6.15052279619466       -2.87012399692455        3.01467145698663
H           -5.59121345529754       -4.31021932026043        1.08386610403142
H           -4.40824773135356       -5.48949826612627       -1.10406627151869
H           -2.94611225978805       -6.06537324601794       -3.01549947983337
H           -0.95914903868545       -4.72231131697065       -3.51741032865256
H           -0.34734269394775       -2.78471245313472       -2.12215493867158
H           -4.31439516566417       -1.75285807414272       -2.31286255053114
H           -5.92026447433483       -3.28525577158625       -3.40235379308393
H           -8.34284382943612       -2.99951081185069       -3.02260048718508
H           -9.15866149286968       -1.18242388792611       -1.56773749952105
H           -7.53965345441983        0.35100861291861       -0.48776362144617
H           -6.92526773673432        3.06269269185446        0.63637635675221
H           -7.70706208999037        5.13184550416576        1.75265508194314
H           -6.09494569290541        6.56006703433945        2.95582087994097
H           -3.71224330781818        5.92694766960547        3.04727821362464
H           -2.94453352867555        3.85416019025213        1.93257347377525
H           -0.70486327317715        2.35685704855494        0.11216063382739
H            0.34240988639409        2.79210999408652       -2.11242140640994
H            0.95207641303350        4.73411092384706       -3.50252777817514
H            2.94185476644125        6.07344638877888       -3.00153150397414
H            4.40836250512848        5.48989119727979       -1.09583189704551
H            5.59459976117843        4.30373753087474        1.08670391730220
H            6.15652237204279        2.85778679057261        3.01236896010491
H            4.68445357882314        1.00859429413875        3.65958308168267
H            2.63403880306628        0.51070023317816        2.38733242986175
H            2.94949392363370       -3.85591350278523        1.92026041842640
H            3.71948032474091       -5.93071183694213        3.02967690915916

          :  Hamiltonian                  GFN2-xTB          :
         :: gradient norm              0.000053738275 Eh/a0 ::
         :: HOMO-LUMO gap              1.682460705785 eV    ::
         :: SCC energy              -174.560174131239 Eh    ::
         :: -> dispersion             -0.170205406255 Eh    ::
         :: -> Gsolv                  -0.078585361926 Eh    ::
         :: repulsion energy           3.124669283578 Eh    ::

    * Orbital Energies and Occupations

         #    Occupation            Energy/Eh            Energy/eV
      -------------------------------------------------------------
         1        2.0000           -0.7001927             -19.0532
       ...           ...                  ...                  ...
       147        2.0000           -0.4186738             -11.3927
       148        2.0000           -0.4176179             -11.3640
       149        2.0000           -0.4175870             -11.3631
       150        2.0000           -0.4144597             -11.2780
       151        2.0000           -0.4144198             -11.2769
       152        2.0000           -0.3915364             -10.6542
       153        2.0000           -0.3914162             -10.6510
       154        2.0000           -0.3902175             -10.6184
       155        2.0000           -0.3899779             -10.6118
       156        2.0000           -0.3883482             -10.5675
       157        2.0000           -0.3878710             -10.5545
       158        2.0000           -0.3778926             -10.2830
       159        2.0000           -0.3726975             -10.1416 (HOMO)
       160                         -0.3108682              -8.4592 (LUMO)
       161                         -0.3003657              -8.1734
       162                         -0.3003144              -8.1720
       163                         -0.2883350              -7.8460
       164                         -0.2649432              -7.2095
       165                         -0.2611042              -7.1050
       166                         -0.2558808              -6.9629
       167                         -0.2536944              -6.9034
       168                         -0.2390571              -6.5051
       169                         -0.2383907              -6.4869
       170                         -0.2381059              -6.4792
       ...                                ...                  ...
       310                          0.7351107              20.0034
      -------------------------------------------------------------
                  HL-Gap            0.0618293 Eh            1.6825 eV

     #   Z          covCN         q      C6AA      α(0)
     1   6 C        2.920    -0.021    28.527     8.759
     2   6 C        2.918    -0.026    28.660     8.779
     3   6 C        2.923    -0.025    28.638     8.776
     4   6 C        2.983    -0.010    28.269     8.722
     5   6 C        2.985     0.219    23.384     7.932
     6   7 N        1.844    -0.317    29.066     7.990
     7   6 C        2.988     0.220    23.363     7.929
     8   6 C        2.984    -0.010    28.255     8.719
     9   6 C        2.924    -0.023    28.590     8.769
    10   6 C        2.918    -0.026    28.651     8.778
    11   6 C        2.920    -0.021    28.522     8.758
    12   6 C        2.918    -0.027    28.666     8.780
    13   6 C        2.923    -0.025    28.633     8.775
    14   7 N        1.845    -0.318    29.086     7.993
    15   6 C        2.993     0.240    22.997     7.866
    16   6 C        2.984    -0.008    28.221     8.714
    17   6 C        2.928    -0.046    29.142     8.853
    18   6 C        2.912     0.070    26.426     8.429
    19   7 N        2.802    -0.048    22.166     6.992
    20   6 C        3.075     0.057    26.644     8.463
    21   6 C        2.910    -0.053    29.323     8.879
    22   6 C        2.924    -0.038    28.938     8.822
    23   6 C        2.920    -0.043    29.078     8.843
    24   6 C        2.913    -0.036    28.890     8.814
    25   6 C        3.067    -0.017    28.375     8.735
    26   6 C        3.068    -0.015    28.319     8.726
    27   6 C        2.913    -0.033    28.818     8.803
    28   6 C        2.920    -0.040    29.003     8.831
    29   6 C        2.924    -0.034    28.835     8.806
    30   6 C        2.910    -0.052    29.290     8.874
    31   6 C        3.074     0.051    26.781     8.485
    32   6 C        2.984    -0.008    28.221     8.714
    33   6 C        2.993     0.240    22.998     7.867
    34   7 N        1.845    -0.318    29.084     7.993
    35   6 C        2.988     0.220    23.364     7.929
    36   6 C        2.984    -0.010    28.255     8.719
    37   6 C        2.924    -0.023    28.590     8.769
    38   6 C        2.918    -0.026    28.651     8.778
    39   6 C        2.920    -0.021    28.522     8.758
    40   6 C        2.918    -0.027    28.666     8.780
    41   6 C        2.923    -0.025    28.633     8.775
    42   7 N        1.844    -0.317    29.066     7.990
    43   6 C        2.985     0.219    23.385     7.932
    44   6 C        2.983    -0.010    28.269     8.722
    45   6 C        2.923    -0.025    28.638     8.776
    46   6 C        2.918    -0.026    28.660     8.779
    47   6 C        2.920    -0.021    28.527     8.759
    48   6 C        2.918    -0.027    28.674     8.781
    49   6 C        2.923    -0.026    28.647     8.777
    50   7 N        1.845    -0.331    29.441     8.041
    51   6 C        2.928    -0.046    29.142     8.853
    52   6 C        2.912     0.070    26.426     8.429
    53   7 N        2.802    -0.048    22.167     6.993
    54   6 C        3.074     0.051    26.781     8.485
    55   6 C        2.909    -0.052    29.290     8.874
    56   6 C        2.924    -0.034    28.835     8.806
    57   6 C        2.920    -0.040    29.003     8.831
    58   6 C        2.913    -0.033    28.818     8.803
    59   6 C        3.068    -0.015    28.319     8.726
    60   6 C        3.067    -0.017    28.376     8.735
    61   6 C        2.913    -0.036    28.890     8.814
    62   6 C        2.920    -0.043    29.078     8.843
    63   6 C        2.924    -0.038    28.938     8.822
    64   6 C        2.910    -0.053    29.324     8.880
    65   6 C        3.075     0.057    26.644     8.463
    66   7 N        1.845    -0.331    29.441     8.041
    67   6 C        2.923    -0.026    28.647     8.777
    68   6 C        2.918    -0.027    28.674     8.781
    69   1 H        0.926     0.055     2.264     2.353
    70   1 H        0.926     0.052     2.292     2.367
    71   1 H        0.926     0.053     2.282     2.362
    72   1 H        0.926     0.045     2.379     2.412
    73   1 H        0.926     0.050     2.315     2.380
    74   1 H        0.926     0.055     2.256     2.349
    75   1 H        0.926     0.052     2.291     2.367
    76   1 H        0.926     0.052     2.300     2.372
    77   1 H        0.926     0.063     2.167     2.302
    78   1 H        0.925     0.006     2.951     2.686
    79   1 H        0.926     0.030     2.584     2.514
    80   1 H        0.926     0.039     2.457     2.451
    81   1 H        0.926     0.044     2.395     2.420
    82   1 H        0.926     0.044     2.403     2.424
    83   1 H        0.926     0.042     2.422     2.434
    84   1 H        0.926     0.038     2.471     2.458
    85   1 H        0.926     0.021     2.722     2.580
    86   1 H        0.926     0.045     2.379     2.412
    87   1 H        0.926     0.050     2.315     2.380
    88   1 H        0.926     0.055     2.256     2.349
    89   1 H        0.926     0.052     2.291     2.367
    90   1 H        0.926     0.052     2.300     2.372
    91   1 H        0.926     0.053     2.282     2.362
    92   1 H        0.926     0.052     2.292     2.367
    93   1 H        0.926     0.055     2.264     2.353
    94   1 H        0.926     0.050     2.321     2.382
    95   1 H        0.926     0.047     2.353     2.399
    96   1 H        0.926     0.063     2.167     2.302
    97   1 H        0.926     0.021     2.722     2.580
    98   1 H        0.926     0.038     2.471     2.458
    99   1 H        0.926     0.042     2.422     2.434
   100   1 H        0.926     0.043     2.403     2.424
   101   1 H        0.926     0.044     2.395     2.420
   102   1 H        0.926     0.039     2.457     2.451
   103   1 H        0.926     0.030     2.584     2.514
   104   1 H        0.925     0.006     2.951     2.686
   105   1 H        0.926     0.047     2.352     2.398
   106   1 H        0.926     0.050     2.320     2.382

molecular dipole:
                 x           y           z       tot (Debye)
 q only:       -0.001       0.000      -0.368
   full:       -0.000       0.000      -0.261       0.664

 projected vibrational frequencies (cm⁻¹)
eigval :       -0.00    -0.00    -0.00     0.00     0.00     0.00
eigval :       10.72    12.58    13.28    18.13    19.03    23.60
eigval :       24.64    26.79    29.94    40.89    41.63    42.19
eigval :       42.70    50.85    54.09    55.26    60.05    66.82
eigval :       73.83    82.58    93.89    99.53   100.04   102.81
eigval :      119.06   124.29   132.20   144.14   146.53   150.33
eigval :      160.94   165.89   187.32   188.93   192.97   193.48
eigval :      204.51   206.94   231.31   234.10   256.41   259.42
eigval :      261.72   265.40   274.57   274.72   305.77   307.54
eigval :      349.32   365.49   367.02   367.23   367.72   367.79
eigval :      374.12   387.04   395.77   398.61   403.02   409.31
eigval :      409.68   414.87   423.49   424.50   432.58   435.49
eigval :      439.24   449.24   454.59   478.60   497.51   510.76
eigval :      517.74   519.44   533.29   534.23   541.95   542.02
eigval :      552.54   581.72   585.77   586.50   586.69   586.91
eigval :      588.01   596.85   610.20   611.99   612.21   617.63
eigval :      622.29   628.19   628.38   639.26   641.93   645.13
eigval :      659.40   666.13   671.57   674.21   675.53   675.61
eigval :      679.96   692.91   698.92   708.81   708.94   714.36
eigval :      743.84   753.28   754.96   755.80   759.38   767.19
eigval :      767.51   775.58   775.79   778.71   778.94   795.99
eigval :      796.46   829.26   846.90   847.01   867.40   869.08
eigval :      874.02   874.21   875.37   875.93   876.06   877.70
eigval :      877.71   882.99   893.11   896.68   900.80   902.20
eigval :      902.62   904.40   904.61   913.51   913.54   914.59
eigval :      914.74   916.60   917.42   921.32   921.69   930.70
eigval :      930.78   931.60   931.61   932.97   933.18   933.84
eigval :      933.89   942.68   969.86   978.52   989.18   989.24
eigval :     1011.37  1012.05  1032.34  1046.19  1058.63  1069.64
eigval :     1069.73  1072.89  1073.34  1073.50  1074.67  1074.78
eigval :     1077.15  1082.38  1107.25  1108.78  1109.94  1110.26
eigval :     1113.26  1113.38  1150.29  1150.60  1153.96  1160.26
eigval :     1166.47  1168.13  1169.41  1174.31  1175.72  1175.89
eigval :     1176.74  1176.80  1177.65  1180.63  1183.78  1188.20
eigval :     1189.86  1199.87  1200.03  1209.91  1210.40  1211.45
eigval :     1217.25  1234.50  1235.19  1235.47  1251.11  1268.38
eigval :     1268.51  1268.54  1270.21  1292.49  1295.53  1297.48
eigval :     1300.36  1307.40  1321.48  1326.42  1327.02  1328.29
eigval :     1328.44  1344.80  1355.09  1355.75  1359.99  1361.33
eigval :     1367.49  1369.91  1370.50  1373.88  1376.46  1399.09
eigval :     1413.73  1426.68  1427.10  1427.80  1428.24  1429.68
eigval :     1429.72  1437.63  1440.73  1462.98  1463.05  1468.64
eigval :     1472.36  1472.89  1474.89  1484.37  1485.37  1485.44
eigval :     1506.05  1508.97  1516.10  1523.67  1539.37  1573.73
eigval :     1573.77  1579.79  1580.16  1582.17  1582.25  1583.35
eigval :     1589.07  1589.67  1591.59  1591.66  1593.15  1593.28
eigval :     1597.57  1597.82  1611.99  1613.21  3059.78  3060.55
eigval :     3072.86  3072.98  3077.36  3077.37  3080.95  3080.95
eigval :     3081.07  3081.11  3081.41  3081.43  3085.00  3085.02
eigval :     3086.90  3086.96  3087.04  3087.10  3088.69  3088.73
eigval :     3094.35  3094.36  3094.95  3095.06  3097.62  3097.63
eigval :     3098.96  3099.02  3099.97  3100.01  3101.05  3101.08
eigval :     3104.28  3104.33  3106.66  3106.77  3108.47  3108.54

   temp. (K)  partition function   enthalpy   heat capacity  entropy
                                   cal/mol     cal/K/mol   cal/K/mol   J/K/mol
 298.15  VIB  0.213E+27            31878.115    194.896    201.372
         ROT  0.903E+08              888.752      2.981     39.385
         INT  0.193E+35            32766.868    197.877    240.757
         TR   0.249E+29             1481.254      4.968     46.149
         TOT                       34248.1217   202.8455   286.9056  1200.4130

       T/K    H(0)-H(T)+PV         H(T)/Eh          T*S/Eh         G(T)/Eh
   ------------------------------------------------------------------------
    298.15    0.545779E-01    0.853517E+00    0.136318E+00    0.717199E+00
   ------------------------------------------------------------------------

         :::::::::::::::::::::::::::::::::::::::::::::::::::::
         ::                  THERMODYNAMIC                  ::
         :::::::::::::::::::::::::::::::::::::::::::::::::::::
         :: total free energy        -170.718305773990 Eh   ::
         ::.................................................::
         :: total energy             -171.435504851155 Eh   ::
         :: zero point energy           0.798939328504 Eh   ::
         :: G(RRHO) w/o ZPVE           -0.081740251339 Eh   ::
         :: G(RRHO) contrib.            0.717199077165 Eh   ::
         :::::::::::::::::::::::::::::::::::::::::::::::::::::

           -------------------------------------------------
          | TOTAL ENERGY             -171.435504851155 Eh   |
          | TOTAL ENTHALPY           -170.581987666657 Eh   |
          | TOTAL FREE ENERGY        -170.718305773990 Eh   |
          | GRADIENT NORM               0.000053744784 Eh/α |
          | HOMO-LUMO GAP               1.682460676646 eV   |
           -------------------------------------------------

 * finished run on 2025/08/25 at 01:22:15.962
