   * xtb version 6.7.1 (edcfbbe) compiled by 'albert@albert-system' on 2024-07-22

   ID    Z sym.   atoms
    1    6 C      1-5, 7-13, 15-18, 20-33, 35-41, 43-49, 51, 52, 54-65, 67, 68
    2    7 N      6, 14, 19, 34, 42, 50, 53, 66
    3    1 H      69-106

          program call               : xtb data2507/toluene/p2Cz2Trz/p2Cz2Trz_toluene_S0_crest.xyz --gfn 2 --gbsa toluene --ohess vtight --parallel 40 --molden --ceasefiles --namespace data2507/toluene/p2Cz2Trz/p2Cz2Trz_toluene_S0_finalOpt
      * Solvation model:               GBSA
        Solvent                        toluene
        Solvent mass                       9.2140E+01 g/mol
          :  Hamiltonian                  GFN2-xTB          :
 * total energy  :  -171.4343985 Eh     change       -0.4997958E-08 Eh
 * total energy  :  -171.4345948 Eh     change       -0.1963188E-03 Eh
 * total energy  :  -171.4347591 Eh     change       -0.1643147E-03 Eh
 * total energy  :  -171.4348560 Eh     change       -0.9694437E-04 Eh
 * total energy  :  -171.4349935 Eh     change       -0.1374327E-03 Eh
 * total energy  :  -171.4351709 Eh     change       -0.1774805E-03 Eh
 * total energy  :  -171.4353244 Eh     change       -0.1534452E-03 Eh
 * total energy  :  -171.4354346 Eh     change       -0.1102526E-03 Eh
 * total energy  :  -171.4355262 Eh     change       -0.9157328E-04 Eh
 * total energy  :  -171.4356135 Eh     change       -0.8727865E-04 Eh
 * total energy  :  -171.4366124 Eh     change       -0.3770462E-06 Eh
 * total energy  :  -171.4366127 Eh     change       -0.2666671E-06 Eh
 * total energy  :  -171.4366128 Eh     change       -0.1711257E-06 Eh
 * total energy  :  -171.4366130 Eh     change       -0.1909177E-06 Eh
 * total energy  :  -171.4366132 Eh     change       -0.1521852E-06 Eh
 * total energy  :  -171.4366133 Eh     change       -0.1318063E-06 Eh
 * total energy  :  -171.4366134 Eh     change       -0.1355770E-06 Eh
 * total energy  :  -171.4366136 Eh     change       -0.1247552E-06 Eh
 * total energy  :  -171.4366137 Eh     change       -0.8178779E-07 Eh
   *** GEOMETRY OPTIMIZATION CONVERGED AFTER 115 ITERATIONS ***

 final structure:
================
106
 xtb: 6.7.1 (edcfbbe)
C            5.33559582189300       -6.49024792301303       -0.10591070696436
C            6.32254623628851       -5.53812042658704       -0.31313344356769
C            5.98612012661384       -4.20198602760966       -0.41483502283162
C            4.65278181306199       -3.80667172991254       -0.30776653063395
C            4.29249994597695       -2.39499513215353       -0.42138797845751
N            5.25894585135671       -1.51613503000861       -0.66912277846194
C            4.87670547517794       -0.25383769805400       -0.83946496446075
C            5.89463511564171        0.74953778407509       -1.13685624987996
C            5.51881900558267        2.06101884718580       -1.42641463147573
C            6.48333292558188        3.01371810920590       -1.69087829580417
C            7.82643265083361        2.66939352102387       -1.66688026457019
C            8.20591384216477        1.36672262243763       -1.37934489158972
C            7.24654769652525        0.40809672333290       -1.11682069313883
N            3.61331602278259        0.15699051557968       -0.73901585215368
C            2.73488798370783       -0.77115961378302       -0.39395348736146
C            1.34157646364549       -0.36086987115659       -0.16747547217167
C            0.32455629552557       -1.23102084573029       -0.53330384914880
C           -1.01371646979955       -0.88332078080350       -0.39592723017682
N           -2.00079762927382       -1.77509589512537       -0.82018185545449
C           -2.14978924151961       -3.07610887945204       -0.37382817488554
C           -1.36596488152029       -3.79911911780056        0.51279487690663
C           -1.75376506246027       -5.09331159801771        0.80780721972413
C           -2.89602253378117       -5.65618685779596        0.24246217121241
C           -3.69109648194486       -4.93240378235030       -0.62463196373706
C           -3.32208158438770       -3.62977786843271       -0.93533600901758
C           -3.90649923456106       -2.60493183911329       -1.75668144887007
C           -5.04283376403227       -2.54896361827734       -2.55282083253130
C           -5.31410188949925       -1.38137200726769       -3.23847022743989
C           -4.45638827760932       -0.28633432548998       -3.15735402214688
C           -3.31773902232690       -0.32081631607461       -2.37450345280380
C           -3.06086334824668       -1.47799716020398       -1.65402755108275
C           -1.33793852577537        0.37191956281769        0.14111264638376
C           -2.73023717920985        0.78108565356296        0.37511533895357
N           -3.00483767181459        2.07408515031449        0.25851733518844
C           -4.28307664450789        2.40882291081659        0.44126696865667
C           -4.63862405426370        3.82403213626290        0.36267973836242
C           -5.95583870451743        4.22978328447250        0.57682599460718
C           -6.28668834557618        5.56959971706307        0.51297811265192
C           -5.31012925857942        6.51503100685714        0.23706545682055
C           -3.99877643073471        6.11796547522442        0.02257150350580
C           -3.66130252503264        4.77966163468349        0.08412077632255
N           -5.25021615676726        1.52874605641310        0.68222125334964
C           -4.87079571976558        0.26223586226741        0.82504102351968
C           -5.89040739493500       -0.74399928866625        1.10674506702273
C           -7.24232010556844       -0.40348714970041        1.07550133677740
C           -8.20329925991278       -1.36451480318804        1.32294015478137
C           -7.82540695071771       -2.66843212049668        1.60687807094116
C           -6.48231602193075       -3.01183008927846        1.64170928818289
C           -5.51616060705721       -2.05688739242669        1.39166163309374
N           -3.60894832088337       -0.14990857878399        0.71211838896448
C           -0.32067064503014        1.24245326949704        0.50614617157722
C            1.01740209128050        0.89469465614744        0.36862801767592
N            2.00529602739671        1.78585815236543        0.79292371814849
C            2.15835275143526        3.08507918627369        0.34296229595533
C            1.37710458909698        3.80762085735354       -0.54627069377683
C            1.76857117278538        5.09991480393024       -0.84463709827157
C            2.91192998687222        5.66130709243265       -0.27999841736254
C            3.70444437265039        4.93788967424643        0.58972086742617
C            3.33170165699371        3.63712782700033        0.90384715031568
C            3.91268173868851        2.61294723862982        1.72843581576926
C            5.04858943696478        2.55576627252269        2.52511237340476
C            5.31619276355697        1.38919248443051        3.21394469231659
C            4.45522840666485        0.29650402065646        3.13557156465827
C            3.31689283069654        0.33221785965955        2.35230898463189
C            3.06380283148688        1.48817848181589        1.62849419017884
N            3.01101717358179       -2.06197973734790       -0.25914640380021
C            3.66502834992401       -4.76888081031349       -0.09700907327993
C            4.00789623735742       -6.10372231026072        0.00034533122795
H            5.60097621490478       -7.53403500986351       -0.02846962199812
H            7.35600321539883       -5.83972606993463       -0.39574219128185
H            6.73920719552076       -3.44714680207090       -0.57826455281463
H            4.47006150407996        2.31314471245156       -1.43782382816321
H            6.18652003826132        4.02704912841520       -1.91548076137421
H            8.57851993682254        3.41662194477292       -1.87202452540141
H            9.25199901870500        1.09965674286430       -1.36072219613439
H            7.52212618414618       -0.60973065766831       -0.88910484892923
H            0.58859528014703       -2.18563907436012       -0.96275287327198
H           -0.48796161066554       -3.36332436303642        0.96597009203471
H           -1.15871571492208       -5.67771198777226        1.49387264347263
H           -3.16389850697204       -6.67088159672838        0.49577634063026
H           -4.58476602892110       -5.36198153095057       -1.05031006657912
H           -5.69965398706267       -3.40164644863289       -2.62939582933559
H           -6.19689386320376       -1.31291634035386       -3.85612156704231
H           -4.68357553652017        0.60938375160631       -3.71738936521042
H           -2.65359021560078        0.53160175228268       -2.32359308880444
H           -6.70052689276556        3.48011463635664        0.79393011196095
H           -7.30739626407860        5.87947526886291        0.68006741988568
H           -5.57100497730373        7.56172892184864        0.18939729937817
H           -3.23822480779138        6.85387151633218       -0.19172248768052
H           -2.64613340821772        4.45324990646351       -0.07990404655497
H           -7.51659820530292        0.61518403655162        0.84973846035839
H           -9.24941872358898       -1.09835671236343        1.29533370126036
H           -8.57876727422665       -3.41742036161846        1.80063674811543
H           -6.18675700511543       -4.02618426877200        1.86331596143827
H           -4.46730893033194       -2.30818602261262        1.41148121426514
H           -0.58488861712301        2.19697931533720        0.93577310550796
H            0.49839053350708        3.37253991244383       -0.99871266376808
H            1.17574856308044        5.68403013190207       -1.53286165944813
H            3.18275698667631        6.67453312768734       -0.53604072458175
H            4.59897544519043        5.36624967186103        1.01482136555909
H            5.70792995438411        3.40668831931721        2.59959242515847
H            6.19861254373608        1.31973899645842        3.83201659630459
H            4.67956676517836       -0.59843423658250        3.69801220514564
H            2.65019298680029       -0.51834331516265        2.30361959634199
H            2.63736486800593       -4.45055762518018       -0.01537412608159
H            3.23909487405775       -6.84488594010938        0.16028270728652

          :  Hamiltonian                  GFN2-xTB          :
         :: gradient norm              0.000044865601 Eh/a0 ::
         :: HOMO-LUMO gap              1.619901429162 eV    ::
         :: SCC energy              -174.561509323324 Eh    ::
         :: -> dispersion             -0.170010267386 Eh    ::
         :: -> Gsolv                  -0.078744466512 Eh    ::
         :: repulsion energy           3.124895669682 Eh    ::

    * Orbital Energies and Occupations

         #    Occupation            Energy/Eh            Energy/eV
      -------------------------------------------------------------
         1        2.0000           -0.6998115             -19.0428
       ...           ...                  ...                  ...
       147        2.0000           -0.4183849             -11.3848
       148        2.0000           -0.4173521             -11.3567
       149        2.0000           -0.4172998             -11.3553
       150        2.0000           -0.4140693             -11.2674
       151        2.0000           -0.4140057             -11.2657
       152        2.0000           -0.3912973             -10.6477
       153        2.0000           -0.3911521             -10.6438
       154        2.0000           -0.3898153             -10.6074
       155        2.0000           -0.3895832             -10.6011
       156        2.0000           -0.3875688             -10.5463
       157        2.0000           -0.3871586             -10.5351
       158        2.0000           -0.3793693             -10.3232
       159        2.0000           -0.3706074             -10.0847 (HOMO)
       160                         -0.3110771              -8.4648 (LUMO)
       161                         -0.3001745              -8.1682
       162                         -0.3001161              -8.1666
       163                         -0.2881189              -7.8401
       164                         -0.2647417              -7.2040
       165                         -0.2608873              -7.0991
       166                         -0.2551943              -6.9442
       167                         -0.2531843              -6.8895
       168                         -0.2388237              -6.4987
       169                         -0.2381457              -6.4803
       170                         -0.2378624              -6.4726
       ...                                ...                  ...
       310                          0.7356583              20.0183
      -------------------------------------------------------------
                  HL-Gap            0.0595303 Eh            1.6199 eV

     #   Z          covCN         q      C6AA      α(0)
     1   6 C        2.920    -0.021    28.529     8.759
     2   6 C        2.918    -0.026    28.662     8.779
     3   6 C        2.923    -0.025    28.638     8.776
     4   6 C        2.983    -0.010    28.271     8.722
     5   6 C        2.984     0.219    23.390     7.933
     6   7 N        1.844    -0.317    29.068     7.990
     7   6 C        2.987     0.220    23.374     7.931
     8   6 C        2.984    -0.010    28.260     8.720
     9   6 C        2.924    -0.024    28.596     8.769
    10   6 C        2.918    -0.026    28.653     8.778
    11   6 C        2.920    -0.021    28.522     8.758
    12   6 C        2.918    -0.027    28.669     8.780
    13   6 C        2.923    -0.025    28.634     8.775
    14   7 N        1.844    -0.317    29.062     7.989
    15   6 C        2.992     0.239    23.014     7.869
    16   6 C        2.983    -0.008    28.220     8.714
    17   6 C        2.929    -0.046    29.137     8.852
    18   6 C        2.911     0.070    26.434     8.431
    19   7 N        2.802    -0.047    22.137     6.988
    20   6 C        3.075     0.050    26.803     8.488
    21   6 C        2.909    -0.052    29.289     8.874
    22   6 C        2.924    -0.033    28.831     8.805
    23   6 C        2.920    -0.041    29.008     8.832
    24   6 C        2.912    -0.033    28.823     8.804
    25   6 C        3.068    -0.015    28.327     8.727
    26   6 C        3.067    -0.017    28.369     8.734
    27   6 C        2.913    -0.036    28.885     8.813
    28   6 C        2.920    -0.043    29.077     8.843
    29   6 C        2.924    -0.038    28.939     8.822
    30   6 C        2.910    -0.053    29.310     8.877
    31   6 C        3.075     0.057    26.654     8.465
    32   6 C        2.983    -0.008    28.223     8.714
    33   6 C        2.992     0.239    23.020     7.870
    34   7 N        1.845    -0.331    29.437     8.041
    35   6 C        2.984     0.219    23.393     7.934
    36   6 C        2.983    -0.011    28.272     8.722
    37   6 C        2.923    -0.025    28.639     8.776
    38   6 C        2.918    -0.026    28.662     8.779
    39   6 C        2.920    -0.021    28.529     8.759
    40   6 C        2.918    -0.027    28.674     8.781
    41   6 C        2.923    -0.026    28.646     8.777
    42   7 N        1.844    -0.317    29.068     7.990
    43   6 C        2.987     0.220    23.375     7.931
    44   6 C        2.984    -0.010    28.259     8.720
    45   6 C        2.923    -0.025    28.635     8.775
    46   6 C        2.918    -0.027    28.669     8.780
    47   6 C        2.920    -0.021    28.522     8.758
    48   6 C        2.918    -0.026    28.653     8.778
    49   6 C        2.924    -0.024    28.595     8.769
    50   7 N        1.844    -0.317    29.059     7.989
    51   6 C        2.929    -0.046    29.138     8.852
    52   6 C        2.911     0.070    26.435     8.431
    53   7 N        2.802    -0.047    22.146     6.989
    54   6 C        3.075     0.050    26.801     8.488
    55   6 C        2.909    -0.052    29.288     8.874
    56   6 C        2.924    -0.033    28.831     8.805
    57   6 C        2.920    -0.041    29.008     8.832
    58   6 C        2.912    -0.033    28.824     8.804
    59   6 C        3.068    -0.016    28.328     8.727
    60   6 C        3.067    -0.017    28.372     8.734
    61   6 C        2.913    -0.036    28.886     8.813
    62   6 C        2.920    -0.043    29.078     8.843
    63   6 C        2.924    -0.038    28.940     8.822
    64   6 C        2.910    -0.053    29.313     8.878
    65   6 C        3.075     0.057    26.654     8.465
    66   7 N        1.845    -0.331    29.440     8.041
    67   6 C        2.923    -0.026    28.646     8.777
    68   6 C        2.918    -0.027    28.674     8.781
    69   1 H        0.926     0.054     2.266     2.354
    70   1 H        0.926     0.052     2.298     2.371
    71   1 H        0.926     0.052     2.289     2.366
    72   1 H        0.926     0.046     2.368     2.406
    73   1 H        0.926     0.050     2.314     2.379
    74   1 H        0.926     0.055     2.258     2.350
    75   1 H        0.926     0.052     2.294     2.369
    76   1 H        0.926     0.052     2.299     2.371
    77   1 H        0.926     0.062     2.178     2.308
    78   1 H        0.926     0.024     2.667     2.554
    79   1 H        0.926     0.040     2.452     2.449
    80   1 H        0.926     0.042     2.428     2.436
    81   1 H        0.926     0.043     2.412     2.429
    82   1 H        0.926     0.044     2.395     2.420
    83   1 H        0.926     0.039     2.463     2.454
    84   1 H        0.926     0.030     2.587     2.515
    85   1 H        0.925     0.005     2.968     2.694
    86   1 H        0.926     0.053     2.288     2.366
    87   1 H        0.926     0.052     2.298     2.371
    88   1 H        0.926     0.054     2.266     2.354
    89   1 H        0.926     0.051     2.312     2.378
    90   1 H        0.926     0.048     2.343     2.393
    91   1 H        0.926     0.052     2.299     2.371
    92   1 H        0.926     0.052     2.295     2.369
    93   1 H        0.926     0.055     2.259     2.350
    94   1 H        0.926     0.050     2.314     2.379
    95   1 H        0.926     0.046     2.369     2.407
    96   1 H        0.926     0.062     2.174     2.306
    97   1 H        0.926     0.024     2.668     2.554
    98   1 H        0.926     0.040     2.452     2.449
    99   1 H        0.926     0.042     2.427     2.436
   100   1 H        0.926     0.043     2.412     2.429
   101   1 H        0.926     0.044     2.395     2.420
   102   1 H        0.926     0.039     2.463     2.454
   103   1 H        0.926     0.030     2.589     2.516
   104   1 H        0.925     0.005     2.969     2.695
   105   1 H        0.926     0.048     2.344     2.394
   106   1 H        0.926     0.051     2.312     2.378

molecular dipole:
                 x           y           z       tot (Debye)
 q only:        0.003      -0.001       0.012
   full:        0.002      -0.001       0.011       0.028

 projected vibrational frequencies (cm⁻¹)
eigval :       -0.00    -0.00     0.00     0.00     0.00     0.00
eigval :        8.49    10.35    10.97    12.50    13.87    19.80
eigval :       23.71    25.30    28.46    29.53    39.24    42.96
eigval :       44.74    50.33    51.21    54.24    59.54    70.06
eigval :       72.70    89.57    90.27    98.75    99.43   104.37
eigval :      111.42   122.55   140.62   143.04   146.72   153.66
eigval :      159.45   167.38   186.86   187.56   191.87   193.46
eigval :      196.71   208.27   223.72   241.93   254.34   260.29
eigval :      261.29   267.03   274.24   275.48   301.45   309.82
eigval :      349.59   363.48   366.00   366.16   367.46   369.54
eigval :      376.20   391.46   396.40   398.49   399.07   403.46
eigval :      405.71   417.00   423.84   423.98   430.40   435.86
eigval :      444.88   447.49   453.06   483.50   496.66   511.73
eigval :      517.47   519.85   535.98   537.19   543.27   543.30
eigval :      548.79   575.41   586.14   586.44   586.53   587.88
eigval :      588.23   589.44   610.56   612.14   615.65   616.63
eigval :      621.97   629.05   629.47   636.96   643.90   646.85
eigval :      659.13   664.49   672.80   674.18   674.95   675.22
eigval :      681.24   692.38   696.17   708.53   709.22   713.63
eigval :      743.70   752.45   755.40   755.73   759.71   769.16
eigval :      769.69   775.29   775.82   780.48   780.84   796.83
eigval :      797.40   829.23   846.46   847.32   867.85   869.99
eigval :      871.00   872.19   874.53   875.28   876.15   877.31
eigval :      877.71   880.10   894.03   898.37   898.46   900.34
eigval :      900.54   905.47   906.03   911.54   911.58   914.18
eigval :      914.36   920.38   920.44   921.59   921.96   929.93
eigval :      930.23   931.63   931.97   932.11   932.45   934.09
eigval :      934.80   943.04   969.81   978.71   989.14   989.16
eigval :     1011.35  1011.89  1032.65  1046.65  1058.75  1068.30
eigval :     1068.43  1071.57  1072.09  1072.99  1073.97  1074.08
eigval :     1076.33  1081.93  1106.96  1108.31  1108.57  1109.94
eigval :     1111.78  1111.96  1149.23  1149.54  1153.07  1161.00
eigval :     1165.67  1166.65  1169.50  1174.76  1175.03  1175.44
eigval :     1175.65  1176.85  1178.04  1178.42  1182.40  1186.80
eigval :     1188.38  1199.63  1199.88  1209.95  1210.19  1210.74
eigval :     1219.89  1233.30  1234.32  1234.52  1250.25  1266.90
eigval :     1267.32  1267.66  1269.08  1292.18  1295.34  1297.44
eigval :     1300.31  1307.65  1321.55  1326.78  1327.40  1328.41
eigval :     1328.57  1345.78  1354.98  1355.42  1360.24  1361.46
eigval :     1367.42  1369.95  1370.01  1373.12  1375.94  1398.34
eigval :     1412.34  1426.09  1426.57  1427.60  1427.97  1429.52
eigval :     1429.66  1437.87  1441.31  1462.58  1462.76  1468.24
eigval :     1472.59  1472.80  1474.52  1484.30  1485.40  1485.49
eigval :     1506.18  1509.39  1515.89  1523.98  1540.00  1573.62
eigval :     1573.65  1579.82  1580.35  1582.14  1582.34  1583.00
eigval :     1589.04  1589.66  1591.61  1591.83  1593.06  1593.21
eigval :     1597.53  1597.74  1611.73  1613.04  3056.95  3057.00
eigval :     3075.71  3075.80  3077.13  3077.22  3080.42  3080.50
eigval :     3080.58  3080.58  3081.83  3081.85  3085.24  3085.32
eigval :     3086.25  3086.35  3086.63  3086.67  3089.35  3089.38
eigval :     3094.23  3094.33  3094.68  3094.78  3097.13  3097.17
eigval :     3098.11  3098.22  3099.54  3099.56  3103.71  3103.84
eigval :     3104.74  3104.97  3106.73  3107.08  3107.98  3108.31

   temp. (K)  partition function   enthalpy   heat capacity  entropy
                                   cal/mol     cal/K/mol   cal/K/mol   J/K/mol
 298.15  VIB  0.146E+28            31941.156    194.606    202.934
         ROT  0.181E+09              888.752      2.981     40.762
         INT  0.264E+36            32829.908    197.586    243.696
         TR   0.249E+29             1481.254      4.968     46.149
         TOT                       34311.1623   202.5546   289.8448  1212.7108

       T/K    H(0)-H(T)+PV         H(T)/Eh          T*S/Eh         G(T)/Eh
   ------------------------------------------------------------------------
    298.15    0.546783E-01    0.853416E+00    0.137715E+00    0.715701E+00
   ------------------------------------------------------------------------

         :::::::::::::::::::::::::::::::::::::::::::::::::::::
         ::                  THERMODYNAMIC                  ::
         :::::::::::::::::::::::::::::::::::::::::::::::::::::
         :: total free energy        -170.720912594941 Eh   ::
         ::.................................................::
         :: total energy             -171.436613649338 Eh   ::
         :: zero point energy           0.798737374579 Eh   ::
         :: G(RRHO) w/o ZPVE           -0.083036320182 Eh   ::
         :: G(RRHO) contrib.            0.715701054396 Eh   ::
         :::::::::::::::::::::::::::::::::::::::::::::::::::::

           -------------------------------------------------
          | TOTAL ENERGY             -171.436613649338 Eh   |
          | TOTAL ENTHALPY           -170.583197957151 Eh   |
          | TOTAL FREE ENERGY        -170.720912594941 Eh   |
          | GRADIENT NORM               0.000044884536 Eh/α |
          | HOMO-LUMO GAP               1.619901707121 eV   |
           -------------------------------------------------

 * finished run on 2025/08/25 at 01:29:57.318
