   * xtb version 6.7.1 (edcfbbe) compiled by 'albert@albert-system' on 2024-07-22

   ID    Z sym.   atoms
    1    6 C      1-4, 6-13, 15-28, 30-44, 46-53
    2    7 N      5, 14, 29, 45
    3    1 H      54-85

          program call               : xtb data2507/gas/DCbz-Ph-Bz/DCbz-Ph-Bz_gas_T1_crest.xyz --gfn 2 --spinpol --tblite --uhf 2 --ohess vtight --parallel 40 --molden --ceasefiles --namespace data2507/gas/DCbz-Ph-Bz/DCbz-Ph-Bz_gas_T1_finalOpt
 * total energy  :  -132.9539175 Eh     change       -0.8409984E-08 Eh
 * total energy  :  -132.9539327 Eh     change       -0.1516916E-04 Eh
 * total energy  :  -132.9539384 Eh     change       -0.5730580E-05 Eh
 * total energy  :  -132.9539398 Eh     change       -0.1401009E-05 Eh
 * total energy  :  -132.9539414 Eh     change       -0.1564174E-05 Eh
 * total energy  :  -132.9539429 Eh     change       -0.1519625E-05 Eh
 * total energy  :  -132.9539453 Eh     change       -0.2362696E-05 Eh
 * total energy  :  -132.9539477 Eh     change       -0.2421563E-05 Eh
 * total energy  :  -132.9539491 Eh     change       -0.1427497E-05 Eh
 * total energy  :  -132.9539500 Eh     change       -0.8959832E-06 Eh
 * total energy  :  -132.9539523 Eh     change       -0.4611756E-06 Eh
 * total energy  :  -132.9539528 Eh     change       -0.4458074E-06 Eh
 * total energy  :  -132.9539531 Eh     change       -0.3828573E-06 Eh
 * total energy  :  -132.9539536 Eh     change       -0.4231657E-06 Eh
 * total energy  :  -132.9539540 Eh     change       -0.4333888E-06 Eh
 * total energy  :  -132.9539543 Eh     change       -0.2834169E-06 Eh
 * total energy  :  -132.9539547 Eh     change       -0.3809342E-06 Eh
 * total energy  :  -132.9539551 Eh     change       -0.4187661E-06 Eh
 * total energy  :  -132.9539551 Eh     change       -0.1821323E-07 Eh
   *** GEOMETRY OPTIMIZATION CONVERGED AFTER 22 ITERATIONS ***

 final structure:
================
85
 xtb: 6.7.1 (edcfbbe)
C            6.01606490339154        3.95256025523099        0.10966346638920
C            5.37432599889299        3.17584051998000       -0.84251535009419
C            5.41398991037980        1.79789697274019       -0.76082602330663
C            6.09143846409926        1.18485789662615        0.29258308017022
N            6.15897300675782       -0.21217634680808        0.36796352078314
C            5.12339279224947       -1.14431020189957        0.19680915895353
C            3.75247713524339       -0.89929877149043        0.24663062631606
C            2.86139005126223       -1.96111693783541       -0.12656002847458
C            1.51885986335601       -1.78705900729432       -0.14528545198443
C            0.91380280993600       -0.54246241546943        0.20911690146599
C           -0.49864364169143       -0.33710588265471        0.12918322135245
C           -1.05263924702911        0.96182030446558        0.06888702200143
C           -2.41468582000413        1.15936942114951       -0.04013188692738
N           -2.92208238632982        2.46409259177612       -0.14970982529653
C           -2.49133990252824        3.41967517022961       -1.04750477838275
C           -1.52112814682282        3.33115611227844       -2.03627759848785
C           -1.29831751909120        4.44551159551368       -2.82235844377343
C           -2.02451374527453        5.62051159638772       -2.64208763408550
C           -3.00799253317503        5.70679710745257       -1.67587955458168
C           -3.25006188747075        4.60066023708428       -0.87333719023454
C           -4.18102483631696        4.33420972678472        0.18807454177061
C           -5.16013251672953        5.09292661749235        0.81393217231738
C           -5.88178904454696        4.52253596239539        1.84470047045011
C           -5.62493435700821        3.21925283310152        2.26386143753881
C           -4.65405849065848        2.44614425227215        1.65713890343621
C           -3.94418128933360        3.00294768106434        0.60305987086593
C           -3.29391068753889        0.07485838207384       -0.07713551727221
C           -2.76644833590382       -1.21662669427302        0.00428332509090
N           -3.63139510293527       -2.32024190529143       -0.04841310930283
C           -3.49657925876692       -3.40188601571567       -0.89537858413083
C           -2.54638095660205       -3.64231291735398       -1.87820870298490
C           -2.65593854381779       -4.80980196085017       -2.60926984776119
C           -3.68766611500941       -5.71720495237885       -2.38028885438111
C           -4.65083510744306       -5.47133712676700       -1.42073337924453
C           -4.56185744880174       -4.30528277632488       -0.67364450658850
C           -5.37312754558398       -3.73161005606881        0.36465163721570
C           -6.52675973202936       -4.14591139880807        1.01487009962685
C           -7.05045567874329       -3.34320881708313        2.01025822601427
C           -6.42817753653484       -2.15042788865171        2.37060452403189
C           -5.27775111879485       -1.71921294437005        1.73868426284226
C           -4.76190001478803       -2.50622975504166        0.71910275444905
C           -1.40486862535562       -1.41993997506159        0.10602406215268
C            1.79963923537038        0.48440412469168        0.65464606306150
C            3.14545728750008        0.32195293753865        0.68335159470499
N            5.62360612227826       -2.39768071943418        0.05949511573917
C            6.94521099596538       -2.29987773069766        0.19651372905344
C            7.93153424025666       -3.29980781507663        0.15328440326051
C            9.24472207110668       -2.91227325244557        0.27676792080269
C            9.60420239663383       -1.56881654910684        0.43321390206766
C            8.65191559561664       -0.55793349828748        0.48677462318893
C            7.32860272288874       -0.93181902113944        0.38788575398269
C            6.73568033095538        1.96515986653847        1.24865765728652
C            6.69590219606184        3.34389077206396        1.15180656832478
H            5.98541594586187        5.02924732129142        0.03964808158272
H            4.84610222802581        3.64674616216968       -1.65807420128591
H            4.92196361420097        1.18582082665164       -1.50209392486283
H            3.31219718895527       -2.89540166029096       -0.41981783458567
H            0.89340829291046       -2.60062382495555       -0.47869455772224
H           -0.40782920325223        1.82546454781705        0.08378954014803
H           -0.96498596050575        2.41971431749980       -2.19545860989725
H           -0.54637601698190        4.40282818632477       -3.59639191955403
H           -1.81855117021305        6.47063948284967       -3.27517965757994
H           -3.58150137887629        6.61219045568601       -1.54670897753732
H           -5.34778817742044        6.10898940339609        0.50124742079166
H           -6.65009813195030        5.09505663035513        2.34246625033534
H           -6.19359884271595        2.80579008304053        3.08359093473483
H           -4.44546081625877        1.44576475634872        2.00313247267952
H           -4.35240522853241        0.22932167570847       -0.21217149281896
H           -1.75396311095260       -2.93619978102751       -2.07530608846152
H           -1.92669074696440       -5.02181248529665       -3.37700301278338
H           -3.73658531684883       -6.62035118839949       -2.96997585678211
H           -5.45949078245845       -6.16693014302551       -1.25486976937589
H           -6.99983706040553       -5.07888511084749        0.74832362780218
H           -7.94919523422589       -3.64630767605152        2.52622280598520
H           -6.85089767687297       -1.55219330402779        3.16411588290635
H           -4.78879926607225       -0.80605029665191        2.04013428269129
H           -1.04308349232946       -2.42935813384309        0.21519939325107
H            1.38350344662883        1.40591070700570        1.03277516006894
H            3.76547370295602        1.10660845554687        1.08774576671690
H            7.64606279255880       -4.33088766817313        0.02504400002189
H           10.02579617276848       -3.65771884075126        0.24775823711449
H           10.64925955971591       -1.30960497509419        0.51264694880080
H            8.94414773233512        0.47596055851697        0.59203675002525
H            7.24631572617130        1.48639370005015        2.07099151660406
H            7.19340450990483        3.94552589142354        1.89803174897413

 projected vibrational frequencies (cm⁻¹)
eigval :       -0.00    -0.00    -0.00     0.00     0.00     0.00
eigval :        8.81    10.19    16.51    17.94    22.10    27.17
eigval :       33.49    38.63    55.80    60.63    64.33    70.33
eigval :       77.88    94.56    98.15   104.93   114.65   127.97
eigval :      139.29   141.61   145.11   160.99   178.40   207.40
eigval :      209.15   220.40   232.75   240.91   250.50   253.66
eigval :      266.80   271.53   271.96   294.59   303.22   309.65
eigval :      355.66   360.54   365.79   377.38   382.89   391.13
eigval :      394.81   396.30   402.29   416.10   421.31   422.40
eigval :      424.49   435.12   437.13   469.58   478.99   508.13
eigval :      512.65   516.93   518.51   523.23   535.10   539.26
eigval :      539.87   545.78   563.67   570.70   578.32   583.07
eigval :      586.64   586.93   593.78   600.57   608.21   620.41
eigval :      634.91   639.13   649.96   663.56   664.76   671.85
eigval :      673.74   674.21   697.78   703.25   708.62   709.17
eigval :      746.99   748.59   755.27   759.76   765.59   768.71
eigval :      769.18   777.86   779.54   787.56   797.04   802.28
eigval :      807.74   842.14   846.74   851.26   857.99   860.59
eigval :      871.75   873.26   874.13   875.51   877.72   880.63
eigval :      895.58   898.76   899.17   899.57   903.21   904.19
eigval :      904.78   905.68   908.61   909.07   917.39   919.17
eigval :      921.73   922.45   922.91   927.93   930.35   931.72
eigval :      952.12   985.24  1000.63  1011.67  1011.99  1032.14
eigval :     1051.16  1065.75  1069.04  1071.67  1073.19  1076.01
eigval :     1076.89  1080.79  1107.55  1117.59  1118.37  1125.14
eigval :     1136.86  1145.66  1149.82  1152.97  1157.80  1165.25
eigval :     1176.36  1177.09  1180.32  1180.55  1180.81  1185.58
eigval :     1192.38  1200.40  1220.56  1229.14  1232.16  1235.24
eigval :     1238.52  1240.30  1252.19  1256.39  1276.19  1278.05
eigval :     1292.15  1297.71  1298.49  1299.19  1304.62  1318.56
eigval :     1322.51  1330.06  1341.54  1347.73  1355.10  1356.58
eigval :     1358.27  1358.42  1360.53  1367.21  1370.67  1392.51
eigval :     1395.32  1399.13  1420.89  1422.18  1429.89  1431.92
eigval :     1435.46  1446.32  1459.05  1470.89  1472.33  1477.10
eigval :     1486.75  1487.32  1487.75  1499.43  1510.63  1534.02
eigval :     1546.76  1570.86  1571.19  1571.98  1574.52  1585.20
eigval :     1585.86  1588.38  1591.18  1592.16  1592.70  1606.60
eigval :     1612.02  3078.09  3078.76  3078.94  3079.18  3079.65
eigval :     3080.04  3081.88  3082.72  3083.17  3083.30  3083.75
eigval :     3085.07  3085.90  3088.86  3090.56  3090.57  3090.98
eigval :     3093.15  3093.81  3094.46  3095.21  3096.82  3097.69
eigval :     3098.29  3099.69  3100.30  3102.51  3109.26  3112.06
eigval :     3112.61  3113.30  3114.64

   temp. (K)  partition function   enthalpy   heat capacity  entropy
                                   cal/mol     cal/K/mol   cal/K/mol   J/K/mol
 298.15  VIB  0.861E+19            24065.540    154.410    149.151
         ROT  0.136E+09              888.752      2.981     40.204
         INT  0.117E+28            24954.292    157.391    189.354
         TR   0.170E+29             1481.254      4.968     45.397
         TOT                       26435.5458   162.3590   234.7517   982.2012

       T/K    H(0)-H(T)+PV         H(T)/Eh          T*S/Eh         G(T)/Eh
   ------------------------------------------------------------------------
    298.15    0.421277E-01    0.690374E+00    0.111538E+00    0.578836E+00
   ------------------------------------------------------------------------

         :::::::::::::::::::::::::::::::::::::::::::::::::::::
         ::                  THERMODYNAMIC                  ::
         :::::::::::::::::::::::::::::::::::::::::::::::::::::
         :: total free energy        -132.375119553562 Eh   ::
         ::.................................................::
         :: total energy             -132.953955104284 Eh   ::
         :: zero point energy           0.648245942738 Eh   ::
         :: G(RRHO) w/o ZPVE           -0.069410392016 Eh   ::
         :: G(RRHO) contrib.            0.578835550722 Eh   ::
         :::::::::::::::::::::::::::::::::::::::::::::::::::::

           -------------------------------------------------
          | TOTAL ENERGY             -132.953955104284 Eh   |
          | TOTAL ENTHALPY           -132.263581437770 Eh   |
          | TOTAL FREE ENERGY        -132.375119553562 Eh   |
          | GRADIENT NORM               0.000093674415 Eh/α |
           -------------------------------------------------

 * finished run on 2025/08/29 at 13:08:58.553
