   * xtb version 6.7.1 (edcfbbe) compiled by 'albert@albert-system' on 2024-07-22

   ID    Z sym.   atoms
    1    6 C      1-4, 6-13, 15-28, 30-44, 46-53
    2    7 N      5, 14, 29, 45
    3    1 H      54-85

          program call               : xtb data2507/gas/DCbz-Ph-Bz/DCbz-Ph-Bz_gas_S0_crest.xyz --gfn 2 --ohess vtight --parallel 40 --molden --ceasefiles --namespace data2507/gas/DCbz-Ph-Bz/DCbz-Ph-Bz_gas_S0_finalOpt
          :  Hamiltonian                  GFN2-xTB          :
 * total energy  :  -133.0424449 Eh     change       -0.2023995E-08 Eh
 * total energy  :  -133.0424458 Eh     change       -0.9026565E-06 Eh
 * total energy  :  -133.0424472 Eh     change       -0.1433793E-05 Eh
 * total energy  :  -133.0424499 Eh     change       -0.2668892E-05 Eh
 * total energy  :  -133.0424508 Eh     change       -0.9269955E-06 Eh
 * total energy  :  -133.0424516 Eh     change       -0.8108219E-06 Eh
 * total energy  :  -133.0424528 Eh     change       -0.1146134E-05 Eh
 * total energy  :  -133.0424538 Eh     change       -0.1048524E-05 Eh
 * total energy  :  -133.0424547 Eh     change       -0.8157733E-06 Eh
 * total energy  :  -133.0424554 Eh     change       -0.7700891E-06 Eh
 * total energy  :  -133.0424636 Eh     change       -0.2291045E-06 Eh
 * total energy  :  -133.0424639 Eh     change       -0.2961499E-06 Eh
 * total energy  :  -133.0424643 Eh     change       -0.3367857E-06 Eh
 * total energy  :  -133.0424646 Eh     change       -0.3701141E-06 Eh
 * total energy  :  -133.0424650 Eh     change       -0.3144452E-06 Eh
 * total energy  :  -133.0424652 Eh     change       -0.2119335E-06 Eh
 * total energy  :  -133.0424653 Eh     change       -0.1493171E-06 Eh
 * total energy  :  -133.0424655 Eh     change       -0.1416483E-06 Eh
 * total energy  :  -133.0424655 Eh     change       -0.4294512E-07 Eh
   *** GEOMETRY OPTIMIZATION CONVERGED AFTER 34 ITERATIONS ***

 final structure:
================
85
 xtb: 6.7.1 (edcfbbe)
C            5.59696595068940        3.90851483885216        0.31054997764771
C            4.99690615846063        3.12522563567723       -0.66218174843688
C            5.17000547913267        1.75418668245361       -0.65795159349608
C            5.93888441747307        1.15851394971227        0.33747373465886
N            6.12219287316644       -0.23328368669335        0.34728282144551
C            5.16492711926669       -1.22061424439942        0.21439136977784
C            3.73227500442906       -0.97378174866260        0.20253627407358
C            2.91665309117526       -1.82161422227858       -0.54666068942677
C            1.55243440231159       -1.62779073292547       -0.58356017256567
C            0.96170967912778       -0.58301851652266        0.12616157921807
C           -0.48931800914596       -0.35920556625725        0.06069090713783
C           -0.99821096895594        0.93386675132117       -0.00826317272134
C           -2.36912233169773        1.14917804050929       -0.09111543611312
N           -2.86314651292360        2.45557300188213       -0.20017680092591
C           -2.42954592763959        3.40465268054518       -1.10646995571032
C           -1.47301261396354        3.30217287306531       -2.10630966926311
C           -1.24838224820040        4.41049598071402       -2.90041484181624
C           -1.96004049465829        5.59390163944205       -2.71738757861565
C           -2.93045502601158        5.69382398442542       -1.74076565119809
C           -3.17413074837063        4.59326722488768       -0.92983239302011
C           -4.09780575162757        4.34195012638235        0.14067665409629
C           -5.06203372890998        5.11688194808679        0.77149791627016
C           -5.78115935024797        4.56198443556949        1.81105048914840
C           -5.53629767747640        3.25781207121877        2.23464447090042
C           -4.58115869635363        2.46914293384705        1.62299600868097
C           -3.87447708770358        3.01049119140485        0.55957167675432
C           -3.24543376369858        0.06954003303663       -0.09486791680393
C           -2.74247265245403       -1.22400749830767       -0.00942234670186
N           -3.61394809324014       -2.31982622740182       -0.02992601605584
C           -3.49991931671220       -3.41733177004560       -0.86224272240839
C           -2.57341140460667       -3.67695787414526       -1.86159183954073
C           -2.70331832766913       -4.85460159508338       -2.57251662816371
C           -3.73388438656091       -5.75376222261196       -2.30830074754608
C           -4.67454146450868       -5.48828520748126       -1.33349866954438
C           -4.56433288821103       -4.31098866951223       -0.60542137144494
C           -5.35303825669351       -3.71790980420817        0.43809632020286
C           -6.49572760579491       -4.11972707792491        1.11694838962310
C           -6.99847752661580       -3.30181453281443        2.10898054985952
C           -6.36633685609867       -2.10531135285087        2.43885362494296
C           -5.22784858000703       -1.68624580268552        1.77799696371743
C           -4.73326964967519       -2.48927557691951        0.76139574977560
C           -1.37037613587150       -1.43535523542673        0.06816000541103
C            1.77723848723429        0.24394210063556        0.89610259389688
C            3.14248908916598        0.05025449569070        0.94205347955167
N            5.68014981426258       -2.41777831546515        0.14097502342374
C            7.03444317781810       -2.25745090430115        0.22607572275778
C            8.05664322437570       -3.20017545841498        0.19403066709573
C            9.35302414368800       -2.74064382568141        0.28102864933039
C            9.64246941869449       -1.37835712036682        0.38786757639900
C            8.64427337287305       -0.42551165099886        0.42364774774168
C            7.33756122665346       -0.88134394469058        0.35695182079876
C            6.54134012127999        1.94346605065757        1.31461437780407
C            6.37008851194496        3.31592964747572        1.29459808968676
H            5.46223735061790        4.97942885596834        0.30106254752793
H            4.39649231679738        3.58477244919192       -1.43284534497018
H            4.71246424220178        1.13830303879039       -1.41795461873539
H            3.37787099121772       -2.62671235821494       -1.09670868208879
H            0.93762220384216       -2.27888628262857       -1.18722508820551
H           -0.32819880112559        1.77982314719552       -0.00762490961838
H           -0.92837771278453        2.38450270738370       -2.27044605659180
H           -0.50677544172196        4.35595483814950       -3.68383400450048
H           -1.75317155001460        6.43859146665649       -3.35750512588026
H           -3.49469578497016        6.60471441016621       -1.60927342463442
H           -5.23879354507865        6.13357718437438        0.45443314359790
H           -6.53788700482098        5.14640784803012        2.31277321000457
H           -6.10234808751142        2.85532768519402        3.06168532526725
H           -4.38351852873092        1.46825268854076        1.97408843418331
H           -4.30716474044998        0.23293592333461       -0.19784470554714
H           -1.78386162909157       -2.97662434183541       -2.08919140646038
H           -1.99200633738502       -5.08109932551165       -3.35308433906160
H           -3.79930603458456       -6.66505178732662       -2.88379041590697
H           -5.48372270452374       -6.17623323845279       -1.14033503578640
H           -6.97497489792199       -5.05581617409970        0.87313659645029
H           -7.88797811403413       -3.59428718743891        2.64674379150388
H           -6.77209801839169       -1.49369772601267        3.23116482371697
H           -4.73253905583510       -0.76927786685172        2.05728138364144
H           -0.99439349893157       -2.44185042983127        0.16773408962970
H            1.33305109955314        1.03209141051446        1.48604884596437
H            3.74745386114443        0.68663600711938        1.57067915123579
H            7.82803181447784       -4.24929462291268        0.09859739539699
H           10.17054827584772       -3.44604910802884        0.25921455355258
H           10.67405053567933       -1.06337297341873        0.44197170317641
H            8.87357728699338        0.62751444255898        0.49336110681537
H            7.12690952194228        1.47290908687769        2.09048722905741
H            6.83802390077044        3.92302866980358        2.05516249065721

          :  Hamiltonian                  GFN2-xTB          :
         :: gradient norm              0.000082094702 Eh/a0 ::
         :: HOMO-LUMO gap              2.476898742136 eV    ::
         :: SCC energy              -135.548493617539 Eh    ::
         :: -> dispersion             -0.121015328080 Eh    ::
         :: repulsion energy           2.506028121557 Eh    ::

    * Orbital Energies and Occupations

         #    Occupation            Energy/Eh            Energy/eV
      -------------------------------------------------------------
         1        2.0000           -0.6875274             -18.7086
       ...           ...                  ...                  ...
       112        2.0000           -0.4178066             -11.3691
       113        2.0000           -0.4149330             -11.2909
       114        2.0000           -0.4140692             -11.2674
       115        2.0000           -0.4065721             -11.0634
       116        2.0000           -0.4055289             -11.0350
       117        2.0000           -0.4047036             -11.0125
       118        2.0000           -0.3819157             -10.3925
       119        2.0000           -0.3798873             -10.3373
       120        2.0000           -0.3795211             -10.3273
       121        2.0000           -0.3785272             -10.3002
       122        2.0000           -0.3770407             -10.2598
       123        2.0000           -0.3660595              -9.9610
       124        2.0000           -0.3629865              -9.8774 (HOMO)
       125                         -0.2719621              -7.4005 (LUMO)
       126                         -0.2490328              -6.7765
       127                         -0.2473956              -6.7320
       128                         -0.2445893              -6.6556
       129                         -0.2418681              -6.5816
       130                         -0.2394263              -6.5151
       131                         -0.2358067              -6.4166
       132                         -0.2319083              -6.3105
       133                         -0.2231182              -6.0714
       134                         -0.2217509              -6.0341
       135                         -0.2127349              -5.7888
       ...                                ...                  ...
       244                          0.7466630              20.3177
      -------------------------------------------------------------
                  HL-Gap            0.0910243 Eh            2.4769 eV

     #   Z          covCN         q      C6AA      α(0)
     1   6 C        2.919    -0.031    28.778     8.797
     2   6 C        2.920    -0.026    28.658     8.779
     3   6 C        2.922    -0.039    28.976     8.827
     4   6 C        2.913     0.067    26.508     8.443
     5   7 N        2.825    -0.051    22.227     7.002
     6   6 C        3.181     0.134    24.675     8.109
     7   6 C        2.975     0.003    27.943     8.671
     8   6 C        2.926    -0.027    28.681     8.783
     9   6 C        2.923    -0.031    28.781     8.798
    10   6 C        2.978     0.011    27.754     8.642
    11   6 C        2.976     0.013    27.714     8.635
    12   6 C        2.928    -0.055    29.355     8.885
    13   6 C        2.910     0.066    26.526     8.445
    14   7 N        2.803    -0.044    22.094     6.981
    15   6 C        3.075     0.047    26.878     8.500
    16   6 C        2.910    -0.051    29.270     8.871
    17   6 C        2.924    -0.034    28.835     8.806
    18   6 C        2.920    -0.041    29.012     8.833
    19   6 C        2.913    -0.033    28.814     8.802
    20   6 C        3.068    -0.017    28.351     8.731
    21   6 C        3.068    -0.017    28.358     8.732
    22   6 C        2.913    -0.033    28.810     8.802
    23   6 C        2.920    -0.040    29.005     8.832
    24   6 C        2.924    -0.033    28.819     8.804
    25   6 C        2.910    -0.050    29.234     8.866
    26   6 C        3.075     0.047    26.874     8.500
    27   6 C        2.925    -0.060    29.485     8.905
    28   6 C        2.910     0.066    26.514     8.443
    29   7 N        2.803    -0.044    22.089     6.980
    30   6 C        3.076     0.047    26.876     8.500
    31   6 C        2.910    -0.051    29.254     8.869
    32   6 C        2.924    -0.033    28.824     8.804
    33   6 C        2.920    -0.040    29.002     8.831
    34   6 C        2.913    -0.032    28.807     8.801
    35   6 C        3.068    -0.016    28.346     8.730
    36   6 C        3.068    -0.016    28.351     8.731
    37   6 C        2.913    -0.032    28.807     8.801
    38   6 C        2.920    -0.040    29.005     8.832
    39   6 C        2.924    -0.033    28.821     8.804
    40   6 C        2.910    -0.050    29.234     8.866
    41   6 C        3.075     0.047    26.874     8.500
    42   6 C        2.928    -0.054    29.342     8.883
    43   6 C        2.924    -0.033    28.827     8.805
    44   6 C        2.920    -0.032    28.796     8.800
    45   7 N        1.887    -0.290    28.374     7.897
    46   6 C        3.191     0.067    26.026     8.321
    47   6 C        2.910    -0.042    29.032     8.835
    48   6 C        2.923    -0.039    28.966     8.826
    49   6 C        2.927    -0.036    28.907     8.817
    50   6 C        2.908    -0.051    29.259     8.870
    51   6 C        3.088     0.034    27.130     8.538
    52   6 C        2.922    -0.041    29.016     8.833
    53   6 C        2.920    -0.027    28.683     8.783
    54   1 H        0.926     0.039     2.466     2.456
    55   1 H        0.926     0.039     2.459     2.452
    56   1 H        0.926     0.037     2.483     2.464
    57   1 H        0.926     0.056     2.242     2.342
    58   1 H        0.926     0.039     2.461     2.453
    59   1 H        0.926     0.045     2.382     2.413
    60   1 H        0.926     0.027     2.636     2.539
    61   1 H        0.926     0.028     2.608     2.525
    62   1 H        0.926     0.028     2.611     2.527
    63   1 H        0.926     0.032     2.565     2.504
    64   1 H        0.926     0.031     2.567     2.506
    65   1 H        0.926     0.029     2.605     2.524
    66   1 H        0.926     0.030     2.587     2.515
    67   1 H        0.926     0.025     2.661     2.551
    68   1 H        0.926     0.050     2.318     2.381
    69   1 H        0.926     0.025     2.654     2.548
    70   1 H        0.926     0.030     2.590     2.517
    71   1 H        0.926     0.029     2.602     2.522
    72   1 H        0.926     0.032     2.563     2.504
    73   1 H        0.926     0.032     2.564     2.504
    74   1 H        0.926     0.029     2.606     2.525
    75   1 H        0.926     0.030     2.592     2.518
    76   1 H        0.926     0.024     2.670     2.555
    77   1 H        0.926     0.048     2.345     2.395
    78   1 H        0.926     0.036     2.505     2.475
    79   1 H        0.926     0.031     2.577     2.510
    80   1 H        0.926     0.044     2.391     2.418
    81   1 H        0.926     0.032     2.555     2.500
    82   1 H        0.926     0.031     2.571     2.507
    83   1 H        0.926     0.026     2.637     2.540
    84   1 H        0.926     0.043     2.411     2.428
    85   1 H        0.926     0.039     2.458     2.452

molecular dipole:
                 x           y           z       tot (Debye)
 q only:        0.194       0.838       0.025
   full:        0.441       1.228       0.083       3.322

 projected vibrational frequencies (cm⁻¹)
eigval :       -0.00    -0.00    -0.00     0.00     0.00     0.00
eigval :        8.94    10.88    16.24    17.65    22.32    27.68
eigval :       31.25    41.27    54.44    59.42    65.24    70.43
eigval :       80.24    92.96    95.16    99.46   110.17   124.39
eigval :      139.88   142.62   148.54   166.23   184.73   209.12
eigval :      211.70   218.77   240.99   250.48   252.94   271.10
eigval :      271.73   274.14   279.96   301.17   310.15   340.79
eigval :      351.98   361.09   373.24   379.85   381.28   391.31
eigval :      395.20   396.50   403.46   418.87   421.86   423.32
eigval :      435.85   437.88   463.19   481.82   509.42   514.90
eigval :      518.98   520.34   528.62   540.77   540.99   542.47
eigval :      547.16   559.68   568.12   578.53   588.07   589.00
eigval :      592.62   596.82   606.74   620.65   628.24   639.97
eigval :      645.97   659.06   666.97   671.80   673.41   676.56
eigval :      680.16   704.02   707.98   708.69   711.30   717.88
eigval :      749.90   756.17   764.01   766.02   769.51   770.81
eigval :      775.02   778.90   780.87   802.17   818.84   845.25
eigval :      861.33   867.63   868.17   868.88   870.02   872.21
eigval :      877.44   878.61   886.52   894.94   895.17   898.21
eigval :      898.86   899.64   900.52   904.08   904.43   907.66
eigval :      908.36   919.83   920.03   922.42   923.10   923.60
eigval :      924.46   928.86   930.20   932.68   933.33   956.10
eigval :      995.74  1005.38  1012.03  1013.65  1029.75  1033.70
eigval :     1060.65  1067.07  1070.73  1073.09  1074.54  1080.29
eigval :     1107.63  1116.75  1120.05  1125.78  1134.33  1135.49
eigval :     1140.43  1149.03  1153.33  1166.59  1174.80  1177.60
eigval :     1178.08  1180.73  1181.60  1181.68  1189.63  1192.80
eigval :     1201.21  1207.86  1231.83  1232.31  1236.29  1237.02
eigval :     1238.00  1261.56  1270.71  1275.55  1280.99  1295.65
eigval :     1296.68  1303.05  1303.44  1305.54  1316.27  1317.85
eigval :     1321.23  1323.21  1335.70  1358.49  1358.81  1362.13
eigval :     1362.54  1363.32  1376.60  1391.25  1399.04  1413.97
eigval :     1419.36  1426.49  1427.44  1432.17  1436.37  1455.80
eigval :     1463.35  1475.56  1477.19  1478.46  1485.40  1488.45
eigval :     1488.71  1489.39  1534.58  1560.24  1570.24  1571.50
eigval :     1575.51  1577.59  1583.18  1589.34  1589.61  1590.39
eigval :     1595.50  1598.11  1599.82  1600.68  1615.17  1616.33
eigval :     1616.40  3075.20  3075.92  3076.52  3077.60  3078.19
eigval :     3079.92  3081.16  3081.64  3081.80  3082.00  3083.61
eigval :     3083.65  3083.92  3084.35  3088.61  3088.89  3091.08
eigval :     3091.79  3092.25  3092.61  3093.07  3095.19  3095.89
eigval :     3096.43  3098.08  3098.79  3100.15  3101.47  3102.16
eigval :     3103.45  3108.43  3109.50

   temp. (K)  partition function   enthalpy   heat capacity  entropy
                                   cal/mol     cal/K/mol   cal/K/mol   J/K/mol
 298.15  VIB  0.594E+19            23724.676    152.110    147.307
         ROT  0.134E+09              888.752      2.981     40.171
         INT  0.797E+27            24613.428    155.091    187.479
         TR   0.170E+29             1481.254      4.968     45.397
         TOT                       26094.6818   160.0594   232.8760   974.3531

       T/K    H(0)-H(T)+PV         H(T)/Eh          T*S/Eh         G(T)/Eh
   ------------------------------------------------------------------------
    298.15    0.415845E-01    0.694447E+00    0.110647E+00    0.583800E+00
   ------------------------------------------------------------------------

         :::::::::::::::::::::::::::::::::::::::::::::::::::::
         ::                  THERMODYNAMIC                  ::
         :::::::::::::::::::::::::::::::::::::::::::::::::::::
         :: total free energy        -132.458665747618 Eh   ::
         ::.................................................::
         :: total energy             -133.042465495980 Eh   ::
         :: zero point energy           0.652862122254 Eh   ::
         :: G(RRHO) w/o ZPVE           -0.069062373892 Eh   ::
         :: G(RRHO) contrib.            0.583799748362 Eh   ::
         :::::::::::::::::::::::::::::::::::::::::::::::::::::

           -------------------------------------------------
          | TOTAL ENERGY             -133.042465495980 Eh   |
          | TOTAL ENTHALPY           -132.348018851317 Eh   |
          | TOTAL FREE ENERGY        -132.458665747618 Eh   |
          | GRADIENT NORM               0.000082100260 Eh/α |
          | HOMO-LUMO GAP               2.476898457546 eV   |
           -------------------------------------------------

 * finished run on 2025/08/29 at 13:02:31.823
