   * xtb version 6.7.1 (edcfbbe) compiled by 'albert@albert-system' on 2024-07-22

   ID    Z sym.   atoms
    1    6 C      1-4, 6-13, 15-28, 30-44, 46-53
    2    7 N      5, 14, 29, 45
    3    1 H      54-85

          program call               : xtb data2507/gas/DCbz-Ph-Bz/DCbz-Ph-Bz.xyz --gfn 2 --ohess vtight --parallel 40 --molden --ceasefiles --namespace data2507/gas/DCbz-Ph-Bz/DCbz-Ph-Bz_gas_S0_preOpt
          :  Hamiltonian                  GFN2-xTB          :
 * total energy  :  -133.0186493 Eh     change       -0.2501281E-08 Eh
 * total energy  :  -133.0342850 Eh     change       -0.1563573E-01 Eh
 * total energy  :  -133.0380945 Eh     change       -0.3809462E-02 Eh
 * total energy  :  -133.0392042 Eh     change       -0.1109652E-02 Eh
 * total energy  :  -133.0401059 Eh     change       -0.9017436E-03 Eh
 * total energy  :  -133.0405321 Eh     change       -0.4261934E-03 Eh
 * total energy  :  -133.0408317 Eh     change       -0.2995720E-03 Eh
 * total energy  :  -133.0410716 Eh     change       -0.2399516E-03 Eh
 * total energy  :  -133.0413011 Eh     change       -0.2295027E-03 Eh
 * total energy  :  -133.0414936 Eh     change       -0.1924871E-03 Eh
 * total energy  :  -133.0420542 Eh     change       -0.3138350E-05 Eh
 * total energy  :  -133.0420566 Eh     change       -0.2376624E-05 Eh
 * total energy  :  -133.0420585 Eh     change       -0.1942379E-05 Eh
 * total energy  :  -133.0420600 Eh     change       -0.1481500E-05 Eh
 * total energy  :  -133.0420611 Eh     change       -0.1142191E-05 Eh
 * total energy  :  -133.0420619 Eh     change       -0.8173819E-06 Eh
 * total energy  :  -133.0420626 Eh     change       -0.6584507E-06 Eh
 * total energy  :  -133.0420632 Eh     change       -0.5963066E-06 Eh
 * total energy  :  -133.0420632 Eh     change       -0.6526733E-08 Eh
   *** GEOMETRY OPTIMIZATION CONVERGED AFTER 44 ITERATIONS ***

 final structure:
================
85
 xtb: 6.7.1 (edcfbbe)
C            5.66794363009428        3.65348182755201        0.45832888582139
C            5.02542681484255        2.99577624222233       -0.57819372475438
C            5.17190574959131        1.63056284554376       -0.73457162230120
C            5.95774794677891        0.91335696558908        0.16257373659833
N            6.11394364643545       -0.47319343978103        0.00842989020557
C            5.13245737503732       -1.42124431297061       -0.20703211268306
C            3.70636897250569       -1.14528182080950       -0.14248872059141
C            2.84692890291594       -1.86764457113511       -0.96975321352204
C            1.48751885758884       -1.64064742252531       -0.93552580664085
C            0.94618563820677       -0.68863439400530       -0.07268114146902
C           -0.50079833985304       -0.43111663110445       -0.04782933512892
C           -0.97965982698795        0.86901573262852        0.07774268782649
C           -2.34707967593343        1.11902693434711        0.08741696665012
N           -2.81642325058257        2.43343551587033        0.20109942104678
C           -2.39184494421331        3.50927763690600       -0.55467637168327
C           -1.48476155888158        3.55075699323083       -1.60383921875053
C           -1.25839191541267        4.77030781175998       -2.21292672824757
C           -1.92134337980571        5.92410692477240       -1.80102272509926
C           -2.84367846583160        5.88408495162736       -0.77465934044241
C           -3.08775719641700        4.67006290534322       -0.14640009920195
C           -3.96902679637661        4.26665889925135        0.91347301107173
C           -4.87511936079586        4.95076419544492        1.71299474512373
C           -5.56244202828396        4.24907680141611        2.68289925484107
C           -5.34374273986435        2.88623087887597        2.87059763121751
C           -4.44760751093876        2.18392128551668        2.08757409514102
C           -3.77232925364728        2.87853160519979        1.09438073252996
C           -3.24863604214489        0.06500972216720       -0.00650353482443
C           -2.77514834671963       -1.23758675019248       -0.11844923990513
N           -3.67782183944374       -2.30410934094706       -0.20339020350822
C           -4.76059073067857       -2.38560309167864       -1.05813746203380
C           -5.17941892271914       -1.50267755909051       -2.04292677239567
C           -6.29394589712737       -1.84503157660274       -2.78470965170731
C           -6.97601515187268       -3.03946310066623       -2.56481214007596
C           -6.54912954605391       -3.93348615150105       -1.60346312289633
C           -5.43144059294318       -3.61151713630757       -0.84508593511713
C           -4.71519725271118       -4.29445315997024        0.19586947074295
C           -4.89852296901716       -5.51026376177299        0.84116681650369
C           -4.01697033432363       -5.86745901714054        1.84165236692636
C           -2.97274159956702       -5.02277669866301        2.21099089891321
C           -2.77004304010756       -3.80821401826149        1.58386515604562
C           -3.63807642226704       -3.45514581264847        0.56076226873306
C           -1.40683239377044       -1.48157312551676       -0.15056386640196
C            1.80603507063316        0.01140914206455        0.77154301656485
C            3.16670353711650       -0.21476829048082        0.74410553352237
N            5.61903687904303       -2.61103771587817       -0.43308389618475
C            6.97858130769723       -2.48587860799017       -0.37223988828286
C            7.97907911127745       -3.43694701086278       -0.54252778694039
C            9.28695658862758       -3.01389076942670       -0.44279279208387
C            9.60850035519108       -1.67833198523549       -0.19011245495346
C            8.63233052512584       -0.71802881045362       -0.01554002331222
C            7.31487844777066       -1.13966063910138       -0.09409314979407
C            6.60270006901300        1.57210939736982        1.20370991746567
C            6.45708950826956        2.94040112071382        1.34490646362188
H            5.55390698809114        4.72056339283893        0.57425670910790
H            4.41249939150659        3.54965134891294       -1.27328052826945
H            4.68106281438151        1.11258747520790       -1.54517039676757
H            3.26988673560727       -2.60217333909153       -1.63691881780124
H            0.83722905749338       -2.18921131168096       -1.60073740987754
H           -0.28951344797987        1.69421243838948        0.16262386280636
H           -0.97881105772771        2.65970514431715       -1.94425566334411
H           -0.55423392363036        4.82883696232009       -3.02990294181222
H           -1.71466091499146        6.85853184950588       -2.30121700255565
H           -3.37033471243059        6.77445462537727       -0.46603381185008
H           -5.03145931198832        6.01035593907110        1.57788758414282
H           -6.27346530907009        4.76117257293034        3.31389556908540
H           -5.88398317294828        2.36659996232205        3.64811726412804
H           -4.27284321584518        1.13198491682489        2.25610827684204
H           -4.31025285537359        0.25637899441509        0.00865929925363
H           -4.64803575917687       -0.58293747206354       -2.23624452964703
H           -6.64144833544495       -1.17226456732552       -3.55485580575263
H           -7.84459615598908       -3.26907884523304       -3.16384865466858
H           -7.06708436742678       -4.86709136425123       -1.44377924973637
H           -5.71770959446667       -6.15698608056480        0.56536994052954
H           -4.13980460510946       -6.80976749886277        2.35441356939333
H           -2.30770736999370       -5.32170346975042        3.00772908462289
H           -1.96763714714011       -3.15434826340526        1.89097164063534
H           -1.05140013310770       -2.49555594724496       -0.24843059051953
H            1.40075329324444        0.72304605187251        1.47577397615189
H            3.80752964932242        0.32041295090058        1.42906478889533
H            7.72558714812298       -4.46399896143474       -0.74972957371094
H           10.08822397884097       -3.72689904260667       -0.56930862089814
H           10.64772124675783       -1.39036112434431       -0.13180483470351
H            8.88569405405147        0.31582206339156        0.16688918882963
H            7.20114883160000        1.00694966297730        1.90283920072257
H            6.95796259234783        3.44941332360521        2.15486759057465

          :  Hamiltonian                  GFN2-xTB          :
         :: gradient norm              0.000061113117 Eh/a0 ::
         :: HOMO-LUMO gap              2.504589493193 eV    ::
         :: SCC energy              -135.547439807552 Eh    ::
         :: -> dispersion             -0.119745917689 Eh    ::
         :: repulsion energy           2.505376600173 Eh    ::

    * Orbital Energies and Occupations

         #    Occupation            Energy/Eh            Energy/eV
      -------------------------------------------------------------
         1        2.0000           -0.6874936             -18.7077
       ...           ...                  ...                  ...
       112        2.0000           -0.4169940             -11.3470
       113        2.0000           -0.4150802             -11.2949
       114        2.0000           -0.4140730             -11.2675
       115        2.0000           -0.4064479             -11.0600
       116        2.0000           -0.4051306             -11.0242
       117        2.0000           -0.4044114             -11.0046
       118        2.0000           -0.3818348             -10.3903
       119        2.0000           -0.3797920             -10.3347
       120        2.0000           -0.3794876             -10.3264
       121        2.0000           -0.3781503             -10.2900
       122        2.0000           -0.3770014             -10.2587
       123        2.0000           -0.3650879              -9.9345
       124        2.0000           -0.3636013              -9.8941 (HOMO)
       125                         -0.2715594              -7.3895 (LUMO)
       126                         -0.2488769              -6.7723
       127                         -0.2472466              -6.7279
       128                         -0.2442829              -6.6473
       129                         -0.2418026              -6.5798
       130                         -0.2391420              -6.5074
       131                         -0.2356572              -6.4126
       132                         -0.2318973              -6.3102
       133                         -0.2230398              -6.0692
       134                         -0.2213992              -6.0246
       135                         -0.2125107              -5.7827
       ...                                ...                  ...
       244                          0.7464748              20.3126
      -------------------------------------------------------------
                  HL-Gap            0.0920420 Eh            2.5046 eV

     #   Z          covCN         q      C6AA      α(0)
     1   6 C        2.919    -0.031    28.778     8.797
     2   6 C        2.920    -0.026    28.658     8.779
     3   6 C        2.922    -0.039    28.977     8.828
     4   6 C        2.913     0.067    26.509     8.443
     5   7 N        2.825    -0.051    22.228     7.002
     6   6 C        3.181     0.135    24.669     8.108
     7   6 C        2.975     0.004    27.941     8.671
     8   6 C        2.925    -0.027    28.677     8.782
     9   6 C        2.923    -0.032    28.790     8.799
    10   6 C        2.978     0.011    27.755     8.642
    11   6 C        2.976     0.013    27.718     8.636
    12   6 C        2.928    -0.055    29.359     8.886
    13   6 C        2.910     0.066    26.529     8.446
    14   7 N        2.803    -0.044    22.093     6.981
    15   6 C        3.074     0.047    26.880     8.501
    16   6 C        2.910    -0.051    29.273     8.872
    17   6 C        2.924    -0.034    28.837     8.806
    18   6 C        2.920    -0.041    29.013     8.833
    19   6 C        2.913    -0.033    28.814     8.802
    20   6 C        3.068    -0.017    28.353     8.731
    21   6 C        3.068    -0.017    28.355     8.732
    22   6 C        2.913    -0.033    28.812     8.802
    23   6 C        2.920    -0.040    29.002     8.831
    24   6 C        2.924    -0.033    28.820     8.804
    25   6 C        2.910    -0.051    29.259     8.870
    26   6 C        3.074     0.047    26.877     8.500
    27   6 C        2.925    -0.061    29.520     8.910
    28   6 C        2.911     0.066    26.517     8.444
    29   7 N        2.803    -0.044    22.095     6.981
    30   6 C        3.073     0.047    26.880     8.501
    31   6 C        2.910    -0.051    29.262     8.870
    32   6 C        2.924    -0.033    28.824     8.804
    33   6 C        2.920    -0.040    29.004     8.832
    34   6 C        2.913    -0.033    28.811     8.802
    35   6 C        3.068    -0.016    28.349     8.731
    36   6 C        3.068    -0.016    28.351     8.731
    37   6 C        2.913    -0.033    28.811     8.802
    38   6 C        2.920    -0.040    29.001     8.831
    39   6 C        2.924    -0.033    28.821     8.804
    40   6 C        2.910    -0.051    29.264     8.870
    41   6 C        3.074     0.047    26.880     8.501
    42   6 C        2.927    -0.054    29.348     8.884
    43   6 C        2.924    -0.033    28.830     8.805
    44   6 C        2.921    -0.032    28.796     8.800
    45   7 N        1.887    -0.290    28.374     7.897
    46   6 C        3.192     0.067    26.024     8.320
    47   6 C        2.910    -0.042    29.031     8.835
    48   6 C        2.923    -0.039    28.967     8.826
    49   6 C        2.927    -0.036    28.907     8.817
    50   6 C        2.908    -0.051    29.259     8.870
    51   6 C        3.088     0.034    27.131     8.538
    52   6 C        2.922    -0.041    29.016     8.833
    53   6 C        2.920    -0.027    28.683     8.783
    54   1 H        0.926     0.039     2.466     2.456
    55   1 H        0.926     0.039     2.459     2.452
    56   1 H        0.926     0.037     2.483     2.464
    57   1 H        0.926     0.056     2.250     2.346
    58   1 H        0.926     0.040     2.448     2.447
    59   1 H        0.926     0.045     2.385     2.415
    60   1 H        0.926     0.027     2.636     2.539
    61   1 H        0.926     0.028     2.609     2.526
    62   1 H        0.926     0.028     2.612     2.527
    63   1 H        0.926     0.031     2.566     2.505
    64   1 H        0.926     0.031     2.566     2.505
    65   1 H        0.926     0.029     2.604     2.523
    66   1 H        0.926     0.030     2.587     2.515
    67   1 H        0.926     0.027     2.626     2.534
    68   1 H        0.926     0.051     2.310     2.377
    69   1 H        0.926     0.026     2.637     2.539
    70   1 H        0.926     0.029     2.594     2.519
    71   1 H        0.926     0.029     2.607     2.525
    72   1 H        0.926     0.032     2.564     2.504
    73   1 H        0.926     0.032     2.565     2.504
    74   1 H        0.926     0.029     2.604     2.523
    75   1 H        0.926     0.030     2.588     2.516
    76   1 H        0.926     0.027     2.628     2.535
    77   1 H        0.926     0.048     2.348     2.396
    78   1 H        0.926     0.036     2.506     2.476
    79   1 H        0.926     0.031     2.578     2.511
    80   1 H        0.926     0.044     2.391     2.418
    81   1 H        0.926     0.032     2.556     2.500
    82   1 H        0.926     0.031     2.571     2.508
    83   1 H        0.926     0.026     2.638     2.540
    84   1 H        0.926     0.043     2.411     2.428
    85   1 H        0.926     0.039     2.458     2.452

molecular dipole:
                 x           y           z       tot (Debye)
 q only:        0.198       0.825       0.109
   full:        0.463       1.200       0.197       3.308

 projected vibrational frequencies (cm⁻¹)
eigval :       -0.00    -0.00     0.00     0.00     0.00     0.00
eigval :        8.93    10.79    16.29    20.47    20.63    23.66
eigval :       31.68    39.87    54.66    63.07    66.28    70.76
eigval :       81.36    92.71    95.68    97.11   111.46   123.78
eigval :      141.65   142.09   148.54   161.40   190.06   209.71
eigval :      217.35   223.23   239.52   244.61   250.05   270.94
eigval :      272.03   276.09   280.67   300.20   316.51   340.56
eigval :      350.36   356.43   373.11   379.66   381.08   392.54
eigval :      396.04   397.02   403.87   417.52   423.24   423.68
eigval :      437.14   437.57   462.01   482.54   511.41   515.26
eigval :      518.19   520.43   530.81   541.12   541.21   541.89
eigval :      547.18   548.19   573.72   578.80   588.23   588.39
eigval :      592.66   598.41   608.33   621.53   628.14   639.86
eigval :      640.54   659.59   666.94   672.22   673.78   679.30
eigval :      681.31   703.91   708.27   708.89   711.24   717.95
eigval :      750.17   755.20   763.99   769.32   770.09   771.14
eigval :      775.01   780.85   781.35   802.68   818.46   847.13
eigval :      867.55   868.12   868.83   869.86   872.88   873.76
eigval :      878.37   878.84   886.61   892.95   896.29   898.84
eigval :      898.98   899.36   903.49   904.03   904.79   907.54
eigval :      910.12   920.47   922.42   922.77   923.48   923.95
eigval :      925.85   929.08   930.24   932.65   933.31   956.09
eigval :      995.65  1005.15  1011.86  1013.18  1029.92  1034.67
eigval :     1060.62  1070.77  1071.25  1074.26  1074.61  1080.30
eigval :     1107.63  1116.80  1122.58  1125.87  1134.16  1135.87
eigval :     1140.58  1152.85  1152.99  1166.71  1174.85  1177.90
eigval :     1180.73  1181.29  1181.36  1182.45  1189.65  1192.29
eigval :     1201.72  1207.85  1232.33  1235.91  1236.28  1237.69
eigval :     1239.32  1261.41  1270.95  1275.58  1281.07  1295.28
eigval :     1296.84  1302.55  1304.40  1305.17  1316.44  1318.47
eigval :     1321.33  1322.90  1335.86  1358.12  1358.31  1361.64
eigval :     1362.52  1363.13  1376.69  1391.61  1399.24  1414.20
eigval :     1420.01  1425.97  1428.13  1432.51  1436.41  1456.56
eigval :     1462.89  1475.44  1476.97  1478.44  1485.61  1488.24
eigval :     1488.30  1489.49  1535.75  1560.25  1571.08  1571.67
eigval :     1575.80  1577.97  1583.24  1589.18  1589.42  1589.73
eigval :     1595.55  1598.15  1599.44  1599.99  1614.77  1615.62
eigval :     1616.62  3075.14  3075.74  3076.74  3077.25  3077.40
eigval :     3079.37  3081.13  3081.34  3081.56  3081.93  3082.63
eigval :     3082.72  3083.56  3084.61  3088.21  3088.46  3090.16
eigval :     3090.16  3090.92  3091.74  3092.52  3095.01  3095.53
eigval :     3095.87  3097.37  3097.55  3100.66  3101.41  3103.31
eigval :     3106.52  3107.95  3109.48

   temp. (K)  partition function   enthalpy   heat capacity  entropy
                                   cal/mol     cal/K/mol   cal/K/mol   J/K/mol
 298.15  VIB  0.601E+19            23710.611    152.043    147.190
         ROT  0.134E+09              888.752      2.981     40.172
         INT  0.807E+27            24599.363    155.024    187.362
         TR   0.170E+29             1481.254      4.968     45.397
         TOT                       26080.6169   159.9921   232.7592   973.8647

       T/K    H(0)-H(T)+PV         H(T)/Eh          T*S/Eh         G(T)/Eh
   ------------------------------------------------------------------------
    298.15    0.415621E-01    0.694552E+00    0.110591E+00    0.583961E+00
   ------------------------------------------------------------------------

         :::::::::::::::::::::::::::::::::::::::::::::::::::::
         ::                  THERMODYNAMIC                  ::
         :::::::::::::::::::::::::::::::::::::::::::::::::::::
         :: total free energy        -132.458102334377 Eh   ::
         ::.................................................::
         :: total energy             -133.042063207378 Eh   ::
         :: zero point energy           0.652990194055 Eh   ::
         :: G(RRHO) w/o ZPVE           -0.069029321055 Eh   ::
         :: G(RRHO) contrib.            0.583960873001 Eh   ::
         :::::::::::::::::::::::::::::::::::::::::::::::::::::

           -------------------------------------------------
          | TOTAL ENERGY             -133.042063207378 Eh   |
          | TOTAL ENTHALPY           -132.347510904828 Eh   |
          | TOTAL FREE ENERGY        -132.458102334377 Eh   |
          | GRADIENT NORM               0.000061110658 Eh/α |
          | HOMO-LUMO GAP               2.504589114245 eV   |
           -------------------------------------------------

 * finished run on 2025/08/29 at 12:58:47.245
