   * xtb version 6.7.1 (edcfbbe) compiled by 'albert@albert-system' on 2024-07-22

   ID    Z sym.   atoms
    1    6 C      1-4, 6-13, 15-28, 30-44, 46-53
    2    7 N      5, 14, 29, 45
    3    1 H      54-85

          program call               : xtb data2507/gas/DCbz-Ph-Bz/DCbz-Ph-Bz_gas_S0_finalOpt.xtbopt.xyz --gfn 2 --spinpol --tblite --uhf 2 --ohess vtight --parallel 40 --molden --ceasefiles --namespace data2507/gas/DCbz-Ph-Bz/DCbz-Ph-Bz_gas_T1_preOpt
 * total energy  :  -132.9394515 Eh     change       -0.5977711E-08 Eh
 * total energy  :  -132.9464598 Eh     change       -0.7008284E-02 Eh
 * total energy  :  -132.9502726 Eh     change       -0.3812833E-02 Eh
 * total energy  :  -132.9510327 Eh     change       -0.7600710E-03 Eh
 * total energy  :  -132.9522557 Eh     change       -0.1223023E-02 Eh
 * total energy  :  -132.9527704 Eh     change       -0.5146758E-03 Eh
 * total energy  :  -132.9531401 Eh     change       -0.3697238E-03 Eh
 * total energy  :  -132.9533564 Eh     change       -0.2162245E-03 Eh
 * total energy  :  -132.9534617 Eh     change       -0.1053860E-03 Eh
 * total energy  :  -132.9535257 Eh     change       -0.6397132E-04 Eh
 * total energy  :  -132.9539539 Eh     change       -0.2984917E-06 Eh
 * total energy  :  -132.9539542 Eh     change       -0.3631242E-06 Eh
 * total energy  :  -132.9539547 Eh     change       -0.5077458E-06 Eh
 * total energy  :  -132.9539551 Eh     change       -0.3671305E-06 Eh
 * total energy  :  -132.9539553 Eh     change       -0.2369360E-06 Eh
 * total energy  :  -132.9539555 Eh     change       -0.2132997E-06 Eh
 * total energy  :  -132.9539557 Eh     change       -0.1947080E-06 Eh
 * total energy  :  -132.9539559 Eh     change       -0.1631320E-06 Eh
 * total energy  :  -132.9539559 Eh     change       -0.3368820E-07 Eh
   *** GEOMETRY OPTIMIZATION CONVERGED AFTER 55 ITERATIONS ***

 final structure:
================
85
 xtb: 6.7.1 (edcfbbe)
C            6.00467098716576        3.99188072213675        0.19544847655423
C            5.36945815707202        3.23173754602816       -0.77432705867500
C            5.41168746755471        1.85255465459334       -0.71820179911688
C            6.08528347147936        1.22149784855538        0.32696581223368
N            6.15630723350020       -0.17653303708718        0.37708027420000
C            5.12386674579376       -1.10969929762870        0.19324319548860
C            3.75193646704207       -0.87152344850971        0.24370861613934
C            2.86729273424733       -1.93582546745230       -0.13842256404244
C            1.52387713715332       -1.76943542321998       -0.15738676994830
C            0.91184827741555       -0.53030761623074        0.20337332299521
C           -0.50188108772278       -0.33311304896566        0.12313113642490
C           -1.06301623980919        0.96221252592152        0.05661417331322
C           -2.42642379436561        1.15100407750459       -0.05224183842746
N           -2.94223665697438        2.45179867476190       -0.16908821460888
C           -2.52036436758565        3.40412216475234       -1.07454834079851
C           -1.55140161115620        3.31588366558885       -2.06455640843715
C           -1.33903662243706        4.42602165232170       -2.85947418840665
C           -2.07409626889851        5.59660329653147       -2.68653786713295
C           -3.05609610387817        5.68247542018832       -1.71879791133741
C           -3.28780236209320        4.58050936570995       -0.90751332707192
C           -4.21486715323300        4.31465165466718        0.15743445047472
C           -5.19861986601925        5.07042145091443        0.77956382358362
C           -5.91449518405416        4.50183404543432        1.81534075365764
C           -5.64740081777312        3.20338207567650        2.24300899996596
C           -4.67159910939089        2.43337256367083        1.64026030514096
C           -3.96733516896263        2.98817742913164        0.58137455737179
C           -3.29906768947107        0.06098622055812       -0.08172869988899
C           -2.76404773897915       -1.22690443588063        0.00604097387119
N           -3.62247947809198       -2.33591953533679       -0.03827866646943
C           -3.48323644090197       -3.42159561271440       -0.87929640235096
C           -2.53425891167348       -3.66167749608144       -1.86337249703806
C           -2.63861910522320       -4.83390205145658       -2.58757101514011
C           -3.66414932513978       -5.74628303877955       -2.35063601859652
C           -4.62601280347516       -5.50109518116256       -1.38960007714648
C           -4.54210864055263       -4.33040778764481       -0.64918195610017
C           -5.35376043719152       -3.75601628437623        0.38842917612395
C           -6.50246616031915       -4.17398449389969        1.04501881622672
C           -7.02799231474403       -3.36891480135982        2.03752656596521
C           -6.41234538555799       -2.17000545794306        2.38883536908839
C           -5.26685758315609       -1.73506315605126        1.75054750778213
C           -4.74933622392280       -2.52470745256271        0.73386690552658
C           -1.40108392693250       -1.42157596886672        0.10638555834147
C            1.79073564623243        0.49909416994821        0.65606907562129
C            3.13734967752279        0.34349906054379        0.68753184218598
N            5.62887712177473       -2.35962076615436        0.03986634682265
C            6.94995961735435       -2.25903934232211        0.17828013708644
C            7.93994365226381       -3.25473009727716        0.12149340440186
C            9.25171661189615       -2.86405794084595        0.25022203702196
C            9.60626272569114       -1.52156553615198        0.42505212703437
C            8.65026016505791       -0.51491502977406        0.49230316603377
C            7.32838314130293       -0.89228545778307        0.38800051923943
C            6.72324917072097        1.98515530692852        1.30051776354779
C            6.68074593138422        3.36535367134740        1.22943190350635
H            5.97191616683967        5.06962007702688        0.14544049439099
H            4.84425726450582        3.71674346393247       -1.58354284923074
H            4.92446375340215        1.25336222755659       -1.47305133345163
H            3.32395077656818       -2.86538105426829       -0.43750375043364
H            0.90295054360937       -2.58403736131381       -0.49683049868693
H           -0.42255249625374        1.82924752294726        0.06569204590693
H           -0.98835600102085        2.40770990820024       -2.21806779302957
H           -0.58840798670274        4.38343049608239       -3.63478697162896
H           -1.87629601504597        6.44347174404343       -3.32656965291688
H           -3.63650480323600        6.58425207811802       -1.59519558857346
H           -5.39420972609376        6.08289275431333        0.46017622429143
H           -6.68629292309062        5.07205570073650        2.31033197391947
H           -6.21193714280990        2.79126190759590        3.06625726973708
H           -4.45517387388744        1.43695415074829        1.99280703716911
H           -4.35871400716865        0.20839503171369       -0.21574654301147
H           -1.74678294204477       -2.95177806533463       -2.06658170605212
H           -1.91020053313366       -5.04575113125649       -3.35613409862433
H           -3.70925850377165       -6.65290723057181       -2.93526931232787
H           -5.42983379867829       -6.20077635594337       -1.21754071953985
H           -6.97036826079278       -5.11156478417439        0.78559815188468
H           -7.92295635866590       -3.67487827070404        2.55834079841185
H           -6.83630269469828       -1.56992011188560        3.18028606892234
H           -4.78273047211891       -0.81704922897388        2.04498182616719
H           -1.03249320214009       -2.42801826208555        0.22055451594932
H            1.36796324768787        1.41594891852847        1.03832049017434
H            3.75210627853486        1.12882718233797        1.09850346389258
H            7.65825556009398       -4.28500084043491       -0.02082912617995
H           10.03549403372909       -3.60617866500902        0.21093757482770
H           10.65036055547366       -1.25963000576288        0.50810908671399
H            8.93862114018503        0.51852631900281        0.61186575346178
H            7.23125467156494        1.49196908414095        2.11594144517543
H            7.17315762337737        3.95399154071289        1.98927281766477

 projected vibrational frequencies (cm⁻¹)
eigval :       -0.00    -0.00    -0.00     0.00     0.00     0.00
eigval :        8.87    10.12    16.59    17.82    22.30    27.08
eigval :       33.60    38.65    55.63    60.68    64.34    70.31
eigval :       77.84    94.65    98.14   105.00   114.56   127.94
eigval :      139.26   141.67   145.10   160.78   178.87   207.46
eigval :      209.28   220.80   232.76   240.60   250.49   253.75
eigval :      266.73   271.51   271.87   294.53   303.05   309.60
eigval :      355.66   360.79   365.55   377.43   383.06   391.03
eigval :      394.64   395.97   402.07   415.59   421.41   422.43
eigval :      424.55   434.94   436.88   469.44   479.10   508.18
eigval :      512.56   516.93   518.50   523.21   535.07   539.24
eigval :      539.85   545.87   563.67   570.71   578.17   583.14
eigval :      586.59   586.91   593.74   600.35   608.19   620.45
eigval :      634.87   639.19   650.33   663.67   664.80   671.83
eigval :      673.73   674.21   697.74   702.75   708.54   709.16
eigval :      746.85   747.42   755.13   760.02   765.54   768.62
eigval :      769.30   777.80   779.48   787.72   797.39   802.91
eigval :      808.62   842.59   847.53   851.66   858.39   860.58
eigval :      871.77   873.47   874.19   875.61   877.92   880.83
eigval :      895.60   898.96   899.23   899.52   903.22   904.18
eigval :      904.75   905.91   908.97   909.28   917.27   919.06
eigval :      921.65   922.39   922.82   928.06   930.51   931.70
eigval :      952.50   985.59  1000.47  1011.70  1012.06  1032.26
eigval :     1051.04  1065.94  1069.19  1071.77  1073.07  1076.09
eigval :     1076.94  1080.86  1107.26  1117.93  1118.28  1124.92
eigval :     1136.67  1145.73  1149.88  1152.69  1157.80  1166.15
eigval :     1176.32  1177.22  1180.37  1180.54  1180.78  1185.50
eigval :     1192.45  1200.43  1219.72  1229.36  1232.20  1235.40
eigval :     1238.26  1239.80  1252.09  1256.03  1276.19  1277.96
eigval :     1292.27  1297.86  1298.54  1299.28  1304.57  1318.50
eigval :     1322.44  1330.20  1341.44  1347.54  1355.08  1356.41
eigval :     1357.92  1358.42  1360.36  1367.12  1370.27  1392.95
eigval :     1395.43  1398.89  1420.83  1422.16  1429.84  1431.89
eigval :     1435.35  1446.29  1459.33  1471.01  1472.45  1477.16
eigval :     1486.71  1487.20  1487.77  1499.40  1510.58  1533.82
eigval :     1546.87  1570.91  1571.23  1572.01  1574.60  1585.51
eigval :     1585.86  1588.26  1591.24  1592.17  1592.86  1606.32
eigval :     1612.11  3077.85  3078.56  3078.76  3078.98  3079.45
eigval :     3080.13  3081.74  3082.23  3082.99  3083.08  3083.54
eigval :     3084.90  3085.75  3088.12  3090.17  3090.66  3090.68
eigval :     3092.77  3093.92  3094.19  3095.13  3096.56  3097.43
eigval :     3099.55  3100.08  3100.43  3102.87  3108.94  3111.31
eigval :     3111.97  3113.18  3114.91

   temp. (K)  partition function   enthalpy   heat capacity  entropy
                                   cal/mol     cal/K/mol   cal/K/mol   J/K/mol
 298.15  VIB  0.856E+19            24065.453    154.408    149.146
         ROT  0.136E+09              888.752      2.981     40.206
         INT  0.117E+28            24954.206    157.389    189.351
         TR   0.170E+29             1481.254      4.968     45.397
         TOT                       26435.4597   162.3567   234.7486   982.1883

       T/K    H(0)-H(T)+PV         H(T)/Eh          T*S/Eh         G(T)/Eh
   ------------------------------------------------------------------------
    298.15    0.421276E-01    0.690368E+00    0.111537E+00    0.578832E+00
   ------------------------------------------------------------------------

         :::::::::::::::::::::::::::::::::::::::::::::::::::::
         ::                  THERMODYNAMIC                  ::
         :::::::::::::::::::::::::::::::::::::::::::::::::::::
         :: total free energy        -132.375124189882 Eh   ::
         ::.................................................::
         :: total energy             -132.953955940760 Eh   ::
         :: zero point energy           0.648240821413 Eh   ::
         :: G(RRHO) w/o ZPVE           -0.069409070535 Eh   ::
         :: G(RRHO) contrib.            0.578831750879 Eh   ::
         :::::::::::::::::::::::::::::::::::::::::::::::::::::

           -------------------------------------------------
          | TOTAL ENERGY             -132.953955940760 Eh   |
          | TOTAL ENTHALPY           -132.263587532814 Eh   |
          | TOTAL FREE ENERGY        -132.375124189882 Eh   |
          | GRADIENT NORM               0.000083783072 Eh/α |
           -------------------------------------------------

 * finished run on 2025/08/29 at 13:02:45.426
