   * xtb version 6.7.1 (edcfbbe) compiled by 'albert@albert-system' on 2024-07-22

   ID    Z sym.   atoms
    1    6 C      1-7, 9-43
    2    7 N      8
    3    1 H      44-70

          program call               : xtb data2507/toluene/D5/D5_toluene_S0_crest.xyz --gfn 2 --gbsa toluene --ohess vtight --parallel 40 --molden --ceasefiles --namespace data2507/toluene/D5/D5_toluene_S0_finalOpt
      * Solvation model:               GBSA
        Solvent                        toluene
        Solvent mass                       9.2140E+01 g/mol
          :  Hamiltonian                  GFN2-xTB          :
 * total energy  :  -106.7219838 Eh     change       -0.2247475E-08 Eh
 * total energy  :  -106.7220059 Eh     change       -0.2208358E-04 Eh
 * total energy  :  -106.7220184 Eh     change       -0.1250584E-04 Eh
 * total energy  :  -106.7220245 Eh     change       -0.6131389E-05 Eh
 * total energy  :  -106.7220326 Eh     change       -0.8075261E-05 Eh
 * total energy  :  -106.7220358 Eh     change       -0.3242317E-05 Eh
 * total energy  :  -106.7220391 Eh     change       -0.3242477E-05 Eh
 * total energy  :  -106.7220419 Eh     change       -0.2834482E-05 Eh
 * total energy  :  -106.7220451 Eh     change       -0.3210192E-05 Eh
 * total energy  :  -106.7220495 Eh     change       -0.4429712E-05 Eh
 * total energy  :  -106.7220875 Eh     change       -0.2077769E-06 Eh
 * total energy  :  -106.7220877 Eh     change       -0.1708339E-06 Eh
 * total energy  :  -106.7220879 Eh     change       -0.1348593E-06 Eh
 * total energy  :  -106.7220880 Eh     change       -0.1206240E-06 Eh
 * total energy  :  -106.7220881 Eh     change       -0.1414316E-06 Eh
 * total energy  :  -106.7220883 Eh     change       -0.1780163E-06 Eh
 * total energy  :  -106.7220884 Eh     change       -0.1549532E-06 Eh
 * total energy  :  -106.7220886 Eh     change       -0.1132218E-06 Eh
 * total energy  :  -106.7220886 Eh     change       -0.7962764E-07 Eh
   *** GEOMETRY OPTIMIZATION CONVERGED AFTER 39 ITERATIONS ***

 final structure:
================
70
 xtb: 6.7.1 (edcfbbe)
C            0.57069827186464       -4.63512503953503       -0.86151376563183
C           -0.61020613630393       -3.92322961037896       -0.75380571746212
C           -0.58875812066513       -2.57638517366130       -0.39636296568994
C           -1.84076664699750       -1.81660134527164       -0.25918227440902
C           -2.87523259785266       -1.97249441026119       -1.17998626761952
C           -4.05178002956234       -1.26136761145851       -1.05257438265975
C           -4.22639864846113       -0.38391243747410        0.01412432795195
N           -5.42557711390902        0.33240777093742        0.15142793408552
C           -5.53752329495395        1.69747707529305        0.32350650274918
C           -4.54572197426517        2.66774279883261        0.36502954213238
C           -4.93575480259469        3.98351766392477        0.52632736327621
C           -6.27982744258450        4.33612995871137        0.63445421125605
C           -7.27218172975195        3.37807145938005        0.57206866383463
C           -6.90513495344558        2.04776799501244        0.41206950571455
C           -7.64778900563393        0.82392693034983        0.29424022636288
C           -9.00303818201438        0.51996044944876        0.32529431536015
C           -9.38864091223557       -0.80055805327876        0.20570301551883
C           -8.44148004140716       -1.81390837031457        0.06900196176631
C           -7.08822420720585       -1.53676911611022        0.03410150931431
C           -6.69517821051221       -0.20903309580805        0.13173115189818
C           -3.20119903921000       -0.22514538641285        0.94233976210118
C           -2.02155680138827       -0.92826645204831        0.79952661025314
C            0.63764541190304       -1.96348252430103       -0.16154230274330
C            1.83028357895802       -2.67074903407921       -0.26968241708379
C            3.11697210238030       -2.00536404418735       -0.01347674050004
C            4.11000536170810       -2.63515742031654        0.74102630801710
C            5.29631175305668       -1.99326829140709        0.99334724070141
C            5.56770323539996       -0.70728379443890        0.50273331165277
C            6.81366873854060       -0.02439817458439        0.79854218978901
C            7.80205367069785       -0.61383495765632        1.60070529957971
C            8.97315397679750        0.03716352883025        1.90665005226938
C            9.19408766808359        1.31896043488668        1.41849385104822
C            8.24408670311665        1.91740760201201        0.62545160878423
C            7.04512046172389        1.27237965975580        0.28916139842980
C            6.05363761627924        1.90483454749430       -0.56410843969059
C            6.27267498315553        3.16873371597596       -1.13153572791703
C            5.34182501840445        3.77288205440340       -1.94269704237425
C            4.14648759377361        3.12165422875228       -2.21963511834804
C            3.90808945933743        1.88024970289248       -1.67964916678771
C            4.83855231425835        1.24291101920462       -0.84600882477885
C            4.58254744957224       -0.07341021920306       -0.28567920944067
C            3.37315758981601       -0.74142632781421       -0.51120769297908
C            1.78477543036450       -4.01885458894641       -0.61856887844071
H            0.54451848137904       -5.68020106606399       -1.13559487950230
H           -1.55554355620566       -4.41735920054784       -0.92380721104840
H           -2.74522089605973       -2.63897772193249       -2.01997637957132
H           -4.83746314282263       -1.37075457068049       -1.78557305784079
H           -3.50289740464101        2.40657658370569        0.26547358272136
H           -4.18222597119352        4.75687774719310        0.56559273517341
H           -6.54446096706935        5.37582434865687        0.76130508674818
H           -8.31410053123320        3.65339185319847        0.64218488790594
H           -9.73678854725063        1.30312444504375        0.44617863712674
H          -10.43773126257635       -1.05760911633223        0.22600611021890
H           -8.77279601692776       -2.83947773523352       -0.00756318178071
H           -6.36154169018594       -2.33023771636822       -0.05568477705303
H           -3.34063771359725        0.43992757447856        1.78174980884755
H           -1.24001093991069       -0.81005707056056        1.53572001901769
H            0.66543150508702       -0.91890066373506        0.11338860442950
H            3.93159677496851       -3.61959201790602        1.14855932870676
H            6.02826812379080       -2.51037046872561        1.59194638073203
H            7.65646414125438       -1.60400418176945        2.00052272902444
H            9.71472187032890       -0.44469139266810        2.52722034717332
H           10.10726358687542        1.84362495263102        1.65929211293040
H            8.44358882850413        2.91336514185390        0.26525663451842
H            7.19368334616029        3.69557996258857       -0.94289317830661
H            5.54161404795679        4.74726241758079       -2.36439775217477
H            3.40918863177093        3.58493686600846       -2.85913875817984
H            2.97569555407700        1.39685755612967       -1.92174174877946
H            2.60345157339331       -0.27888708587111       -1.10705054148051
H            2.70421002079441       -4.57692423552381       -0.71895848384475

          :  Hamiltonian                  GFN2-xTB          :
         :: gradient norm              0.000033023843 Eh/a0 ::
         :: HOMO-LUMO gap              2.722906999383 eV    ::
         :: SCC energy              -108.800468486251 Eh    ::
         :: -> dispersion             -0.094666054472 Eh    ::
         :: -> Gsolv                  -0.043942215950 Eh    ::
         :: repulsion energy           2.078379847493 Eh    ::

    * Orbital Energies and Occupations

         #    Occupation            Energy/Eh            Energy/eV
      -------------------------------------------------------------
         1        2.0000           -0.6750428             -18.3688
       ...           ...                  ...                  ...
        88        2.0000           -0.4166334             -11.3372
        89        2.0000           -0.4136527             -11.2561
        90        2.0000           -0.4117394             -11.2040
        91        2.0000           -0.4058010             -11.0424
        92        2.0000           -0.4044033             -11.0044
        93        2.0000           -0.4039285             -10.9915
        94        2.0000           -0.4012546             -10.9187
        95        2.0000           -0.3934142             -10.7053
        96        2.0000           -0.3905870             -10.6284
        97        2.0000           -0.3798637             -10.3366
        98        2.0000           -0.3777777             -10.2799
        99        2.0000           -0.3751561             -10.2085
       100        2.0000           -0.3607065              -9.8153 (HOMO)
       101                         -0.2606415              -7.0924 (LUMO)
       102                         -0.2555098              -6.9528
       103                         -0.2504668              -6.8155
       104                         -0.2428430              -6.6081
       105                         -0.2385016              -6.4900
       106                         -0.2299162              -6.2563
       107                         -0.2227380              -6.0610
       108                         -0.2211805              -6.0186
       109                         -0.2089343              -5.6854
       110                         -0.1934565              -5.2642
       111                         -0.1909284              -5.1954
       ...                                ...                  ...
       199                          0.7452187              20.2784
      -------------------------------------------------------------
                  HL-Gap            0.1000650 Eh            2.7229 eV

     #   Z          covCN         q      C6AA      α(0)
     1   6 C        2.916    -0.031    28.773     8.796
     2   6 C        2.924    -0.037    28.916     8.818
     3   6 C        2.975     0.009    27.805     8.649
     4   6 C        2.976     0.008    27.838     8.655
     5   6 C        2.924    -0.033    28.830     8.805
     6   6 C        2.920    -0.043    29.070     8.842
     7   6 C        2.912     0.062    26.613     8.459
     8   7 N        2.802    -0.047    22.143     6.989
     9   6 C        3.076     0.048    26.854     8.496
    10   6 C        2.909    -0.052    29.291     8.874
    11   6 C        2.924    -0.035    28.879     8.813
    12   6 C        2.919    -0.043    29.069     8.841
    13   6 C        2.912    -0.035    28.874     8.811
    14   6 C        3.067    -0.019    28.414     8.741
    15   6 C        3.067    -0.019    28.414     8.741
    16   6 C        2.912    -0.035    28.874     8.811
    17   6 C        2.919    -0.043    29.069     8.841
    18   6 C        2.924    -0.035    28.880     8.813
    19   6 C        2.909    -0.052    29.291     8.874
    20   6 C        3.076     0.048    26.854     8.496
    21   6 C        2.920    -0.043    29.068     8.841
    22   6 C        2.924    -0.033    28.828     8.805
    23   6 C        2.930    -0.040    28.989     8.830
    24   6 C        2.975     0.009    27.805     8.650
    25   6 C        2.975     0.007    27.861     8.658
    26   6 C        2.922    -0.037    28.918     8.818
    27   6 C        2.921    -0.038    28.937     8.821
    28   6 C        2.979     0.003    27.957     8.673
    29   6 C        2.978     0.005    27.909     8.666
    30   6 C        2.923    -0.037    28.923     8.819
    31   6 C        2.917    -0.033    28.816     8.803
    32   6 C        2.917    -0.033    28.818     8.803
    33   6 C        2.923    -0.037    28.919     8.819
    34   6 C        2.978     0.004    27.919     8.667
    35   6 C        2.978     0.005    27.914     8.666
    36   6 C        2.923    -0.037    28.919     8.819
    37   6 C        2.917    -0.033    28.815     8.803
    38   6 C        2.917    -0.033    28.816     8.803
    39   6 C        2.923    -0.037    28.916     8.818
    40   6 C        2.979     0.005    27.913     8.666
    41   6 C        2.977     0.004    27.924     8.668
    42   6 C        2.929    -0.042    29.053     8.840
    43   6 C        2.924    -0.036    28.897     8.816
    44   1 H        0.926     0.032     2.558     2.501
    45   1 H        0.926     0.033     2.541     2.493
    46   1 H        0.926     0.041     2.434     2.440
    47   1 H        0.926     0.041     2.436     2.441
    48   1 H        0.926     0.030     2.591     2.517
    49   1 H        0.926     0.029     2.594     2.519
    50   1 H        0.926     0.027     2.628     2.535
    51   1 H        0.926     0.029     2.595     2.519
    52   1 H        0.926     0.029     2.595     2.519
    53   1 H        0.926     0.027     2.628     2.535
    54   1 H        0.926     0.029     2.595     2.519
    55   1 H        0.926     0.030     2.593     2.518
    56   1 H        0.926     0.041     2.437     2.441
    57   1 H        0.926     0.041     2.435     2.440
    58   1 H        0.926     0.035     2.518     2.482
    59   1 H        0.926     0.032     2.552     2.498
    60   1 H        0.926     0.035     2.513     2.479
    61   1 H        0.926     0.035     2.520     2.482
    62   1 H        0.926     0.030     2.584     2.514
    63   1 H        0.926     0.030     2.585     2.514
    64   1 H        0.926     0.034     2.524     2.484
    65   1 H        0.926     0.035     2.522     2.484
    66   1 H        0.926     0.030     2.584     2.514
    67   1 H        0.926     0.030     2.583     2.513
    68   1 H        0.926     0.035     2.519     2.482
    69   1 H        0.926     0.037     2.489     2.467
    70   1 H        0.926     0.033     2.547     2.496

molecular dipole:
                 x           y           z       tot (Debye)
 q only:        0.621      -0.391      -0.069
   full:        0.661      -0.406      -0.068       1.980

 projected vibrational frequencies (cm⁻¹)
eigval :       -0.00    -0.00    -0.00    -0.00     0.00     0.00
eigval :       10.64    11.60    15.54    28.86    30.85    38.43
eigval :       50.65    56.49    80.71    81.96    88.08   102.41
eigval :      111.49   127.12   136.42   146.03   183.30   203.81
eigval :      205.40   227.81   246.28   249.65   257.83   269.73
eigval :      278.24   298.92   317.36   355.55   381.79   383.36
eigval :      385.96   392.73   393.88   396.52   402.07   406.08
eigval :      411.12   426.02   438.90   443.68   458.47   469.34
eigval :      504.84   515.60   518.38   527.95   532.99   540.45
eigval :      545.76   568.08   582.27   586.73   588.32   596.60
eigval :      599.43   604.04   608.73   633.67   664.97   672.79
eigval :      674.03   677.41   687.66   697.15   700.10   706.51
eigval :      711.67   748.92   754.58   758.78   764.41   768.04
eigval :      771.92   778.82   779.49   788.43   818.57   825.02
eigval :      846.31   859.96   862.98   864.35   865.34   872.07
eigval :      876.45   890.10   896.81   898.98   900.12   902.12
eigval :      904.39   908.12   916.22   918.39   919.94   922.87
eigval :      924.73   925.20   927.01   930.71   932.95   956.59
eigval :      983.16  1010.82  1012.61  1018.97  1029.49  1067.97
eigval :     1070.63  1085.28  1096.01  1100.65  1115.97  1126.76
eigval :     1132.68  1136.52  1143.71  1150.07  1153.21  1171.75
eigval :     1173.70  1179.35  1181.01  1181.34  1192.16  1199.08
eigval :     1202.47  1234.80  1239.08  1244.16  1248.92  1263.35
eigval :     1263.73  1267.74  1268.76  1278.83  1297.87  1301.09
eigval :     1304.63  1312.35  1313.31  1317.55  1319.89  1335.05
eigval :     1340.13  1355.42  1359.29  1360.30  1364.99  1394.86
eigval :     1399.72  1416.34  1424.64  1427.11  1429.38  1431.75
eigval :     1438.35  1467.09  1474.05  1478.29  1486.80  1493.87
eigval :     1499.47  1540.48  1559.64  1560.34  1566.89  1572.67
eigval :     1575.84  1585.37  1587.18  1591.45  1592.81  1596.85
eigval :     1597.37  1605.11  1612.90  3068.66  3069.39  3069.48
eigval :     3070.03  3070.27  3074.93  3075.95  3076.85  3077.27
eigval :     3078.65  3079.43  3079.95  3080.68  3081.20  3083.06
eigval :     3084.10  3088.32  3089.62  3089.97  3091.78  3092.80
eigval :     3100.55  3101.19  3102.90  3112.80  3113.18  3115.47

   temp. (K)  partition function   enthalpy   heat capacity  entropy
                                   cal/mol     cal/K/mol   cal/K/mol   J/K/mol
 298.15  VIB  0.244E+15            18735.397    122.737    115.070
         ROT  0.840E+08              888.752      2.981     39.242
         INT  0.205E+23            19624.150    125.718    154.312
         TR   0.123E+29             1481.254      4.968     44.756
         TOT                       21105.4035   130.6857   199.0672   832.8973

       T/K    H(0)-H(T)+PV         H(T)/Eh          T*S/Eh         G(T)/Eh
   ------------------------------------------------------------------------
    298.15    0.336336E-01    0.575060E+00    0.945833E-01    0.480476E+00
   ------------------------------------------------------------------------

         :::::::::::::::::::::::::::::::::::::::::::::::::::::
         ::                  THERMODYNAMIC                  ::
         :::::::::::::::::::::::::::::::::::::::::::::::::::::
         :: total free energy        -106.241612212652 Eh   ::
         ::.................................................::
         :: total energy             -106.722088634146 Eh   ::
         :: zero point energy           0.541426087618 Eh   ::
         :: G(RRHO) w/o ZPVE           -0.060949666124 Eh   ::
         :: G(RRHO) contrib.            0.480476421494 Eh   ::
         :::::::::::::::::::::::::::::::::::::::::::::::::::::

           -------------------------------------------------
          | TOTAL ENERGY             -106.722088634146 Eh   |
          | TOTAL ENTHALPY           -106.147028945176 Eh   |
          | TOTAL FREE ENERGY        -106.241612212652 Eh   |
          | GRADIENT NORM               0.000033021223 Eh/α |
          | HOMO-LUMO GAP               2.722906941308 eV   |
           -------------------------------------------------

 * finished run on 2025/09/04 at 21:54:04.934
