   * xtb version 6.7.1 (edcfbbe) compiled by 'albert@albert-system' on 2024-07-22

   ID    Z sym.   atoms
    1    6 C      1-7, 9-43
    2    7 N      8
    3    1 H      44-70

          program call               : xtb data2507/toluene/D5/D5.xyz --gfn 2 --gbsa toluene --ohess vtight --parallel 40 --molden --ceasefiles --namespace data2507/toluene/D5/D5_toluene_S0_preOpt
      * Solvation model:               GBSA
        Solvent                        toluene
        Solvent mass                       9.2140E+01 g/mol
          :  Hamiltonian                  GFN2-xTB          :
 * total energy  :  -106.7035106 Eh     change       -0.2041759E-08 Eh
 * total energy  :  -106.7168155 Eh     change       -0.1330492E-01 Eh
 * total energy  :  -106.7196588 Eh     change       -0.2843285E-02 Eh
 * total energy  :  -106.7202773 Eh     change       -0.6185307E-03 Eh
 * total energy  :  -106.7208554 Eh     change       -0.5781394E-03 Eh
 * total energy  :  -106.7210888 Eh     change       -0.2333456E-03 Eh
 * total energy  :  -106.7212699 Eh     change       -0.1811260E-03 Eh
 * total energy  :  -106.7214268 Eh     change       -0.1568625E-03 Eh
 * total energy  :  -106.7215413 Eh     change       -0.1145713E-03 Eh
 * total energy  :  -106.7216184 Eh     change       -0.7701879E-04 Eh
 * total energy  :  -106.7220103 Eh     change       -0.2499121E-05 Eh
 * total energy  :  -106.7220128 Eh     change       -0.2530881E-05 Eh
 * total energy  :  -106.7220154 Eh     change       -0.2601821E-05 Eh
 * total energy  :  -106.7220180 Eh     change       -0.2529667E-05 Eh
 * total energy  :  -106.7220203 Eh     change       -0.2325471E-05 Eh
 * total energy  :  -106.7220224 Eh     change       -0.2152207E-05 Eh
 * total energy  :  -106.7220245 Eh     change       -0.2066147E-05 Eh
 * total energy  :  -106.7220267 Eh     change       -0.2227363E-05 Eh
 * total energy  :  -106.7220267 Eh     change       -0.6835791E-08 Eh
   *** GEOMETRY OPTIMIZATION CONVERGED AFTER 94 ITERATIONS ***

 final structure:
================
70
 xtb: 6.7.1 (edcfbbe)
C            0.72981163576111        2.25844209483835       -3.28907817516945
C           -0.53880352373582        1.97082226171104       -2.81915107627847
C           -0.71007606319473        1.08412512164958       -1.75806683091848
C           -2.05440257843857        0.78145832571658       -1.24200638674123
C           -3.11765587825982        0.55352472305827       -2.11334191400238
C           -4.38144451297486        0.27375909219877       -1.63245879308718
C           -4.60955466442004        0.21402125669400       -0.26056479881472
N           -5.89441195233798       -0.06406942364393        0.23264298011316
C           -6.58167000550287        0.68957052272047        1.16277237072499
C           -6.21392958237078        1.87362397695161        1.78703918877056
C           -7.11106564413881        2.44373965136110        2.66988975810464
C           -8.35076742155513        1.86054370963262        2.92615021666919
C           -8.73144675629999        0.69481346892923        2.29160353335975
C           -7.84656417768579        0.10219399658686        1.39944971412610
C           -7.91428783561208       -1.06737089957876        0.56863049429052
C           -8.87864814641402       -2.04819602171433        0.37394564258627
C           -8.60990475051661       -3.07535889152704       -0.50880310974708
C           -7.39146307166573       -3.14065791833403       -1.18247757761332
C           -6.41650342409910       -2.17759249492940       -1.00545906929821
C           -6.68986470328240       -1.12970771839711       -0.13701077014124
C           -3.55307164689954        0.43632409369937        0.61803342606626
C           -2.29259007493749        0.71765146233263        0.12951428973862
C            0.41188019576253        0.48905126586338       -1.19123623596842
C            1.69100980829102        0.76731366287014       -1.66118694445944
C            2.86246326626073        0.11669615312684       -1.05410024017478
C            2.84062960242270       -1.24431354862806       -0.73867835560755
C            3.94231116098321       -1.84069021269335       -0.17881791466465
C            5.11516978698594       -1.12499079334186        0.10426967325197
C            6.27651620550625       -1.76532685036737        0.69370664330135
C            6.29383140844927       -3.13949136332330        0.97516430258066
C            7.38934030285005       -3.75308599657506        1.53387805678174
C            8.51996130107540       -3.00223407460525        1.83049457147538
C            8.53064875835688       -1.65427776517824        1.56122343584650
C            7.42679893423148       -1.00237892625953        0.99248827369826
C            7.44931211514142        0.42122227351318        0.70244340864333
C            8.56745571786117        1.21346952405642        1.00143185180812
C            8.60388747558329        2.55761983399541        0.71626244743803
C            7.50862759124845        3.16094445706903        0.11121840460893
C            6.39692895567375        2.40908427031808       -0.18570012825673
C            6.33058483689529        1.03765409635432        0.10026469168778
C            5.14416132658999        0.25374850646792       -0.19942903793696
C            4.01067054981762        0.83566995835737       -0.77944574613360
C            1.84008595777651        1.66476358342106       -2.71655391199531
H            0.85410646882119        2.95080890083868       -4.10952111573102
H           -1.40013037183274        2.45021472106494       -3.26074724521704
H           -2.94922329141685        0.58533218310709       -3.17981891304292
H           -5.20161504112693        0.11136246959200       -2.31623110700532
H           -5.26245081815110        2.34156396672717        1.58350027877880
H           -6.84690586875376        3.36402475891598        3.17061486338935
H           -9.02338419772819        2.33592742756485        3.62518286843872
H           -9.69825243923088        0.25155910378719        2.47902485394895
H           -9.81679166233078       -2.00630463458960        0.90726762831635
H           -9.34785270072897       -3.84646645317949       -0.67596731004003
H           -7.20394915378083       -3.96442942106125       -1.85604130628314
H           -5.46959059962331       -2.24553487233070       -1.51971012674387
H           -3.72463473473907        0.37881009210278        1.68283121584205
H           -1.48327432596917        0.90271193813416        0.82056465317302
H            0.28791580728607       -0.20325707486555       -0.37103483410376
H            1.96047994406805       -1.83194031101436       -0.95555545599257
H            3.88329573429322       -2.89363334710612        0.04331675502325
H            5.43410880324830       -3.74949920856002        0.75092866102490
H            7.37083681748719       -4.81384130682486        1.73799287593345
H            9.38782819842060       -3.47395197088443        2.26815509555620
H            9.42470566776346       -1.10098508677454        1.79790591635114
H            9.43282094060176        0.77482995204498        1.47064738247770
H            9.48073489057852        3.13968441940610        0.96032334761075
H            7.52763801040686        4.21566138655339       -0.12201916486218
H            5.56226119690611        2.90751349411794       -0.65093594592716
H            4.00104777486051        1.88881020389975       -1.00773667689094
H            2.82631147148452        1.87891722495349       -3.10188655269019

          :  Hamiltonian                  GFN2-xTB          :
         :: gradient norm              0.000065547439 Eh/a0 ::
         :: HOMO-LUMO gap              2.722266018202 eV    ::
         :: SCC energy              -108.800494335274 Eh    ::
         :: -> dispersion             -0.094632656962 Eh    ::
         :: -> Gsolv                  -0.043963077575 Eh    ::
         :: repulsion energy           2.078467586017 Eh    ::

    * Orbital Energies and Occupations

         #    Occupation            Energy/Eh            Energy/eV
      -------------------------------------------------------------
         1        2.0000           -0.6749707             -18.3669
       ...           ...                  ...                  ...
        88        2.0000           -0.4170167             -11.3476
        89        2.0000           -0.4142984             -11.2736
        90        2.0000           -0.4116065             -11.2004
        91        2.0000           -0.4056778             -11.0391
        92        2.0000           -0.4043301             -11.0024
        93        2.0000           -0.4039507             -10.9921
        94        2.0000           -0.4012866             -10.9196
        95        2.0000           -0.3934521             -10.7064
        96        2.0000           -0.3905758             -10.6281
        97        2.0000           -0.3798395             -10.3360
        98        2.0000           -0.3776804             -10.2772
        99        2.0000           -0.3751698             -10.2089
       100        2.0000           -0.3606522              -9.8138 (HOMO)
       101                         -0.2606108              -7.0916 (LUMO)
       102                         -0.2555226              -6.9531
       103                         -0.2499519              -6.8015
       104                         -0.2428748              -6.6090
       105                         -0.2384926              -6.4897
       106                         -0.2300136              -6.2590
       107                         -0.2227513              -6.0614
       108                         -0.2210941              -6.0163
       109                         -0.2092841              -5.6949
       110                         -0.1934022              -5.2627
       111                         -0.1909059              -5.1948
       ...                                ...                  ...
       199                          0.7453778              20.2828
      -------------------------------------------------------------
                  HL-Gap            0.1000414 Eh            2.7223 eV

     #   Z          covCN         q      C6AA      α(0)
     1   6 C        2.916    -0.031    28.773     8.796
     2   6 C        2.924    -0.037    28.915     8.818
     3   6 C        2.975     0.009    27.804     8.649
     4   6 C        2.976     0.008    27.833     8.654
     5   6 C        2.924    -0.033    28.827     8.805
     6   6 C        2.920    -0.043    29.067     8.841
     7   6 C        2.912     0.062    26.613     8.459
     8   7 N        2.802    -0.047    22.148     6.990
     9   6 C        3.076     0.048    26.853     8.496
    10   6 C        2.909    -0.052    29.292     8.875
    11   6 C        2.924    -0.035    28.879     8.813
    12   6 C        2.919    -0.043    29.070     8.842
    13   6 C        2.912    -0.035    28.875     8.811
    14   6 C        3.067    -0.019    28.415     8.741
    15   6 C        3.067    -0.019    28.415     8.741
    16   6 C        2.912    -0.035    28.875     8.811
    17   6 C        2.919    -0.043    29.070     8.842
    18   6 C        2.924    -0.035    28.880     8.813
    19   6 C        2.909    -0.052    29.292     8.875
    20   6 C        3.076     0.048    26.853     8.496
    21   6 C        2.920    -0.043    29.065     8.841
    22   6 C        2.924    -0.033    28.826     8.805
    23   6 C        2.931    -0.039    28.978     8.828
    24   6 C        2.975     0.009    27.804     8.649
    25   6 C        2.975     0.007    27.862     8.658
    26   6 C        2.922    -0.037    28.919     8.819
    27   6 C        2.921    -0.038    28.937     8.821
    28   6 C        2.979     0.003    27.956     8.673
    29   6 C        2.979     0.005    27.909     8.666
    30   6 C        2.923    -0.037    28.923     8.819
    31   6 C        2.917    -0.033    28.815     8.803
    32   6 C        2.917    -0.033    28.818     8.803
    33   6 C        2.923    -0.037    28.920     8.819
    34   6 C        2.978     0.004    27.919     8.667
    35   6 C        2.978     0.005    27.914     8.666
    36   6 C        2.923    -0.037    28.919     8.819
    37   6 C        2.917    -0.033    28.815     8.803
    38   6 C        2.917    -0.033    28.816     8.803
    39   6 C        2.923    -0.037    28.917     8.818
    40   6 C        2.979     0.005    27.913     8.666
    41   6 C        2.977     0.004    27.924     8.668
    42   6 C        2.929    -0.042    29.051     8.839
    43   6 C        2.924    -0.036    28.905     8.817
    44   1 H        0.926     0.032     2.556     2.500
    45   1 H        0.926     0.033     2.540     2.492
    46   1 H        0.926     0.041     2.434     2.440
    47   1 H        0.926     0.041     2.435     2.440
    48   1 H        0.926     0.029     2.594     2.519
    49   1 H        0.926     0.029     2.596     2.520
    50   1 H        0.926     0.027     2.629     2.535
    51   1 H        0.926     0.029     2.596     2.519
    52   1 H        0.926     0.029     2.596     2.520
    53   1 H        0.926     0.027     2.629     2.536
    54   1 H        0.926     0.029     2.596     2.520
    55   1 H        0.926     0.029     2.594     2.519
    56   1 H        0.926     0.041     2.435     2.440
    57   1 H        0.926     0.041     2.435     2.440
    58   1 H        0.926     0.035     2.515     2.480
    59   1 H        0.926     0.032     2.552     2.498
    60   1 H        0.926     0.035     2.513     2.479
    61   1 H        0.926     0.035     2.520     2.483
    62   1 H        0.926     0.030     2.584     2.514
    63   1 H        0.926     0.030     2.585     2.514
    64   1 H        0.926     0.034     2.524     2.484
    65   1 H        0.926     0.035     2.523     2.484
    66   1 H        0.926     0.030     2.584     2.514
    67   1 H        0.926     0.030     2.582     2.513
    68   1 H        0.926     0.035     2.518     2.481
    69   1 H        0.926     0.037     2.488     2.467
    70   1 H        0.926     0.033     2.550     2.497

molecular dipole:
                 x           y           z       tot (Debye)
 q only:        0.677       0.152      -0.269
   full:        0.719       0.155      -0.277       1.997

 projected vibrational frequencies (cm⁻¹)
eigval :       -0.00    -0.00    -0.00     0.00     0.00     0.00
eigval :        6.56    10.72    14.21    26.13    32.57    38.90
eigval :       45.49    62.74    72.92    83.34    91.49   105.83
eigval :      109.37   121.20   133.15   142.63   181.57   201.87
eigval :      214.66   227.21   242.57   247.40   251.61   272.01
eigval :      276.60   311.10   317.88   356.46   376.05   381.85
eigval :      384.74   393.01   394.08   396.05   401.36   405.61
eigval :      422.15   426.01   438.94   441.46   452.96   472.79
eigval :      505.12   515.81   518.92   527.92   533.84   540.85
eigval :      545.26   567.79   583.47   586.54   588.81   595.49
eigval :      599.84   603.82   614.88   629.92   664.09   673.01
eigval :      673.40   677.68   687.61   696.55   701.57   705.31
eigval :      710.53   748.48   754.55   759.26   764.83   768.10
eigval :      770.25   778.90   779.51   794.05   819.28   828.02
eigval :      847.13   862.56   864.34   865.66   866.34   870.61
eigval :      878.98   897.06   899.08   899.89   902.18   903.85
eigval :      905.34   908.64   916.52   919.47   921.21   923.52
eigval :      926.00   926.20   930.82   933.33   938.09   956.98
eigval :      983.18  1010.87  1013.41  1018.96  1029.82  1068.45
eigval :     1071.85  1085.87  1096.94  1100.52  1116.58  1125.41
eigval :     1133.29  1137.46  1143.90  1150.85  1153.62  1172.76
eigval :     1174.86  1180.04  1182.25  1182.77  1191.14  1199.77
eigval :     1202.51  1235.29  1236.08  1243.28  1251.35  1261.01
eigval :     1265.61  1267.80  1269.30  1280.14  1298.67  1301.63
eigval :     1305.31  1312.45  1313.66  1316.71  1323.21  1334.89
eigval :     1339.81  1355.43  1359.28  1360.49  1365.42  1391.09
eigval :     1401.12  1415.52  1424.00  1427.29  1429.24  1432.57
eigval :     1442.53  1465.26  1474.33  1478.84  1487.08  1493.75
eigval :     1499.76  1540.39  1560.34  1560.44  1567.01  1572.68
eigval :     1575.62  1586.83  1587.82  1591.14  1593.02  1596.91
eigval :     1597.46  1605.08  1613.15  3069.19  3069.65  3069.91
eigval :     3070.74  3071.46  3075.41  3076.43  3076.58  3077.75
eigval :     3079.14  3079.71  3080.42  3080.58  3081.31  3083.33
eigval :     3084.62  3087.91  3089.52  3090.22  3091.88  3093.00
eigval :     3100.37  3101.30  3102.28  3112.73  3113.36  3115.59

   temp. (K)  partition function   enthalpy   heat capacity  entropy
                                   cal/mol     cal/K/mol   cal/K/mol   J/K/mol
 298.15  VIB  0.523E+15            18748.751    122.602    115.832
         ROT  0.901E+08              888.752      2.981     39.380
         INT  0.471E+23            19637.503    125.583    155.212
         TR   0.123E+29             1481.254      4.968     44.756
         TOT                       21118.7569   130.5510   199.9672   836.6626

       T/K    H(0)-H(T)+PV         H(T)/Eh          T*S/Eh         G(T)/Eh
   ------------------------------------------------------------------------
    298.15    0.336549E-01    0.575223E+00    0.950108E-01    0.480212E+00
   ------------------------------------------------------------------------

         :::::::::::::::::::::::::::::::::::::::::::::::::::::
         ::                  THERMODYNAMIC                  ::
         :::::::::::::::::::::::::::::::::::::::::::::::::::::
         :: total free energy        -106.241814625373 Eh   ::
         ::.................................................::
         :: total energy             -106.722026749383 Eh   ::
         :: zero point energy           0.541568089677 Eh   ::
         :: G(RRHO) w/o ZPVE           -0.061355965667 Eh   ::
         :: G(RRHO) contrib.            0.480212124010 Eh   ::
         :::::::::::::::::::::::::::::::::::::::::::::::::::::

           -------------------------------------------------
          | TOTAL ENERGY             -106.722026749383 Eh   |
          | TOTAL ENTHALPY           -106.146803778321 Eh   |
          | TOTAL FREE ENERGY        -106.241814625373 Eh   |
          | GRADIENT NORM               0.000065542742 Eh/α |
          | HOMO-LUMO GAP               2.722266083217 eV   |
           -------------------------------------------------

 * finished run on 2025/09/04 at 21:50:26.117
