   * xtb version 6.7.1 (edcfbbe) compiled by 'albert@albert-system' on 2024-07-22

   ID    Z sym.   atoms
    1    6 C      1-7, 9-43
    2    7 N      8
    3    1 H      44-70

          program call               : xtb data2507/toluene/D5/D5_toluene_T1_crest.xyz --gfn 2 --uhf 2 --gbsa toluene --ohess vtight --parallel 40 --molden --ceasefiles --namespace data2507/toluene/D5/D5_toluene_T1_finalOpt
      * Solvation model:               GBSA
        Solvent                        toluene
        Solvent mass                       9.2140E+01 g/mol
          :  Hamiltonian                  GFN2-xTB          :
 * total energy  :  -106.6217463 Eh     change       -0.4067904E-07 Eh
 * total energy  :  -106.6217644 Eh     change       -0.1813094E-04 Eh
 * total energy  :  -106.6217703 Eh     change       -0.5930141E-05 Eh
 * total energy  :  -106.6217727 Eh     change       -0.2341763E-05 Eh
 * total energy  :  -106.6217751 Eh     change       -0.2491823E-05 Eh
 * total energy  :  -106.6217768 Eh     change       -0.1651175E-05 Eh
 * total energy  :  -106.6217787 Eh     change       -0.1899193E-05 Eh
 * total energy  :  -106.6217799 Eh     change       -0.1196778E-05 Eh
 * total energy  :  -106.6217804 Eh     change       -0.5519667E-06 Eh
 * total energy  :  -106.6217810 Eh     change       -0.5210407E-06 Eh
 * total energy  :  -106.6217833 Eh     change       -0.4562614E-06 Eh
 * total energy  :  -106.6217836 Eh     change       -0.3005284E-06 Eh
 * total energy  :  -106.6217839 Eh     change       -0.2896021E-06 Eh
 * total energy  :  -106.6217843 Eh     change       -0.4076612E-06 Eh
 * total energy  :  -106.6217848 Eh     change       -0.4386564E-06 Eh
 * total energy  :  -106.6217852 Eh     change       -0.4341129E-06 Eh
 * total energy  :  -106.6217856 Eh     change       -0.3705098E-06 Eh
 * total energy  :  -106.6217859 Eh     change       -0.3526833E-06 Eh
 * total energy  :  -106.6217859 Eh     change       -0.2925375E-08 Eh
   *** GEOMETRY OPTIMIZATION CONVERGED AFTER 22 ITERATIONS ***

 final structure:
================
70
 xtb: 6.7.1 (edcfbbe)
C            0.65929390021085       -4.76874754069704       -0.36362864307946
C           -0.54271582807832       -4.07057025669667       -0.33221908382624
C           -0.52984908076178       -2.67948533953997       -0.13286251237959
C           -1.78948567906372       -1.92448889650972       -0.09042491573554
C           -2.82449730592078       -2.21369168687892       -0.98023837077148
C           -4.00321147432008       -1.49665463479556       -0.95713433371227
C           -4.18204766534340       -0.47459633609409       -0.02765158205703
N           -5.37981137062685        0.25413722892478        0.00331474774624
C           -5.48632220484801        1.63027126779093       -0.00498151829241
C           -4.48985742826545        2.59336661760990       -0.09262132170135
C           -4.87499643393862        3.92078841323460       -0.10957168509035
C           -6.21738129315484        4.28917907824996       -0.05077729895384
C           -7.21502943998889        3.33439781998440        0.01259584241090
C           -6.85294558456843        1.99454587834417        0.03131698845037
C           -7.60068487297158        0.76689830812922        0.06825532344633
C           -8.95635555681835        0.47459542898124        0.12609401798884
C           -9.34676125342626       -0.85077870312249        0.16893594312166
C           -8.40369345792471       -1.87639787627021        0.17046082586590
C           -7.04844021074833       -1.61030983911875        0.11422116401805
C           -6.65094899474775       -0.28163946088124        0.04576937164168
C           -3.15914274131937       -0.18324074166559        0.87222760056177
C           -1.97895571325961       -0.89683097054879        0.83420555882087
C            0.67658179917372       -2.02907674936530        0.02270661212992
C            1.91651755352223       -2.71221552904406       -0.00468649177161
C            3.15771416200346       -2.03370768153324        0.14886404342390
C            4.35528338201180       -2.72237311981552        0.52438299491682
C            5.54123353397409       -2.08304729568229        0.62153010961054
C            5.68858300250265       -0.68083835198178        0.32792620234545
C            6.93164174285022       -0.05688678926651        0.17848226124295
C            8.16073782845318       -0.78170008512298        0.25893721953686
C            9.36392804039829       -0.18896105267382        0.01848777727476
C            9.42251191545275        1.16935273056940       -0.32404586443220
C            8.25727538564744        1.90991177967503       -0.38284190193244
C            7.00901996681975        1.35281391073200       -0.12148323403909
C            5.79540915951838        2.14470510434449       -0.11827139149124
C            5.82811929168365        3.54325377222840       -0.20291859641235
C            4.67437407499814        4.30307853501626       -0.16581354137237
C            3.44824964881337        3.68134619697360       -0.01877525667098
C            3.39098047222853        2.30094513185066        0.07764177899179
C            4.53861029329085        1.51102235865357        0.00885798775688
C            4.46490287499100        0.05785172069091        0.11186794045892
C            3.28118317221397       -0.61978980168609       -0.01282242978145
C            1.85889036331621       -4.12150220136815       -0.20323365768877
H            0.64653970609994       -5.83843231087228       -0.52122805635892
H           -1.48025597335365       -4.59471491037580       -0.43405850093868
H           -2.68954251297912       -2.98930620999605       -1.71942446202193
H           -4.78480120192679       -1.70950252001746       -1.67141658149247
H           -3.44834996576376        2.31719098485817       -0.15624766463787
H           -4.11856045754306        4.68924423284499       -0.17400757014539
H           -6.47851161295789        5.33716591963474       -0.06422318411304
H           -8.25542538736025        3.62141102313106        0.04151396657289
H           -9.68802898850637        1.26841763780233        0.14083386086666
H          -10.39710759044281       -1.09907270880654        0.21067985518642
H           -8.73862103411301       -2.90216733266330        0.22012402176560
H           -6.32477595737149       -2.41096400466684        0.13358813737286
H           -3.30402432896634        0.59078252145769        1.61135108054717
H           -1.20193423167817       -0.67519402049268        1.55093470697276
H            0.66406493673079       -0.96265489546746        0.18223717192951
H            4.30166595236849       -3.76943508710163        0.78065831825184
H            6.40568639459180       -2.64312862169337        0.94095578032614
H            8.13834310968501       -1.83214960504863        0.49902414150264
H           10.27647600727972       -0.76483389096419        0.07922318336551
H           10.37292908503669        1.63387750731598       -0.53939791126061
H            8.33697867356094        2.95117971584264       -0.65333648424568
H            6.77176043524298        4.05798984543525       -0.28518538399646
H            4.73698104211502        5.37935273908940       -0.23757704105028
H            2.53980673527080        4.26373596143461        0.03044353747566
H            2.42720805102015        1.84026884243116        0.22679619653106
H            2.39664092997351       -0.07268064750076       -0.29169414365402
H            2.77391170000838       -4.68820739903677       -0.26957156911950

          :  Hamiltonian                  GFN2-xTB          :
         :: gradient norm              0.000043570424 Eh/a0 ::
         :: HOMO-LUMO gap              0.537381599354 eV    ::
         :: SCC energy              -108.680278508669 Eh    ::
         :: -> dispersion             -0.094956798498 Eh    ::
         :: -> Gsolv                  -0.044049261691 Eh    ::
         :: repulsion energy           2.058492573758 Eh    ::

    * Orbital Energies and Occupations

         #    Occupation            Energy/Eh            Energy/eV
      -------------------------------------------------------------
         1        2.0000           -0.6811044             -18.5338
       ...           ...                  ...                  ...
        89        2.0000           -0.4141584             -11.2698
        90        2.0000           -0.4128595             -11.2345
        91        2.0000           -0.4092565             -11.1364
        92        2.0000           -0.4051379             -11.0244
        93        2.0000           -0.4001823             -10.8895
        94        2.0000           -0.3966877             -10.7944
        95        2.0000           -0.3925351             -10.6814
        96        2.0000           -0.3882100             -10.5637
        97        2.0000           -0.3829644             -10.4210
        98        2.0000           -0.3790508             -10.3145
        99        1.9152           -0.3655663              -9.9476
       100        1.0848           -0.3610461              -9.8246
       101        1.0000           -0.2722625              -7.4086 (HOMO)
       102        0.0000           -0.2525137              -6.8712 (LUMO)
       103        0.0000           -0.2492393              -6.7821
       104                         -0.2461173              -6.6972
       105                         -0.2372750              -6.4566
       106                         -0.2317965              -6.3075
       107                         -0.2265112              -6.1637
       108                         -0.2214590              -6.0262
       109                         -0.2086117              -5.6766
       110                         -0.1918902              -5.2216
       111                         -0.1902459              -5.1769
       112                         -0.1891152              -5.1461
       ...                                ...                  ...
       199                          0.7401617              20.1408
      -------------------------------------------------------------
                  HL-Gap            0.0197488 Eh            0.5374 eV

     #   Z          covCN         q      C6AA      α(0)
     1   6 C        2.910    -0.032    28.785     8.798
     2   6 C        2.922    -0.041    29.025     8.835
     3   6 C        2.970     0.008    27.844     8.655
     4   6 C        2.976     0.010    27.793     8.648
     5   6 C        2.924    -0.032    28.810     8.802
     6   6 C        2.919    -0.042    29.045     8.838
     7   6 C        2.913     0.060    26.652     8.466
     8   7 N        2.802    -0.034    21.901     6.951
     9   6 C        3.075     0.048    26.857     8.497
    10   6 C        2.909    -0.048    29.202     8.861
    11   6 C        2.923    -0.034    28.835     8.806
    12   6 C        2.920    -0.039    28.975     8.827
    13   6 C        2.912    -0.033    28.816     8.802
    14   6 C        3.066    -0.016    28.344     8.730
    15   6 C        3.066    -0.016    28.344     8.730
    16   6 C        2.912    -0.033    28.816     8.802
    17   6 C        2.920    -0.039    28.975     8.827
    18   6 C        2.923    -0.034    28.836     8.806
    19   6 C        2.909    -0.049    29.204     8.861
    20   6 C        3.075     0.048    26.856     8.497
    21   6 C        2.920    -0.042    29.043     8.837
    22   6 C        2.924    -0.033    28.822     8.804
    23   6 C        2.927    -0.042    29.054     8.840
    24   6 C        2.966     0.007    27.871     8.659
    25   6 C        2.967     0.001    28.000     8.680
    26   6 C        2.911    -0.038    28.940     8.821
    27   6 C        2.909    -0.039    28.971     8.826
    28   6 C        2.975    -0.001    28.050     8.687
    29   6 C        2.973     0.003    27.956     8.673
    30   6 C        2.917    -0.039    28.969     8.826
    31   6 C        2.911    -0.033    28.814     8.802
    32   6 C        2.915    -0.037    28.915     8.818
    33   6 C        2.916    -0.036    28.901     8.816
    34   6 C        2.974     0.000    28.015     8.682
    35   6 C        2.977     0.004    27.924     8.668
    36   6 C        2.923    -0.039    28.962     8.825
    37   6 C        2.916    -0.033    28.830     8.805
    38   6 C        2.916    -0.034    28.849     8.808
    39   6 C        2.923    -0.038    28.948     8.823
    40   6 C        2.979     0.003    27.949     8.672
    41   6 C        2.969     0.002    27.984     8.677
    42   6 C        2.919    -0.045    29.109     8.847
    43   6 C        2.920    -0.039    28.972     8.827
    44   1 H        0.925     0.028     2.615     2.529
    45   1 H        0.926     0.030     2.583     2.513
    46   1 H        0.926     0.043     2.415     2.430
    47   1 H        0.926     0.043     2.405     2.425
    48   1 H        0.926     0.034     2.526     2.485
    49   1 H        0.926     0.034     2.534     2.489
    50   1 H        0.926     0.032     2.557     2.501
    51   1 H        0.926     0.034     2.524     2.484
    52   1 H        0.926     0.034     2.524     2.485
    53   1 H        0.926     0.032     2.556     2.500
    54   1 H        0.926     0.034     2.532     2.488
    55   1 H        0.926     0.034     2.523     2.484
    56   1 H        0.926     0.043     2.407     2.426
    57   1 H        0.926     0.042     2.420     2.433
    58   1 H        0.926     0.033     2.543     2.494
    59   1 H        0.926     0.030     2.583     2.513
    60   1 H        0.926     0.031     2.577     2.510
    61   1 H        0.926     0.032     2.564     2.504
    62   1 H        0.926     0.027     2.631     2.536
    63   1 H        0.926     0.027     2.630     2.536
    64   1 H        0.926     0.031     2.578     2.511
    65   1 H        0.926     0.032     2.558     2.501
    66   1 H        0.926     0.029     2.602     2.522
    67   1 H        0.926     0.029     2.595     2.519
    68   1 H        0.926     0.032     2.562     2.503
    69   1 H        0.926     0.035     2.513     2.479
    70   1 H        0.926     0.031     2.572     2.508

molecular dipole:
                 x           y           z       tot (Debye)
 q only:       -1.241      -0.101      -0.008
   full:       -1.167      -0.130      -0.016       2.986

 projected vibrational frequencies (cm⁻¹)
eigval :       -0.00    -0.00    -0.00     0.00     0.00     0.00
eigval :        9.93    10.78    14.87    28.96    34.97    44.06
eigval :       55.50    59.15    74.07    81.82    86.61   101.43
eigval :      111.44   113.77   135.50   145.67   178.37   180.68
eigval :      207.49   217.47   241.78   243.61   249.36   271.67
eigval :      274.37   284.60   297.84   350.29   366.84   371.26
eigval :      379.78   383.04   388.86   392.35   395.57   400.93
eigval :      408.56   413.33   424.87   438.05   452.39   459.52
eigval :      470.89   497.17   507.61   516.68   533.48   538.67
eigval :      540.16   554.12   566.88   576.37   579.22   585.55
eigval :      593.26   595.27   599.21   617.82   634.19   645.71
eigval :      658.28   666.24   674.23   683.82   691.59   702.51
eigval :      710.06   723.57   733.47   749.76   753.94   757.59
eigval :      760.79   766.48   769.35   779.42   781.81   815.11
eigval :      816.98   826.49   836.81   840.90   845.49   852.35
eigval :      864.38   871.73   876.50   876.88   891.59   896.21
eigval :      897.04   902.50   903.59   906.88   911.98   915.49
eigval :      919.02   921.32   925.02   927.03   933.14   942.53
eigval :      954.56   985.77   989.44  1010.58  1011.80  1038.62
eigval :     1068.15  1070.41  1077.51  1083.59  1109.86  1115.37
eigval :     1121.04  1126.67  1135.81  1141.55  1147.58  1160.01
eigval :     1172.18  1173.56  1178.72  1180.83  1182.08  1188.93
eigval :     1200.95  1202.41  1232.74  1236.38  1239.38  1241.73
eigval :     1247.24  1250.77  1263.89  1269.09  1271.46  1285.52
eigval :     1293.82  1295.25  1310.05  1315.28  1331.19  1337.94
eigval :     1342.67  1351.67  1353.85  1356.39  1361.25  1361.59
eigval :     1372.99  1376.91  1400.22  1408.67  1411.31  1419.62
eigval :     1426.63  1432.61  1446.10  1461.08  1466.83  1479.72
eigval :     1483.70  1487.86  1492.68  1501.12  1533.81  1548.75
eigval :     1551.91  1559.83  1568.69  1570.12  1578.46  1582.89
eigval :     1587.66  1594.85  1608.63  3063.12  3067.20  3069.00
eigval :     3073.76  3074.21  3078.25  3078.34  3079.27  3079.49
eigval :     3080.05  3080.23  3080.95  3087.24  3088.49  3089.67
eigval :     3091.25  3092.59  3092.85  3093.65  3094.05  3094.81
eigval :     3096.44  3097.71  3101.13  3105.04  3108.22  3116.56

   temp. (K)  partition function   enthalpy   heat capacity  entropy
                                   cal/mol     cal/K/mol   cal/K/mol   J/K/mol
 298.15  VIB  0.383E+15            19119.158    125.357    117.690
         ROT  0.815E+08              888.752      2.981     39.181
         INT  0.312E+23            20007.910    128.338    156.871
         TR   0.123E+29             1481.254      4.968     44.756
         TOT                       21489.1639   133.3065   201.6268   843.6067

       T/K    H(0)-H(T)+PV         H(T)/Eh          T*S/Eh         G(T)/Eh
   ------------------------------------------------------------------------
    298.15    0.342452E-01    0.570749E+00    0.957994E-01    0.474949E+00
   ------------------------------------------------------------------------

         :::::::::::::::::::::::::::::::::::::::::::::::::::::
         ::                  THERMODYNAMIC                  ::
         :::::::::::::::::::::::::::::::::::::::::::::::::::::
         :: total free energy        -106.146836516136 Eh   ::
         ::.................................................::
         :: total energy             -106.621785933633 Eh   ::
         :: zero point energy           0.536503676859 Eh   ::
         :: G(RRHO) w/o ZPVE           -0.061554259361 Eh   ::
         :: G(RRHO) contrib.            0.474949417498 Eh   ::
         :::::::::::::::::::::::::::::::::::::::::::::::::::::

           -------------------------------------------------
          | TOTAL ENERGY             -106.621785933633 Eh   |
          | TOTAL ENTHALPY           -106.051037094229 Eh   |
          | TOTAL FREE ENERGY        -106.146836516136 Eh   |
          | GRADIENT NORM               0.000044016267 Eh/α |
          | HOMO-LUMO GAP               0.537391054991 eV   |
           -------------------------------------------------

 * finished run on 2025/09/04 at 21:57:58.262
