   * xtb version 6.7.1 (edcfbbe) compiled by 'albert@albert-system' on 2024-07-22

   ID    Z sym.   atoms
    1    6 C      1-7, 9-43
    2    7 N      8
    3    1 H      44-70

          program call               : xtb data2507/toluene/D5/D5_toluene_S0_finalOpt.xtbopt.xyz --gfn 2 --uhf 2 --gbsa toluene --ohess vtight --parallel 40 --molden --ceasefiles --namespace data2507/toluene/D5/D5_toluene_T1_preOpt
      * Solvation model:               GBSA
        Solvent                        toluene
        Solvent mass                       9.2140E+01 g/mol
          :  Hamiltonian                  GFN2-xTB          :
 * total energy  :  -106.6117726 Eh     change       -0.1267111E-08 Eh
 * total energy  :  -106.6158356 Eh     change       -0.4063019E-02 Eh
 * total energy  :  -106.6186108 Eh     change       -0.2775242E-02 Eh
 * total energy  :  -106.6192017 Eh     change       -0.5908755E-03 Eh
 * total energy  :  -106.6197801 Eh     change       -0.5783601E-03 Eh
 * total energy  :  -106.6199739 Eh     change       -0.1938134E-03 Eh
 * total energy  :  -106.6202861 Eh     change       -0.3122415E-03 Eh
 * total energy  :  -106.6204647 Eh     change       -0.1785408E-03 Eh
 * total energy  :  -106.6205966 Eh     change       -0.1319669E-03 Eh
 * total energy  :  -106.6207046 Eh     change       -0.1079903E-03 Eh
 * total energy  :  -106.6217205 Eh     change       -0.7636832E-06 Eh
 * total energy  :  -106.6217210 Eh     change       -0.5706832E-06 Eh
 * total energy  :  -106.6217216 Eh     change       -0.5639495E-06 Eh
 * total energy  :  -106.6217222 Eh     change       -0.5889661E-06 Eh
 * total energy  :  -106.6217228 Eh     change       -0.5999684E-06 Eh
 * total energy  :  -106.6217232 Eh     change       -0.4534693E-06 Eh
 * total energy  :  -106.6217235 Eh     change       -0.2746982E-06 Eh
 * total energy  :  -106.6217236 Eh     change       -0.1102554E-06 Eh
 * total energy  :  -106.6217236 Eh     change       -0.1258300E-08 Eh
   *** GEOMETRY OPTIMIZATION CONVERGED AFTER 68 ITERATIONS ***

 final structure:
================
70
 xtb: 6.7.1 (edcfbbe)
C            0.54318314028743       -4.81106717736405       -0.66187939046757
C           -0.63111598057345       -4.07236418142987       -0.56786431035375
C           -0.56157221619233       -2.68642595808682       -0.34953685853748
C           -1.79369449699680       -1.89609144910254       -0.21855156544085
C           -2.87837728513764       -2.11936867113823       -1.06666672456967
C           -4.03375093326409       -1.37334959783438       -0.95327507581017
C           -4.13907115500866       -0.39235612398621        0.03019505401750
N           -5.31532416858934        0.36089849040392        0.15508862992698
C           -5.38962997115737        1.73800989610197        0.21389237597213
C           -4.37588710127112        2.68293501874265        0.12644035422800
C           -4.73072909833217        4.01763085185914        0.18529933880639
C           -6.06055579539087        4.41145753336443        0.31833949259693
C           -7.07625504152416        3.47606174812277        0.38334273732216
C           -6.74461572926678        2.12945084280658        0.32674466285977
C           -7.51869693303031        0.91789135347530        0.34254915221228
C           -8.87718885276871        0.65284349097692        0.44765288721088
C           -9.29652399881982       -0.66434895750523        0.45030412367242
C           -8.37869327376964       -1.70913184878555        0.36483302794784
C           -7.02123912917960       -1.47019478071693        0.25988722515616
C           -6.59574153773781       -0.14872826230439        0.23105749237091
C           -3.06532759521132       -0.16728123035226        0.88872576297406
C           -1.90742846709217       -0.90634907478393        0.75795153356997
C            0.67216628745122       -2.07723673953164       -0.25071122004484
C            1.88413589831570       -2.80279794228329       -0.34937029401213
C            3.14767901035867       -2.15602196784819       -0.24310383127168
C            4.34525246393120       -2.86598763607291        0.08944110394637
C            5.51441954635178       -2.22137350430312        0.29711651184109
C            5.64100706075723       -0.79262705651448        0.16850621739704
C            6.76621202596551       -0.08003191063680        0.59384024740873
C            7.86414262070417       -0.70937094023144        1.25862286061210
C            8.89906644663773        0.00991473065477        1.77702925208179
C            8.90708482854859        1.40837240094376        1.67273120920839
C            7.88339637617764        2.04906933497489        0.99973126591641
C            6.82549846303080        1.35257440134328        0.42503703542534
C            5.80188586618331        2.01355226809191       -0.35956880627147
C            5.94045386586558        3.34336666589825       -0.77720203785823
C            4.97743245321543        3.96760203410487       -1.54810971279681
C            3.85413689395101        3.26536931833082       -1.94364412380187
C            3.70469756398911        1.94267169807577       -1.55967139986396
C            4.64930439656428        1.30093267654413       -0.75914177070640
C            4.49243495061450       -0.09576979432527       -0.36941399189539
C            3.30145691825765       -0.75888661965033       -0.49333003274734
C            1.77074649899574       -4.20646005078059       -0.55257914010073
H            0.48639408530470       -5.87786521350666       -0.82865359008974
H           -1.59024387875908       -4.56257818775167       -0.63195301853193
H           -2.80162987121428       -2.86570393121754       -1.84348758047092
H           -4.85476269795427       -1.53269791913170       -1.63650088740094
H           -3.34451207608987        2.38843441422139        0.00576360177918
H           -3.95997063376322        4.77184706131160        0.12248898303213
H           -6.29776316727787        5.46427414725569        0.36232951489007
H           -8.10758630810158        3.78316078201657        0.47098123677298
H           -9.58846942814339        1.46091201017820        0.53009145611710
H          -10.34952561275730       -0.89160365665412        0.52857215615176
H           -8.73511335490586       -2.72861279475904        0.38548279333484
H           -6.31642655075202       -2.28630538415703        0.21222197821856
H           -3.15341522671661        0.57401223015461        1.66912151227283
H           -1.08827210015852       -0.73670137027613        1.44124287975888
H            0.70820364055333       -1.01419512731052       -0.06944864939872
H            4.30523835671269       -3.93555948319990        0.22651459199566
H            6.38301674858820       -2.79918716930862        0.56983929006920
H            7.86588808706494       -1.78093894271809        1.37474301058220
H            9.71117178131891       -0.49248521053936        2.28326965583135
H            9.71050721180452        1.98031573025960        2.11174862504627
H            7.91576387429433        3.12578581053775        0.93711704698413
H            6.82358255329089        3.90286033813747       -0.51323863847314
H            5.11411816033020        4.99596208145325       -1.85013309189340
H            3.10157729589132        3.73588303101069       -2.55949408049430
H            2.84028212256948        1.40254642613681       -1.91317647648429
H            2.43578191276424       -0.22146259791630       -0.84342050119982
H            2.66164005404739       -4.80362725262671       -0.66490773216173

          :  Hamiltonian                  GFN2-xTB          :
         :: gradient norm              0.000033345127 Eh/a0 ::
         :: HOMO-LUMO gap              0.539804473140 eV    ::
         :: SCC energy              -108.680229925545 Eh    ::
         :: -> dispersion             -0.094702532606 Eh    ::
         :: -> Gsolv                  -0.044083650399 Eh    ::
         :: repulsion energy           2.058506299447 Eh    ::

    * Orbital Energies and Occupations

         #    Occupation            Energy/Eh            Energy/eV
      -------------------------------------------------------------
         1        2.0000           -0.6809850             -18.5305
       ...           ...                  ...                  ...
        89        2.0000           -0.4139913             -11.2653
        90        2.0000           -0.4128896             -11.2353
        91        2.0000           -0.4091479             -11.1335
        92        2.0000           -0.4051191             -11.0239
        93        2.0000           -0.4009978             -10.9117
        94        2.0000           -0.3959945             -10.7756
        95        2.0000           -0.3924308             -10.6786
        96        2.0000           -0.3883702             -10.5681
        97        2.0000           -0.3828417             -10.4177
        98        2.0000           -0.3790052             -10.3133
        99        1.9122           -0.3654621              -9.9447
       100        1.0878           -0.3610142              -9.8237
       101        1.0000           -0.2720319              -7.4024 (HOMO)
       102        0.0000           -0.2521951              -6.8626 (LUMO)
       103        0.0000           -0.2489381              -6.7740
       104                         -0.2458004              -6.6886
       105                         -0.2368206              -6.4442
       106                         -0.2317096              -6.3051
       107                         -0.2264073              -6.1609
       108                         -0.2215241              -6.0280
       109                         -0.2088181              -5.6822
       110                         -0.1918784              -5.2213
       111                         -0.1901322              -5.1738
       112                         -0.1891724              -5.1476
       ...                                ...                  ...
       199                          0.7402326              20.1428
      -------------------------------------------------------------
                  HL-Gap            0.0198368 Eh            0.5398 eV

     #   Z          covCN         q      C6AA      α(0)
     1   6 C        2.910    -0.032    28.786     8.798
     2   6 C        2.922    -0.041    29.024     8.835
     3   6 C        2.970     0.008    27.841     8.655
     4   6 C        2.977     0.010    27.792     8.648
     5   6 C        2.924    -0.032    28.810     8.802
     6   6 C        2.920    -0.042    29.047     8.838
     7   6 C        2.913     0.060    26.651     8.465
     8   7 N        2.802    -0.034    21.902     6.951
     9   6 C        3.074     0.048    26.857     8.497
    10   6 C        2.909    -0.048    29.203     8.861
    11   6 C        2.923    -0.034    28.835     8.806
    12   6 C        2.920    -0.039    28.975     8.827
    13   6 C        2.912    -0.033    28.817     8.803
    14   6 C        3.066    -0.016    28.344     8.730
    15   6 C        3.066    -0.016    28.344     8.730
    16   6 C        2.912    -0.033    28.817     8.803
    17   6 C        2.920    -0.039    28.975     8.827
    18   6 C        2.923    -0.034    28.836     8.806
    19   6 C        2.909    -0.048    29.204     8.861
    20   6 C        3.075     0.048    26.857     8.497
    21   6 C        2.920    -0.042    29.040     8.837
    22   6 C        2.924    -0.033    28.818     8.803
    23   6 C        2.927    -0.043    29.060     8.841
    24   6 C        2.967     0.007    27.865     8.659
    25   6 C        2.967     0.001    27.999     8.679
    26   6 C        2.911    -0.038    28.939     8.821
    27   6 C        2.909    -0.039    28.972     8.826
    28   6 C        2.975    -0.001    28.053     8.688
    29   6 C        2.973     0.003    27.958     8.673
    30   6 C        2.917    -0.039    28.968     8.826
    31   6 C        2.911    -0.033    28.814     8.802
    32   6 C        2.915    -0.037    28.917     8.818
    33   6 C        2.916    -0.036    28.901     8.816
    34   6 C        2.975     0.000    28.015     8.682
    35   6 C        2.978     0.004    27.926     8.668
    36   6 C        2.923    -0.039    28.963     8.825
    37   6 C        2.916    -0.033    28.831     8.805
    38   6 C        2.916    -0.034    28.847     8.807
    39   6 C        2.923    -0.038    28.950     8.824
    40   6 C        2.979     0.003    27.949     8.672
    41   6 C        2.970     0.002    27.989     8.678
    42   6 C        2.919    -0.045    29.106     8.847
    43   6 C        2.920    -0.039    28.967     8.826
    44   1 H        0.925     0.028     2.613     2.528
    45   1 H        0.926     0.030     2.584     2.514
    46   1 H        0.926     0.043     2.415     2.430
    47   1 H        0.926     0.043     2.404     2.424
    48   1 H        0.926     0.034     2.524     2.485
    49   1 H        0.926     0.034     2.534     2.489
    50   1 H        0.926     0.032     2.557     2.501
    51   1 H        0.926     0.034     2.524     2.484
    52   1 H        0.926     0.034     2.524     2.485
    53   1 H        0.926     0.032     2.556     2.500
    54   1 H        0.926     0.034     2.532     2.488
    55   1 H        0.926     0.034     2.523     2.484
    56   1 H        0.926     0.043     2.406     2.426
    57   1 H        0.926     0.042     2.419     2.432
    58   1 H        0.926     0.034     2.531     2.488
    59   1 H        0.926     0.030     2.582     2.513
    60   1 H        0.926     0.030     2.581     2.512
    61   1 H        0.926     0.031     2.567     2.505
    62   1 H        0.926     0.027     2.631     2.537
    63   1 H        0.926     0.027     2.631     2.536
    64   1 H        0.926     0.031     2.579     2.511
    65   1 H        0.926     0.032     2.558     2.501
    66   1 H        0.926     0.029     2.601     2.522
    67   1 H        0.926     0.029     2.597     2.520
    68   1 H        0.926     0.032     2.556     2.500
    69   1 H        0.926     0.034     2.525     2.485
    70   1 H        0.926     0.031     2.577     2.510

molecular dipole:
                 x           y           z       tot (Debye)
 q only:       -1.240      -0.088      -0.027
   full:       -1.169      -0.116      -0.021       2.986

 projected vibrational frequencies (cm⁻¹)
eigval :       -0.00    -0.00    -0.00     0.00     0.00     0.00
eigval :        9.69    13.42    16.31    32.81    36.52    48.95
eigval :       57.27    64.14    74.23    85.13    88.20   102.59
eigval :      109.85   123.10   135.52   145.70   165.06   183.96
eigval :      205.98   230.85   236.80   243.36   251.63   272.69
eigval :      274.99   289.36   296.75   346.56   358.45   375.15
eigval :      379.74   383.75   389.94   393.01   397.37   403.33
eigval :      409.03   415.11   426.15   438.32   452.36   460.82
eigval :      471.41   498.54   507.92   516.87   536.69   540.00
eigval :      544.47   551.57   567.40   576.07   579.49   584.01
eigval :      593.83   596.12   598.98   618.86   638.79   648.40
eigval :      657.56   666.23   677.08   684.27   692.44   702.38
eigval :      712.57   721.31   736.38   752.32   754.03   758.18
eigval :      760.49   766.87   768.78   779.11   780.36   812.91
eigval :      818.71   830.02   838.90   843.33   846.97   857.07
eigval :      865.06   871.85   876.95   884.86   891.04   894.61
eigval :      897.26   902.71   903.29   910.73   912.50   917.80
eigval :      919.77   920.05   924.66   926.84   930.76   942.32
eigval :      954.79   985.31   989.75  1010.75  1011.86  1039.82
eigval :     1068.45  1072.94  1076.97  1083.94  1109.04  1115.64
eigval :     1120.15  1126.96  1135.79  1141.85  1147.70  1160.93
eigval :     1172.44  1174.79  1178.49  1181.69  1183.12  1189.82
eigval :     1201.24  1202.46  1233.26  1236.52  1240.62  1241.14
eigval :     1246.58  1251.34  1264.34  1269.56  1270.92  1285.80
eigval :     1293.96  1295.89  1310.77  1314.95  1329.48  1337.24
eigval :     1342.53  1351.47  1353.86  1356.83  1360.19  1361.72
eigval :     1372.13  1376.83  1399.98  1408.43  1412.60  1420.07
eigval :     1427.45  1432.27  1446.95  1461.87  1466.82  1480.63
eigval :     1483.71  1487.64  1494.30  1501.84  1534.42  1548.14
eigval :     1552.62  1559.61  1568.56  1569.81  1578.95  1582.79
eigval :     1587.79  1595.31  1609.07  3063.96  3066.81  3069.02
eigval :     3074.00  3074.67  3078.22  3078.75  3080.44  3080.67
eigval :     3080.69  3082.15  3082.94  3088.19  3088.87  3090.25
eigval :     3091.47  3092.02  3092.68  3093.86  3094.12  3094.37
eigval :     3095.15  3096.32  3100.57  3103.27  3107.49  3110.08

   temp. (K)  partition function   enthalpy   heat capacity  entropy
                                   cal/mol     cal/K/mol   cal/K/mol   J/K/mol
 298.15  VIB  0.184E+15            19058.811    125.546    116.991
         ROT  0.829E+08              888.752      2.981     39.214
         INT  0.153E+23            19947.564    128.527    156.205
         TR   0.123E+29             1481.254      4.968     44.756
         TOT                       21428.8176   133.4947   200.9610   840.8207

       T/K    H(0)-H(T)+PV         H(T)/Eh          T*S/Eh         G(T)/Eh
   ------------------------------------------------------------------------
    298.15    0.341490E-01    0.570890E+00    0.954830E-01    0.475407E+00
   ------------------------------------------------------------------------

         :::::::::::::::::::::::::::::::::::::::::::::::::::::
         ::                  THERMODYNAMIC                  ::
         :::::::::::::::::::::::::::::::::::::::::::::::::::::
         :: total free energy        -106.146316815705 Eh   ::
         ::.................................................::
         :: total energy             -106.621723619984 Eh   ::
         :: zero point energy           0.536740847605 Eh   ::
         :: G(RRHO) w/o ZPVE           -0.061334043326 Eh   ::
         :: G(RRHO) contrib.            0.475406804278 Eh   ::
         :::::::::::::::::::::::::::::::::::::::::::::::::::::

           -------------------------------------------------
          | TOTAL ENERGY             -106.621723619984 Eh   |
          | TOTAL ENTHALPY           -106.050833777811 Eh   |
          | TOTAL FREE ENERGY        -106.146316815705 Eh   |
          | GRADIENT NORM               0.000033377104 Eh/α |
          | HOMO-LUMO GAP               0.539786271691 eV   |
           -------------------------------------------------

 * finished run on 2025/09/04 at 21:54:12.373
