   * xtb version 6.7.1 (edcfbbe) compiled by 'albert@albert-system' on 2024-07-22

   ID    Z sym.   atoms
    1    7 N      1, 5
    2    6 C      2-4, 6-8, 10-29
    3    9 F      9, 30
    4    1 H      31-42

          program call               : xtb data2507/toluene/C-H/C-H_toluene_S0_finalOpt.xtbopt.xyz --gfn 2 --uhf 2 --gbsa toluene --ohess vtight --parallel 40 --molden --ceasefiles --namespace data2507/toluene/C-H/C-H_toluene_T1_preOpt
      * Solvation model:               GBSA
        Solvent                        toluene
        Solvent mass                       9.2140E+01 g/mol
          :  Hamiltonian                  GFN2-xTB          :
 * total energy  :   -77.0009834 Eh     change       -0.3609557E-10 Eh
 * total energy  :   -77.0060425 Eh     change       -0.5059070E-02 Eh
 * total energy  :   -77.0078045 Eh     change       -0.1762013E-02 Eh
 * total energy  :   -77.0082508 Eh     change       -0.4462611E-03 Eh
 * total energy  :   -77.0087220 Eh     change       -0.4712852E-03 Eh
 * total energy  :   -77.0089940 Eh     change       -0.2719451E-03 Eh
 * total energy  :   -77.0091594 Eh     change       -0.1653968E-03 Eh
 * total energy  :   -77.0092584 Eh     change       -0.9904180E-04 Eh
 * total energy  :   -77.0093477 Eh     change       -0.8923245E-04 Eh
 * total energy  :   -77.0094233 Eh     change       -0.7566035E-04 Eh
 * total energy  :   -77.0098058 Eh     change       -0.3317256E-06 Eh
 * total energy  :   -77.0098060 Eh     change       -0.2828556E-06 Eh
 * total energy  :   -77.0098063 Eh     change       -0.2809874E-06 Eh
 * total energy  :   -77.0098066 Eh     change       -0.2711471E-06 Eh
 * total energy  :   -77.0098068 Eh     change       -0.2316028E-06 Eh
 * total energy  :   -77.0098070 Eh     change       -0.1625625E-06 Eh
 * total energy  :   -77.0098071 Eh     change       -0.1129237E-06 Eh
 * total energy  :   -77.0098072 Eh     change       -0.1226613E-06 Eh
 * total energy  :   -77.0098072 Eh     change       -0.1095202E-08 Eh
   *** GEOMETRY OPTIMIZATION CONVERGED AFTER 44 ITERATIONS ***

 final structure:
================
42
 xtb: 6.7.1 (edcfbbe)
N            8.13578359214129        0.64021769155746        0.16454616644833
C            6.98519377905337        0.69121775901852        0.12664983834478
C            5.58527525553830        0.75347244477753        0.09593464954212
C            5.09222960277287        2.06047464100538        0.02487931606135
N            4.75631655625212        3.15561155920321       -0.10437438889944
C            4.85239778250709       -0.42626547765254        0.00604223962892
C            3.45757330884066       -0.60381928329606        0.04933306979571
C            2.87432108296490       -1.79759522654486       -0.46408951249463
F            3.71482102494585       -2.72591838020260       -0.98626570336234
C            1.53760088855682       -2.05054127157949       -0.50268111996598
C            0.61221754387037       -1.09225772842858       -0.02356366646772
C           -0.79823547439471       -1.32591915302552       -0.07178236453289
C           -1.29812194563563       -2.63607613764498        0.10392569391952
C           -2.62502956269797       -2.87653254675578        0.30729633737410
C           -3.57479535431261       -1.81809424979186        0.30889512837595
C           -4.93663827140780       -2.04240697517556        0.56162901954959
C           -5.84375572797167       -1.00866531899668        0.53134120049390
C           -5.43456924090914        0.30172316355997        0.20727961660399
C           -6.34780009714903        1.37512276391332        0.14146190519274
C           -5.92400120520736        2.64882753916485       -0.19653855448906
C           -4.59682610116545        2.89260251565532       -0.48966665375767
C           -3.64304397778445        1.85093299786424       -0.43337017033941
C           -2.28968405217101        2.05283712696871       -0.76085199044669
C           -1.37534512265041        1.02578192575458       -0.67318142577402
C           -1.74765514730313       -0.25212301368910       -0.22178918560540
C           -3.12335637157720       -0.50600246791098        0.01449148499972
C           -4.06456828322065        0.54714735944908       -0.06891158355605
C            1.15304894891651        0.07104051966634        0.57315987633580
C            2.49995689060772        0.28012779405349        0.61640918392036
F            2.94117403067222        1.34725024843042        1.32396973197750
H            5.43857233374271       -1.32168827033186       -0.16555765386440
H            1.20040828666962       -2.96339501377667       -0.96631352163530
H           -0.59686781536541       -3.45308001862462        0.16938127523104
H           -2.97184791068428       -3.88051072824385        0.50180742216919
H           -5.26677422252571       -3.04708561198016        0.78135133913177
H           -6.88613566015943       -1.19213319720253        0.74509372708929
H           -7.38947445184371        1.18736884151188        0.35473670361483
H           -6.63945323304513        3.45645987087053       -0.24043772067307
H           -4.26984067328181        3.88313589605154       -0.76816611832554
H           -1.96921388496329        3.02955733831670       -1.09171027234936
H           -0.35694830588846        1.20105010101376       -0.98377640003775
H            0.51148836139157        0.77319278360859        1.08210225410660

          :  Hamiltonian                  GFN2-xTB          :
         :: gradient norm              0.000048470562 Eh/a0 ::
         :: HOMO-LUMO gap              0.634939008123 eV    ::
         :: SCC energy               -78.367171096059 Eh    ::
         :: -> dispersion             -0.056010274707 Eh    ::
         :: -> Gsolv                  -0.050422185402 Eh    ::
         :: repulsion energy           1.357363864893 Eh    ::

    * Orbital Energies and Occupations

         #    Occupation            Energy/Eh            Energy/eV
      -------------------------------------------------------------
         1        2.0000           -0.8343872             -22.7048
       ...           ...                  ...                  ...
        59        2.0000           -0.4559497             -12.4070
        60        2.0000           -0.4512395             -12.2789
        61        2.0000           -0.4394989             -11.9594
        62        2.0000           -0.4325135             -11.7693
        63        2.0000           -0.4314858             -11.7413
        64        2.0000           -0.4291344             -11.6773
        65        2.0000           -0.4286675             -11.6646
        66        2.0000           -0.4248550             -11.5609
        67        2.0000           -0.4225777             -11.4989
        68        2.0000           -0.4177254             -11.3669
        69        2.0000           -0.4047456             -11.0137
        70        1.0000           -0.3820407             -10.3959
        71        1.0000           -0.3240800              -8.8187 (HOMO)
        72        0.0000           -0.3007463              -8.1837 (LUMO)
        73                         -0.2633440              -7.1660
        74                         -0.2494440              -6.7877
        75                         -0.2472129              -6.7270
        76                         -0.2439262              -6.6376
        77                         -0.2295525              -6.2464
        78                         -0.2184483              -5.9443
        79                         -0.2079342              -5.6582
        80                         -0.1993282              -5.4240
        81                         -0.1889053              -5.1404
        82                         -0.1533261              -4.1722
       ...                                ...                  ...
       132                          1.1636501              31.6645
      -------------------------------------------------------------
                  HL-Gap            0.0233336 Eh            0.6349 eV

     #   Z          covCN         q      C6AA      α(0)
     1   7 N        0.911    -0.298    27.676     7.609
     2   6 C        1.941     0.117    28.200     8.576
     3   6 C        2.944    -0.005    28.155     8.703
     4   6 C        1.930     0.128    27.962     8.540
     5   7 N        0.911    -0.300    27.720     7.615
     6   6 C        2.914    -0.018    28.458     8.748
     7   6 C        2.958    -0.019    28.478     8.753
     8   6 C        2.790     0.156    24.620     8.128
     9   9 F        0.787    -0.240    11.653     4.032
    10   6 C        2.915    -0.058    29.431     8.896
    11   6 C        2.977     0.012    27.741     8.640
    12   6 C        2.971     0.029    27.343     8.577
    13   6 C        2.914    -0.030    28.738     8.791
    14   6 C        2.913    -0.019    28.486     8.752
    15   6 C        2.980     0.022    27.519     8.605
    16   6 C        2.914    -0.023    28.580     8.766
    17   6 C        2.915    -0.024    28.604     8.770
    18   6 C        2.979     0.024    27.471     8.597
    19   6 C        2.919    -0.019    28.473     8.750
    20   6 C        2.909    -0.022    28.547     8.761
    21   6 C        2.918    -0.019    28.486     8.752
    22   6 C        2.979     0.025    27.448     8.594
    23   6 C        2.915    -0.024    28.612     8.771
    24   6 C        2.914    -0.023    28.575     8.766
    25   6 C        2.977     0.017    27.635     8.623
    26   6 C        2.993     0.011    27.767     8.644
    27   6 C        2.997     0.009    27.799     8.649
    28   6 C        2.916    -0.056    29.403     8.892
    29   6 C        2.783     0.156    24.603     8.125
    30   9 F        0.787    -0.238    11.631     4.028
    31   1 H        0.925     0.050     2.320     2.382
    32   1 H        0.926     0.081     1.973     2.196
    33   1 H        0.926     0.059     2.215     2.327
    34   1 H        0.926     0.062     2.177     2.307
    35   1 H        0.926     0.058     2.219     2.329
    36   1 H        0.926     0.058     2.221     2.330
    37   1 H        0.926     0.059     2.213     2.326
    38   1 H        0.926     0.054     2.269     2.356
    39   1 H        0.926     0.057     2.234     2.338
    40   1 H        0.926     0.057     2.239     2.340
    41   1 H        0.926     0.056     2.247     2.344
    42   1 H        0.926     0.079     1.985     2.203

molecular dipole:
                 x           y           z       tot (Debye)
 q only:       -9.078      -1.575      -0.146
   full:       -9.152      -1.907      -0.122      23.764

 projected vibrational frequencies (cm⁻¹)
eigval :       -0.00    -0.00     0.00     0.00     0.00     0.00
eigval :       20.36    27.84    37.58    41.40    63.07    91.20
eigval :      101.33   117.38   121.42   148.82   178.87   182.04
eigval :      200.32   201.51   219.68   236.14   249.07   268.94
eigval :      274.28   291.13   328.31   370.88   378.52   393.29
eigval :      403.01   420.88   428.51   436.84   447.42   458.82
eigval :      484.75   491.53   499.71   501.95   513.78   521.35
eigval :      540.60   558.18   563.81   578.32   594.62   607.08
eigval :      632.86   643.46   655.08   672.58   690.88   725.49
eigval :      742.12   759.70   762.83   780.93   789.26   800.39
eigval :      801.22   820.96   833.83   852.72   864.53   872.47
eigval :      878.20   898.74   902.38   912.85   921.44   936.76
eigval :      978.46   992.38  1032.77  1096.61  1118.36  1130.04
eigval :     1146.69  1164.62  1169.48  1177.08  1192.04  1196.22
eigval :     1209.16  1214.92  1229.86  1235.06  1256.81  1283.53
eigval :     1317.63  1322.38  1329.29  1348.18  1350.57  1360.53
eigval :     1366.23  1378.75  1392.02  1415.63  1434.02  1437.92
eigval :     1443.81  1463.81  1475.35  1483.15  1494.12  1520.63
eigval :     1521.94  1538.99  1556.26  1582.57  2280.66  2320.81
eigval :     3052.74  3081.04  3082.76  3085.51  3086.01  3089.19
eigval :     3092.53  3097.44  3099.69  3103.24  3108.80  3115.09

   temp. (K)  partition function   enthalpy   heat capacity  entropy
                                   cal/mol     cal/K/mol   cal/K/mol   J/K/mol
 298.15  VIB  0.116E+10            13155.513     84.733     79.226
         ROT  0.209E+08              888.752      2.981     36.475
         INT  0.243E+17            14044.265     87.713    115.701
         TR   0.746E+28             1481.254      4.968     43.758
         TOT                       15525.5193    92.6816   159.4588   667.1754

       T/K    H(0)-H(T)+PV         H(T)/Eh          T*S/Eh         G(T)/Eh
   ------------------------------------------------------------------------
    298.15    0.247415E-01    0.313612E+00    0.757640E-01    0.237848E+00
   ------------------------------------------------------------------------

         :::::::::::::::::::::::::::::::::::::::::::::::::::::
         ::                  THERMODYNAMIC                  ::
         :::::::::::::::::::::::::::::::::::::::::::::::::::::
         :: total free energy         -76.771959125463 Eh   ::
         ::.................................................::
         :: total energy              -77.009807234949 Eh   ::
         :: zero point energy           0.288870617483 Eh   ::
         :: G(RRHO) w/o ZPVE           -0.051022507997 Eh   ::
         :: G(RRHO) contrib.            0.237848109486 Eh   ::
         :::::::::::::::::::::::::::::::::::::::::::::::::::::

           -------------------------------------------------
          | TOTAL ENERGY              -77.009807234949 Eh   |
          | TOTAL ENTHALPY            -76.696195127616 Eh   |
          | TOTAL FREE ENERGY         -76.771959125463 Eh   |
          | GRADIENT NORM               0.000048559832 Eh/α |
          | HOMO-LUMO GAP               0.634940538918 eV   |
           -------------------------------------------------

 * finished run on 2025/08/24 at 14:24:10.305
