   * xtb version 6.7.1 (edcfbbe) compiled by 'albert@albert-system' on 2024-07-22

   ID    Z sym.   atoms
    1    7 N      1, 5
    2    6 C      2-4, 6-8, 10-29
    3    9 F      9, 30
    4    1 H      31-42

          program call               : xtb data2507/toluene/C-H/C-H_toluene_T1_crest.xyz --gfn 2 --uhf 2 --gbsa toluene --ohess vtight --parallel 40 --molden --ceasefiles --namespace data2507/toluene/C-H/C-H_toluene_T1_finalOpt
      * Solvation model:               GBSA
        Solvent                        toluene
        Solvent mass                       9.2140E+01 g/mol
          :  Hamiltonian                  GFN2-xTB          :
 * total energy  :   -77.0095799 Eh     change       -0.1198825E-07 Eh
 * total energy  :   -77.0097046 Eh     change       -0.1246562E-03 Eh
 * total energy  :   -77.0097490 Eh     change       -0.4443499E-04 Eh
 * total energy  :   -77.0097552 Eh     change       -0.6181812E-05 Eh
 * total energy  :   -77.0097618 Eh     change       -0.6597424E-05 Eh
 * total energy  :   -77.0097667 Eh     change       -0.4942318E-05 Eh
 * total energy  :   -77.0097728 Eh     change       -0.6086006E-05 Eh
 * total energy  :   -77.0097789 Eh     change       -0.6107612E-05 Eh
 * total energy  :   -77.0097850 Eh     change       -0.6070238E-05 Eh
 * total energy  :   -77.0097931 Eh     change       -0.8115270E-05 Eh
 * total energy  :   -77.0098055 Eh     change       -0.5425197E-06 Eh
 * total energy  :   -77.0098062 Eh     change       -0.7027175E-06 Eh
 * total energy  :   -77.0098069 Eh     change       -0.7660935E-06 Eh
 * total energy  :   -77.0098075 Eh     change       -0.5775182E-06 Eh
 * total energy  :   -77.0098079 Eh     change       -0.4080049E-06 Eh
 * total energy  :   -77.0098081 Eh     change       -0.1277890E-06 Eh
 * total energy  :   -77.0098083 Eh     change       -0.2498439E-06 Eh
 * total energy  :   -77.0098084 Eh     change       -0.1146495E-06 Eh
 * total energy  :   -77.0098085 Eh     change       -0.9480834E-07 Eh
   *** GEOMETRY OPTIMIZATION CONVERGED AFTER 25 ITERATIONS ***

 final structure:
================
42
 xtb: 6.7.1 (edcfbbe)
N            8.13845099574139        0.62180446028713        0.13697419268382
C            6.98782303116350        0.67595747902894        0.10465023479309
C            5.58792282166067        0.74136929258153        0.08058735213578
C            5.09698792403889        2.04953667437914        0.01753698343058
N            4.76204202793740        3.14575875579110       -0.10445654851446
C            4.85252519871238       -0.43667964434152       -0.01193558480016
C            3.45761446273138       -0.61230009587939        0.03555322925583
C            2.87099860594578       -1.80314890356767       -0.48089469880365
F            3.70843752552380       -2.73066315173835       -1.00937642208605
C            1.53379354284774       -2.05392043982724       -0.51627674543396
C            0.61134936743989       -1.09600859801449       -0.03084864983170
C           -0.79957422243096       -1.32774349105908       -0.07687519507217
C           -1.30015355691845       -2.63782439330069        0.09711045652035
C           -2.62721320206151       -2.87796626526396        0.29987337063643
C           -3.57654279782665       -1.81918705523736        0.30181346470786
C           -4.93875419120909       -2.04350080052341        0.55259654682587
C           -5.84572116998409       -1.00966800730010        0.52166388006435
C           -5.43582432351405        0.30094334938406        0.19941336447467
C           -6.34897939176783        1.37433557661605        0.13247960445103
C           -5.92446627022356        2.64842639100240       -0.20313666707805
C           -4.59655970845160        2.89261622562788       -0.49255155356537
C           -3.64289018224656        1.85088214862277       -0.43535672963610
C           -2.28876216763270        2.05332401797679       -0.75932466358565
C           -1.37478829195629        1.02592877738444       -0.67210291320814
C           -1.74822492801908       -0.25300047076910       -0.22448934266061
C           -3.12431926537349       -0.50684359219723        0.00969167503317
C           -4.06523981637735        0.54658801365800       -0.07372002190929
C            1.15562642817830        0.06410657466370        0.56878071802706
C            2.50304285925193        0.27077741185557        0.60915399599246
F            2.94801030782670        1.33423437235523        1.31983344851860
H            5.43661046716533       -1.33221440545711       -0.19002322119331
H            1.19367263326953       -2.96443904488171       -0.98236754247995
H           -0.59920548723122       -3.45517102707448        0.16171166187097
H           -2.97449148640259       -3.88200500395562        0.49324097168628
H           -5.26931072839661       -3.04834719508171        0.77092655313825
H           -6.88848736588289       -1.19319755613706        0.73347946728230
H           -7.39118676450876        1.18623262856134        0.34282322885221
H           -6.63989721644991        3.45602045969238       -0.24807538494616
H           -4.26890657516817        3.88353488299971       -0.76887354027709
H           -1.96749429609261        3.03072840332536       -1.08739472466853
H           -0.35576445581949        1.20170442182159       -0.98031402109393
H            0.51660783471122        0.76534869399132        1.08217810566364

          :  Hamiltonian                  GFN2-xTB          :
         :: gradient norm              0.000143010372 Eh/a0 ::
         :: HOMO-LUMO gap              0.633840706059 eV    ::
         :: SCC energy               -78.367185871551 Eh    ::
         :: -> dispersion             -0.056007213155 Eh    ::
         :: -> Gsolv                  -0.050437696990 Eh    ::
         :: repulsion energy           1.357377361180 Eh    ::

    * Orbital Energies and Occupations

         #    Occupation            Energy/Eh            Energy/eV
      -------------------------------------------------------------
         1        2.0000           -0.8343796             -22.7046
       ...           ...                  ...                  ...
        59        2.0000           -0.4559669             -12.4075
        60        2.0000           -0.4512458             -12.2790
        61        2.0000           -0.4395188             -11.9599
        62        2.0000           -0.4325053             -11.7691
        63        2.0000           -0.4314866             -11.7413
        64        2.0000           -0.4291464             -11.6777
        65        2.0000           -0.4286631             -11.6645
        66        2.0000           -0.4248670             -11.5612
        67        2.0000           -0.4225577             -11.4984
        68        2.0000           -0.4177404             -11.3673
        69        2.0000           -0.4047218             -11.0130
        70        1.0000           -0.3820672             -10.3966
        71        1.0000           -0.3240554              -8.8180 (HOMO)
        72        0.0000           -0.3007623              -8.1842 (LUMO)
        73                         -0.2633492              -7.1661
        74                         -0.2494374              -6.7875
        75                         -0.2472231              -6.7273
        76                         -0.2438932              -6.6367
        77                         -0.2295019              -6.2451
        78                         -0.2184603              -5.9446
        79                         -0.2079126              -5.6576
        80                         -0.1993467              -5.4245
        81                         -0.1889246              -5.1409
        82                         -0.1533168              -4.1720
       ...                                ...                  ...
       132                          1.1638283              31.6694
      -------------------------------------------------------------
                  HL-Gap            0.0232931 Eh            0.6338 eV

     #   Z          covCN         q      C6AA      α(0)
     1   7 N        0.911    -0.298    27.677     7.609
     2   6 C        1.941     0.117    28.200     8.576
     3   6 C        2.944    -0.005    28.155     8.703
     4   6 C        1.930     0.128    27.963     8.540
     5   7 N        0.911    -0.300    27.721     7.615
     6   6 C        2.914    -0.018    28.458     8.748
     7   6 C        2.958    -0.019    28.478     8.753
     8   6 C        2.790     0.156    24.620     8.128
     9   9 F        0.787    -0.240    11.653     4.032
    10   6 C        2.915    -0.058    29.431     8.896
    11   6 C        2.977     0.012    27.741     8.640
    12   6 C        2.971     0.029    27.343     8.577
    13   6 C        2.914    -0.030    28.738     8.791
    14   6 C        2.913    -0.019    28.485     8.752
    15   6 C        2.980     0.022    27.519     8.605
    16   6 C        2.914    -0.023    28.580     8.766
    17   6 C        2.915    -0.024    28.604     8.770
    18   6 C        2.979     0.024    27.470     8.597
    19   6 C        2.919    -0.019    28.473     8.750
    20   6 C        2.909    -0.022    28.547     8.761
    21   6 C        2.918    -0.019    28.486     8.752
    22   6 C        2.979     0.025    27.448     8.594
    23   6 C        2.915    -0.024    28.612     8.771
    24   6 C        2.914    -0.023    28.575     8.766
    25   6 C        2.977     0.017    27.634     8.623
    26   6 C        2.993     0.011    27.767     8.644
    27   6 C        2.997     0.009    27.798     8.649
    28   6 C        2.916    -0.056    29.403     8.892
    29   6 C        2.783     0.156    24.603     8.125
    30   9 F        0.787    -0.238    11.630     4.028
    31   1 H        0.925     0.050     2.320     2.382
    32   1 H        0.926     0.081     1.973     2.196
    33   1 H        0.926     0.059     2.215     2.327
    34   1 H        0.926     0.062     2.177     2.307
    35   1 H        0.926     0.058     2.219     2.329
    36   1 H        0.926     0.058     2.220     2.330
    37   1 H        0.926     0.059     2.213     2.326
    38   1 H        0.926     0.054     2.269     2.356
    39   1 H        0.926     0.057     2.234     2.337
    40   1 H        0.926     0.057     2.239     2.340
    41   1 H        0.926     0.056     2.247     2.344
    42   1 H        0.926     0.079     1.985     2.203

molecular dipole:
                 x           y           z       tot (Debye)
 q only:       -9.086      -1.562      -0.138
   full:       -9.161      -1.893      -0.115      23.778

 projected vibrational frequencies (cm⁻¹)
eigval :       -0.00    -0.00    -0.00     0.00     0.00     0.00
eigval :       20.27    27.64    37.45    41.54    62.89    91.17
eigval :      101.50   117.47   121.44   148.74   178.77   182.27
eigval :      200.36   201.95   219.48   236.31   248.98   269.05
eigval :      274.26   291.18   328.17   370.68   378.66   393.27
eigval :      402.94   420.72   428.62   437.25   447.56   458.79
eigval :      484.71   491.71   499.79   502.03   513.77   520.91
eigval :      540.75   558.21   563.68   578.37   594.56   607.15
eigval :      633.24   643.35   654.96   672.57   691.45   725.52
eigval :      742.63   759.75   763.00   780.89   789.90   800.51
eigval :      801.45   824.62   834.12   855.00   864.61   872.27
eigval :      879.46   898.60   902.39   912.99   921.51   937.42
eigval :      978.45   992.41  1032.99  1096.68  1118.42  1130.07
eigval :     1146.80  1164.87  1169.55  1177.17  1192.18  1196.31
eigval :     1209.19  1214.96  1229.92  1234.98  1256.81  1283.54
eigval :     1317.64  1322.37  1329.28  1348.23  1350.69  1360.60
eigval :     1366.29  1378.72  1392.05  1415.66  1433.94  1437.84
eigval :     1443.81  1463.82  1475.21  1483.17  1494.17  1520.63
eigval :     1521.96  1539.01  1556.29  1582.48  2280.82  2320.89
eigval :     3052.74  3081.01  3082.77  3085.49  3085.99  3089.22
eigval :     3092.50  3097.47  3099.69  3103.17  3108.46  3115.34

   temp. (K)  partition function   enthalpy   heat capacity  entropy
                                   cal/mol     cal/K/mol   cal/K/mol   J/K/mol
 298.15  VIB  0.117E+10            13153.434     84.709     79.218
         ROT  0.209E+08              888.752      2.981     36.475
         INT  0.245E+17            14042.186     87.690    115.694
         TR   0.746E+28             1481.254      4.968     43.758
         TOT                       15523.4403    92.6583   159.4516   667.1456

       T/K    H(0)-H(T)+PV         H(T)/Eh          T*S/Eh         G(T)/Eh
   ------------------------------------------------------------------------
    298.15    0.247382E-01    0.313637E+00    0.757606E-01    0.237876E+00
   ------------------------------------------------------------------------

         :::::::::::::::::::::::::::::::::::::::::::::::::::::
         ::                  THERMODYNAMIC                  ::
         :::::::::::::::::::::::::::::::::::::::::::::::::::::
         :: total free energy         -76.771932102709 Eh   ::
         ::.................................................::
         :: total energy              -77.009808514337 Eh   ::
         :: zero point energy           0.288898845429 Eh   ::
         :: G(RRHO) w/o ZPVE           -0.051022433801 Eh   ::
         :: G(RRHO) contrib.            0.237876411628 Eh   ::
         :::::::::::::::::::::::::::::::::::::::::::::::::::::

           -------------------------------------------------
          | TOTAL ENERGY              -77.009808514337 Eh   |
          | TOTAL ENTHALPY            -76.696171492091 Eh   |
          | TOTAL FREE ENERGY         -76.771932102709 Eh   |
          | GRADIENT NORM               0.000143043404 Eh/α |
          | HOMO-LUMO GAP               0.633836911276 eV   |
           -------------------------------------------------

 * finished run on 2025/08/24 at 14:25:09.625
