   * xtb version 6.7.1 (edcfbbe) compiled by 'albert@albert-system' on 2024-07-22

   ID    Z sym.   atoms
    1    7 N      1, 5
    2    6 C      2-4, 6-8, 10-29
    3    9 F      9, 30
    4    1 H      31-42

          program call               : xtb data2507/toluene/C-H/C-H_toluene_S0_crest.xyz --gfn 2 --gbsa toluene --ohess vtight --parallel 40 --molden --ceasefiles --namespace data2507/toluene/C-H/C-H_toluene_S0_finalOpt
      * Solvation model:               GBSA
        Solvent                        toluene
        Solvent mass                       9.2140E+01 g/mol
          :  Hamiltonian                  GFN2-xTB          :
 * total energy  :   -77.0686108 Eh     change       -0.9516441E-09 Eh
 * total energy  :   -77.0686547 Eh     change       -0.4388478E-04 Eh
 * total energy  :   -77.0686708 Eh     change       -0.1604118E-04 Eh
 * total energy  :   -77.0686479 Eh     change        0.2283559E-04 Eh
 * total energy  :   -77.0686725 Eh     change       -0.2454951E-04 Eh
 * total energy  :   -77.0686786 Eh     change       -0.6115768E-05 Eh
 * total energy  :   -77.0686818 Eh     change       -0.3170781E-05 Eh
 * total energy  :   -77.0686878 Eh     change       -0.6054475E-05 Eh
 * total energy  :   -77.0686924 Eh     change       -0.4572229E-05 Eh
 * total energy  :   -77.0686950 Eh     change       -0.2596810E-05 Eh
 * total energy  :   -77.0686994 Eh     change       -0.9518714E-06 Eh
 * total energy  :   -77.0687001 Eh     change       -0.7031469E-06 Eh
 * total energy  :   -77.0687011 Eh     change       -0.9267094E-06 Eh
 * total energy  :   -77.0687019 Eh     change       -0.8159032E-06 Eh
 * total energy  :   -77.0687024 Eh     change       -0.4850560E-06 Eh
 * total energy  :   -77.0687027 Eh     change       -0.3448782E-06 Eh
 * total energy  :   -77.0687030 Eh     change       -0.2729185E-06 Eh
 * total energy  :   -77.0687031 Eh     change       -0.1171961E-06 Eh
 * total energy  :   -77.0687031 Eh     change       -0.3394042E-07 Eh
   *** GEOMETRY OPTIMIZATION CONVERGED AFTER 21 ITERATIONS ***

 final structure:
================
42
 xtb: 6.7.1 (edcfbbe)
N            8.14574474237567        0.66303642219904       -0.09331623219185
C            6.99983596760047        0.66483116487444       -0.05362721725114
C            5.58528588509347        0.67289025430778        0.00557112548993
C            5.02416964982405        1.97088149135109        0.01527456063768
N            4.60671062994081        3.03730397260182       -0.04595327894572
C            4.88691615556337       -0.48879907117239       -0.04402869742292
C            3.45465697570446       -0.64069288501669        0.03169532013760
C            2.82257407815959       -1.67018496958158       -0.68475380159801
F            3.59419525461017       -2.47391255714356       -1.44602259388914
C            1.46314972790537       -1.87070504259643       -0.68139034868346
C            0.63948813472150       -1.03722719110846        0.07991227262810
C           -0.80855026589549       -1.26031748814413        0.11239587852259
C           -1.27048674936249       -2.55565532423850        0.34949635589882
C           -2.61547690181406       -2.82783118937225        0.46710373118035
C           -3.56282820105689       -1.80874652593954        0.33896065954533
C           -4.95921293366249       -2.05669252408238        0.47670982952529
C           -5.86572232398496       -1.06039072651829        0.34225596903415
C           -5.45627096608178        0.27329848107075        0.04804535371602
C           -6.37471309988530        1.31507919058995       -0.09873279959997
C           -5.94891805102957        2.59804393302046       -0.39282850603641
C           -4.60258239791920        2.87237908122662       -0.55002063238646
C           -3.64891471561203        1.86218037663590       -0.40714189294809
C           -2.25572354247241        2.10096759717135       -0.58271357003011
C           -1.34356121178600        1.11255219876731       -0.42424451455956
C           -1.73399844706150       -0.21215421372754       -0.06552477780733
C           -3.12019519854705       -0.49172927781748        0.05730818905009
C           -4.07280763904913        0.54615225664631       -0.09926170525401
C            1.23538359734334       -0.03767462861818        0.85268617869344
C            2.59910945773745        0.14409942840471        0.81910900829931
F            3.13629653140450        1.06364394138428        1.64590546866636
H            5.44886220409783       -1.40257381404349       -0.19959626246242
H            1.04498424108709       -2.66101863973529       -1.28419976873412
H           -0.55122203706058       -3.35044361848200        0.48203247643967
H           -2.94721915216601       -3.83525722161584        0.67140188520445
H           -5.27645744712500       -3.06668080974496        0.69391373693113
H           -6.92291635282933       -1.25675405012780        0.45092716179015
H           -7.42866310517427        1.10803570864298        0.01995166647959
H           -6.67400437976267        3.39141399895705       -0.50367333822324
H           -4.27619362408885        3.87506429574600       -0.78622697618881
H           -1.93891002695153        3.09763545130438       -0.85549725695286
H           -0.29698044398053        1.31831427687480       -0.59047567223578
H            0.64357402699001        0.58251098684834        1.50714518493145

          :  Hamiltonian                  GFN2-xTB          :
         :: gradient norm              0.000045080973 Eh/a0 ::
         :: HOMO-LUMO gap              1.171868773684 eV    ::
         :: SCC energy               -78.447202476875 Eh    ::
         :: -> dispersion             -0.056368061307 Eh    ::
         :: -> Gsolv                  -0.036472279746 Eh    ::
         :: repulsion energy           1.378499338520 Eh    ::

    * Orbital Energies and Occupations

         #    Occupation            Energy/Eh            Energy/eV
      -------------------------------------------------------------
         1        2.0000           -0.8477291             -23.0679
       ...           ...                  ...                  ...
        58        2.0000           -0.4547893             -12.3754
        59        2.0000           -0.4473342             -12.1726
        60        2.0000           -0.4455784             -12.1248
        61        2.0000           -0.4436201             -12.0715
        62        2.0000           -0.4419523             -12.0261
        63        2.0000           -0.4382058             -11.9242
        64        2.0000           -0.4316512             -11.7458
        65        2.0000           -0.4224568             -11.4956
        66        2.0000           -0.4171536             -11.3513
        67        2.0000           -0.4141243             -11.2689
        68        2.0000           -0.4115897             -11.1999
        69        2.0000           -0.3999506             -10.8832
        70        2.0000           -0.3736881             -10.1686 (HOMO)
        71                         -0.3306227              -8.9967 (LUMO)
        72                         -0.2881353              -7.8406
        73                         -0.2624650              -7.1420
        74                         -0.2560454              -6.9674
        75                         -0.2508499              -6.8260
        76                         -0.2461292              -6.6975
        77                         -0.2309533              -6.2846
        78                         -0.2289736              -6.2307
        79                         -0.2138127              -5.8181
        80                         -0.2085567              -5.6751
        81                         -0.1892677              -5.1502
       ...                                ...                  ...
       132                          1.1489684              31.2650
      -------------------------------------------------------------
                  HL-Gap            0.0430654 Eh            1.1719 eV

     #   Z          covCN         q      C6AA      α(0)
     1   7 N        0.911    -0.239    26.249     7.410
     2   6 C        1.930     0.126    28.011     8.547
     3   6 C        2.945     0.022    27.513     8.603
     4   6 C        1.922     0.135    27.796     8.514
     5   7 N        0.911    -0.243    26.329     7.421
     6   6 C        2.916     0.014    27.698     8.630
     7   6 C        2.964    -0.020    28.492     8.755
     8   6 C        2.793     0.170    24.332     8.080
     9   9 F        0.787    -0.222    11.460     3.999
    10   6 C        2.919    -0.056    29.388     8.890
    11   6 C        2.982     0.036    27.195     8.554
    12   6 C        2.976     0.003    27.952     8.672
    13   6 C        2.920    -0.032    28.806     8.801
    14   6 C        2.918    -0.036    28.885     8.813
    15   6 C        2.982     0.016    27.647     8.625
    16   6 C        2.913    -0.035    28.880     8.812
    17   6 C        2.913    -0.032    28.802     8.800
    18   6 C        2.982     0.013    27.713     8.635
    19   6 C        2.920    -0.034    28.838     8.806
    20   6 C        2.913    -0.029    28.716     8.787
    21   6 C        2.920    -0.034    28.838     8.806
    22   6 C        2.981     0.013    27.718     8.636
    23   6 C        2.913    -0.032    28.801     8.800
    24   6 C        2.912    -0.038    28.948     8.822
    25   6 C        2.980     0.013    27.727     8.637
    26   6 C        2.994     0.005    27.895     8.664
    27   6 C        2.997     0.004    27.920     8.668
    28   6 C        2.919    -0.054    29.336     8.882
    29   6 C        2.788     0.170    24.322     8.078
    30   9 F        0.787    -0.222    11.464     4.000
    31   1 H        0.925     0.081     1.971     2.195
    32   1 H        0.926     0.088     1.895     2.152
    33   1 H        0.926     0.044     2.398     2.422
    34   1 H        0.926     0.045     2.387     2.416
    35   1 H        0.926     0.040     2.444     2.445
    36   1 H        0.926     0.040     2.450     2.448
    37   1 H        0.926     0.039     2.465     2.455
    38   1 H        0.926     0.037     2.491     2.468
    39   1 H        0.926     0.038     2.472     2.459
    40   1 H        0.926     0.039     2.456     2.451
    41   1 H        0.926     0.037     2.491     2.468
    42   1 H        0.926     0.088     1.902     2.157

molecular dipole:
                 x           y           z       tot (Debye)
 q only:       -3.763      -1.415       0.018
   full:       -3.880      -1.754       0.050      10.824

 projected vibrational frequencies (cm⁻¹)
eigval :       -0.00    -0.00    -0.00     0.00     0.00     0.00
eigval :       17.71    24.21    31.33    39.86    61.78    82.17
eigval :       92.58   117.03   124.71   143.78   177.42   187.68
eigval :      200.01   203.00   216.03   233.66   241.62   252.21
eigval :      278.43   298.78   326.46   368.49   385.55   394.26
eigval :      399.01   433.14   448.94   459.17   461.63   473.62
eigval :      487.31   495.24   499.62   511.00   516.49   544.48
eigval :      552.13   560.06   581.12   598.67   607.15   626.09
eigval :      646.25   653.15   671.58   679.00   690.31   730.01
eigval :      757.12   763.47   773.57   783.83   801.67   818.46
eigval :      833.78   846.59   849.86   858.46   865.40   888.32
eigval :      893.32   912.38   916.26   920.59   926.34   931.05
eigval :      994.61   995.34  1046.23  1101.26  1111.67  1130.27
eigval :     1156.12  1159.86  1175.77  1182.77  1187.61  1196.30
eigval :     1209.86  1220.58  1227.27  1239.03  1261.81  1301.06
eigval :     1311.36  1313.67  1329.48  1342.69  1360.93  1384.34
eigval :     1389.44  1409.13  1413.80  1414.70  1448.51  1460.93
eigval :     1483.20  1495.53  1520.32  1535.73  1549.86  1563.05
eigval :     1574.89  1593.53  1600.66  1602.96  2342.59  2370.91
eigval :     3054.05  3068.10  3069.93  3072.04  3075.67  3076.66
eigval :     3081.04  3086.24  3088.44  3091.80  3114.73  3116.14

   temp. (K)  partition function   enthalpy   heat capacity  entropy
                                   cal/mol     cal/K/mol   cal/K/mol   J/K/mol
 298.15  VIB  0.200E+10            13059.295     83.424     79.146
         ROT  0.206E+08              888.752      2.981     36.447
         INT  0.412E+17            13948.047     86.405    115.593
         TR   0.746E+28             1481.254      4.968     43.758
         TOT                       15429.3008    91.3734   159.3507   666.7234

       T/K    H(0)-H(T)+PV         H(T)/Eh          T*S/Eh         G(T)/Eh
   ------------------------------------------------------------------------
    298.15    0.245882E-01    0.315895E+00    0.757127E-01    0.240182E+00
   ------------------------------------------------------------------------

         :::::::::::::::::::::::::::::::::::::::::::::::::::::
         ::                  THERMODYNAMIC                  ::
         :::::::::::::::::::::::::::::::::::::::::::::::::::::
         :: total free energy         -76.828520761386 Eh   ::
         ::.................................................::
         :: total energy              -77.068703139576 Eh   ::
         :: zero point energy           0.291306893718 Eh   ::
         :: G(RRHO) w/o ZPVE           -0.051124515528 Eh   ::
         :: G(RRHO) contrib.            0.240182378190 Eh   ::
         :::::::::::::::::::::::::::::::::::::::::::::::::::::

           -------------------------------------------------
          | TOTAL ENERGY              -77.068703139576 Eh   |
          | TOTAL ENTHALPY            -76.752808089871 Eh   |
          | TOTAL FREE ENERGY         -76.828520761386 Eh   |
          | GRADIENT NORM               0.000045118871 Eh/α |
          | HOMO-LUMO GAP               1.171868524231 eV   |
           -------------------------------------------------

 * finished run on 2025/08/24 at 14:24:07.606
