   * xtb version 6.7.1 (edcfbbe) compiled by 'albert@albert-system' on 2024-07-22

   ID    Z sym.   atoms
    1    7 N      1, 5
    2    6 C      2-4, 6-8, 10-29
    3    9 F      9, 30
    4    1 H      31-42

          program call               : xtb data2507/toluene/C-H/C-H.xyz --gfn 2 --gbsa toluene --ohess vtight --parallel 40 --molden --ceasefiles --namespace data2507/toluene/C-H/C-H_toluene_S0_preOpt
      * Solvation model:               GBSA
        Solvent                        toluene
        Solvent mass                       9.2140E+01 g/mol
          :  Hamiltonian                  GFN2-xTB          :
 * total energy  :   -77.0538085 Eh     change       -0.2718465E-08 Eh
 * total energy  :   -77.0615176 Eh     change       -0.7709077E-02 Eh
 * total energy  :   -77.0632214 Eh     change       -0.1703834E-02 Eh
 * total energy  :   -77.0631041 Eh     change        0.1173145E-03 Eh
 * total energy  :   -77.0639349 Eh     change       -0.8308268E-03 Eh
 * total energy  :   -77.0642485 Eh     change       -0.3135170E-03 Eh
 * total energy  :   -77.0648584 Eh     change       -0.6099781E-03 Eh
 * total energy  :   -77.0653882 Eh     change       -0.5297566E-03 Eh
 * total energy  :   -77.0659451 Eh     change       -0.5568862E-03 Eh
 * total energy  :   -77.0664174 Eh     change       -0.4723441E-03 Eh
 * total energy  :   -77.0687856 Eh     change       -0.6815680E-06 Eh
 * total energy  :   -77.0687861 Eh     change       -0.4986384E-06 Eh
 * total energy  :   -77.0687864 Eh     change       -0.3398972E-06 Eh
 * total energy  :   -77.0687867 Eh     change       -0.2817082E-06 Eh
 * total energy  :   -77.0687867 Eh     change       -0.4950455E-07 Eh
 * total energy  :   -77.0687869 Eh     change       -0.1426431E-06 Eh
 * total energy  :   -77.0687870 Eh     change       -0.1122117E-06 Eh
 * total energy  :   -77.0687870 Eh     change       -0.1422021E-07 Eh
 * total energy  :   -77.0687871 Eh     change       -0.7081184E-07 Eh
   *** GEOMETRY OPTIMIZATION CONVERGED AFTER 56 ITERATIONS ***

 final structure:
================
42
 xtb: 6.7.1 (edcfbbe)
N            8.88539300590778        1.08582252556452        0.12288941044592
C            7.74037689146250        1.03261051970491        0.15002966235920
C            6.32672004498569        0.97062016396326        0.19498461655162
C            5.71145863097027        2.21636379354299        0.45787764237332
N            5.25171067891738        3.25644701399041        0.60698894953701
C            5.67856825146311       -0.18577904129419       -0.09209182701573
C            4.25419890180809       -0.40915754375707       -0.06073149054927
C            3.66688371293123       -1.30168764055495       -0.97241758197209
F            4.47226362100500       -1.90517750559334       -1.87135810144991
C            2.31744565016102       -1.55631664283099       -1.02028665214105
C            1.45833423834231       -0.92606473913404       -0.11597131105674
C            0.02178318265853       -1.21436799260798       -0.13807971185242
C           -0.38168932887537       -2.54996339387107       -0.17273429976062
C           -1.71248318973014       -2.89991242913386       -0.11649681570875
C           -2.70451716120085       -1.91920952176749       -0.03478755239594
C           -4.08747880469446       -2.25194261345655        0.04764598880091
C           -5.03772431378373       -1.29035469464811        0.11817329081076
C           -4.68906484535684        0.09206169740416        0.10445004305422
C           -5.65339977966639        1.10002647512541        0.17121132893934
C           -5.28635627673784        2.43361297931774        0.14918944870942
C           -3.95426478933318        2.79396233689589        0.05739440437879
C           -2.95637428148036        1.81920208058425       -0.00981328760192
C           -1.57640387350370        2.15047106727805       -0.13145328418023
C           -0.62097297625838        1.19185227224706       -0.18070854885304
C           -0.95020053739685       -0.19413447860108       -0.10045624821170
C           -2.32181787445731       -0.55416007917031       -0.03916649577855
C           -3.32001776477525        0.45050723668008        0.01938935958784
C            2.01084530871037       -0.07423577881596        0.84368322479152
C            3.36541004827818        0.16809283061629        0.85847283243516
F            3.86210995894634        0.92798216823280        1.85529489112617
H            6.27937128815109       -1.02576921910505       -0.42141773821051
H            1.93410510394023       -2.22799764820928       -1.77177606378501
H            0.37237591100136       -3.32259956003289       -0.20279265486785
H           -1.99810669152416       -3.94160533194817       -0.12344112508028
H           -4.35859101380241       -3.29808438114611        0.05275205060486
H           -6.08454756685400       -1.55135362613914        0.18219890040896
H           -6.69654239838899        0.82636560752709        0.24037999840341
H           -6.04661452039086        3.19960915080756        0.20141672605357
H           -3.67386461983018        3.83730973929225        0.03454215880896
H           -1.30545461250366        3.19493474578005       -0.19342319742716
H            0.41399338907828        1.47339740021563       -0.30256053574490
H            1.39314040182612        0.37862405704652        1.60299659546091

          :  Hamiltonian                  GFN2-xTB          :
         :: gradient norm              0.000160647390 Eh/a0 ::
         :: HOMO-LUMO gap              1.173233903867 eV    ::
         :: SCC energy               -78.447244966676 Eh    ::
         :: -> dispersion             -0.056369104309 Eh    ::
         :: -> Gsolv                  -0.036573442412 Eh    ::
         :: repulsion energy           1.378457881293 Eh    ::

    * Orbital Energies and Occupations

         #    Occupation            Energy/Eh            Energy/eV
      -------------------------------------------------------------
         1        2.0000           -0.8476920             -23.0669
       ...           ...                  ...                  ...
        58        2.0000           -0.4547078             -12.3732
        59        2.0000           -0.4473624             -12.1733
        60        2.0000           -0.4455676             -12.1245
        61        2.0000           -0.4436041             -12.0711
        62        2.0000           -0.4420130             -12.0278
        63        2.0000           -0.4381652             -11.9231
        64        2.0000           -0.4316839             -11.7467
        65        2.0000           -0.4224238             -11.4947
        66        2.0000           -0.4171810             -11.3521
        67        2.0000           -0.4141776             -11.2703
        68        2.0000           -0.4116206             -11.2008
        69        2.0000           -0.3999859             -10.8842
        70        2.0000           -0.3737203             -10.1694 (HOMO)
        71                         -0.3306048              -8.9962 (LUMO)
        72                         -0.2882145              -7.8427
        73                         -0.2624108              -7.1406
        74                         -0.2560301              -6.9669
        75                         -0.2508387              -6.8257
        76                         -0.2460947              -6.6966
        77                         -0.2308770              -6.2825
        78                         -0.2290241              -6.2321
        79                         -0.2136758              -5.8144
        80                         -0.2085531              -5.6750
        81                         -0.1892826              -5.1506
       ...                                ...                  ...
       132                          1.1489305              31.2640
      -------------------------------------------------------------
                  HL-Gap            0.0431156 Eh            1.1732 eV

     #   Z          covCN         q      C6AA      α(0)
     1   7 N        0.911    -0.239    26.252     7.410
     2   6 C        1.930     0.126    28.011     8.547
     3   6 C        2.945     0.022    27.515     8.603
     4   6 C        1.922     0.135    27.796     8.514
     5   7 N        0.911    -0.243    26.332     7.422
     6   6 C        2.916     0.014    27.699     8.630
     7   6 C        2.964    -0.020    28.493     8.755
     8   6 C        2.793     0.170    24.332     8.080
     9   9 F        0.787    -0.222    11.461     3.999
    10   6 C        2.919    -0.056    29.389     8.890
    11   6 C        2.982     0.036    27.196     8.554
    12   6 C        2.976     0.003    27.951     8.672
    13   6 C        2.920    -0.032    28.805     8.801
    14   6 C        2.918    -0.036    28.885     8.813
    15   6 C        2.982     0.016    27.645     8.625
    16   6 C        2.913    -0.035    28.879     8.812
    17   6 C        2.913    -0.032    28.801     8.800
    18   6 C        2.982     0.013    27.713     8.635
    19   6 C        2.920    -0.034    28.838     8.806
    20   6 C        2.913    -0.029    28.716     8.787
    21   6 C        2.920    -0.034    28.837     8.806
    22   6 C        2.981     0.013    27.717     8.636
    23   6 C        2.913    -0.032    28.801     8.800
    24   6 C        2.912    -0.038    28.948     8.823
    25   6 C        2.980     0.013    27.725     8.637
    26   6 C        2.994     0.005    27.894     8.664
    27   6 C        2.997     0.004    27.920     8.668
    28   6 C        2.919    -0.054    29.338     8.882
    29   6 C        2.788     0.170    24.323     8.078
    30   9 F        0.787    -0.222    11.465     4.000
    31   1 H        0.925     0.081     1.972     2.196
    32   1 H        0.926     0.088     1.895     2.153
    33   1 H        0.926     0.044     2.397     2.421
    34   1 H        0.926     0.045     2.387     2.416
    35   1 H        0.926     0.040     2.443     2.444
    36   1 H        0.926     0.040     2.449     2.447
    37   1 H        0.926     0.039     2.465     2.455
    38   1 H        0.926     0.037     2.490     2.468
    39   1 H        0.926     0.038     2.472     2.458
    40   1 H        0.926     0.039     2.456     2.451
    41   1 H        0.926     0.037     2.489     2.467
    42   1 H        0.926     0.088     1.902     2.157

molecular dipole:
                 x           y           z       tot (Debye)
 q only:       -3.713      -1.551      -0.291
   full:       -3.817      -1.894      -0.330      10.863

 projected vibrational frequencies (cm⁻¹)
eigval :       -0.00    -0.00    -0.00     0.00     0.00     0.00
eigval :       23.75    25.65    33.98    42.88    63.23    83.81
eigval :       95.50   117.25   125.84   144.97   178.07   188.86
eigval :      199.84   207.83   215.66   236.18   244.27   254.67
eigval :      278.82   301.45   326.73   370.23   386.81   395.77
eigval :      401.54   433.61   449.06   460.28   463.04   476.82
eigval :      487.62   495.53   501.46   511.63   519.90   545.46
eigval :      552.58   560.34   582.29   598.91   606.51   627.31
eigval :      646.25   655.57   672.26   679.35   692.49   730.33
eigval :      759.22   763.70   773.58   784.15   801.80   819.27
eigval :      835.93   847.57   850.40   859.00   867.46   888.98
eigval :      895.05   912.55   916.99   921.88   925.76   932.49
eigval :      994.62   995.33  1046.84  1101.77  1111.93  1130.50
eigval :     1155.39  1159.81  1175.74  1183.43  1188.16  1195.73
eigval :     1210.37  1220.83  1228.10  1239.18  1262.14  1300.32
eigval :     1311.42  1313.68  1328.30  1342.83  1361.02  1384.60
eigval :     1389.72  1409.39  1414.07  1414.91  1448.82  1461.27
eigval :     1483.31  1495.72  1520.02  1535.92  1549.84  1563.38
eigval :     1575.25  1593.57  1600.87  1603.17  2342.30  2370.85
eigval :     3053.42  3067.81  3069.49  3071.60  3075.56  3076.88
eigval :     3081.00  3086.06  3088.93  3091.92  3115.93  3116.76

   temp. (K)  partition function   enthalpy   heat capacity  entropy
                                   cal/mol     cal/K/mol   cal/K/mol   J/K/mol
 298.15  VIB  0.109E+10            12999.521     83.489     78.501
         ROT  0.206E+08              888.752      2.981     36.447
         INT  0.225E+17            13888.273     86.470    114.948
         TR   0.746E+28             1481.254      4.968     43.758
         TOT                       15369.5269    91.4381   158.7058   664.0251

       T/K    H(0)-H(T)+PV         H(T)/Eh          T*S/Eh         G(T)/Eh
   ------------------------------------------------------------------------
    298.15    0.244929E-01    0.316002E+00    0.754063E-01    0.240596E+00
   ------------------------------------------------------------------------

         :::::::::::::::::::::::::::::::::::::::::::::::::::::
         ::                  THERMODYNAMIC                  ::
         :::::::::::::::::::::::::::::::::::::::::::::::::::::
         :: total free energy         -76.828191287096 Eh   ::
         ::.................................................::
         :: total energy              -77.068787087780 Eh   ::
         :: zero point energy           0.291509154857 Eh   ::
         :: G(RRHO) w/o ZPVE           -0.050913354173 Eh   ::
         :: G(RRHO) contrib.            0.240595800684 Eh   ::
         :::::::::::::::::::::::::::::::::::::::::::::::::::::

           -------------------------------------------------
          | TOTAL ENERGY              -77.068787087780 Eh   |
          | TOTAL ENTHALPY            -76.752785032732 Eh   |
          | TOTAL FREE ENERGY         -76.828191287096 Eh   |
          | GRADIENT NORM               0.000160604056 Eh/α |
          | HOMO-LUMO GAP               1.173234593010 eV   |
           -------------------------------------------------

 * finished run on 2025/08/24 at 14:23:10.360
