   * xtb version 6.7.1 (edcfbbe) compiled by 'albert@albert-system' on 2024-07-22

   ID    Z sym.   atoms
    1    7 N      1, 5, 19, 41, 43, 57
    2    6 C      2-4, 6-18, 20-27, 29-40, 42, 44-56, 58-65, 67-76
    3   16 S      28, 66
    4    1 H      77-112

          program call               : xtb data2507/toluene/2BTCz2CzTPN/2BTCz2CzTPN_toluene_T1_crest.xyz --gfn 2 --uhf 2 --gbsa toluene --ohess vtight --parallel 40 --molden --ceasefiles --namespace data2507/toluene/2BTCz2CzTPN/2BTCz2CzTPN_toluene_T1_finalOpt
      * Solvation model:               GBSA
        Solvent                        toluene
        Solvent mass                       9.2140E+01 g/mol
          :  Hamiltonian                  GFN2-xTB          :
 * total energy  :  -188.1635264 Eh     change       -0.2908482E-07 Eh
 * total energy  :  -188.1637490 Eh     change       -0.2225735E-03 Eh
 * total energy  :  -188.1638495 Eh     change       -0.1005171E-03 Eh
 * total energy  :  -188.1639874 Eh     change       -0.1378843E-03 Eh
 * total energy  :  -188.1640707 Eh     change       -0.8329724E-04 Eh
 * total energy  :  -188.1642537 Eh     change       -0.1829933E-03 Eh
 * total energy  :  -188.1643823 Eh     change       -0.1285748E-03 Eh
 * total energy  :  -188.1645240 Eh     change       -0.1417651E-03 Eh
 * total energy  :  -188.1646673 Eh     change       -0.1432456E-03 Eh
 * total energy  :  -188.1647969 Eh     change       -0.1295916E-03 Eh
 * total energy  :  -188.1655231 Eh     change       -0.8653112E-06 Eh
 * total energy  :  -188.1655239 Eh     change       -0.7761477E-06 Eh
 * total energy  :  -188.1655246 Eh     change       -0.6997428E-06 Eh
 * total energy  :  -188.1655253 Eh     change       -0.6413411E-06 Eh
 * total energy  :  -188.1655257 Eh     change       -0.4676927E-06 Eh
 * total energy  :  -188.1655260 Eh     change       -0.2861176E-06 Eh
 * total energy  :  -188.1655262 Eh     change       -0.2330343E-06 Eh
 * total energy  :  -188.1655264 Eh     change       -0.1744197E-06 Eh
 * total energy  :  -188.1655264 Eh     change       -0.1139338E-07 Eh
   *** GEOMETRY OPTIMIZATION CONVERGED AFTER 92 ITERATIONS ***

 final structure:
================
112
 xtb: 6.7.1 (edcfbbe)
N           -1.10319707035356       -2.08283226475029        2.82565054996016
C           -0.80242860862690       -1.29234976176065        2.03305041931394
C           -0.44997498679214       -0.34427588498048        1.08719917673471
C            0.92550169951186       -0.05782794986304        0.81853913494969
N            1.91157712596513       -0.84430552792680        1.42998091534321
C            2.07729471592338       -2.20357602949254        1.25535955585733
C            1.28542064279934       -3.10877368180576        0.56259102760918
C            1.69789254776224       -4.42680699018705        0.51677336110609
C            2.87810764060728       -4.83766365313836        1.13117587736524
C            3.68410209850164       -3.93575037821997        1.80305704633034
C            3.28562821752277       -2.60957841980691        1.86777870212247
C            3.86338240310807       -1.42928998786833        2.45439514275246
C            5.01936884635903       -1.18824572015396        3.18077700393512
C            5.25900936758231        0.09662024832681        3.63658636434488
C            4.34886568937612        1.12311670750628        3.40256489864120
C            3.19195808640423        0.90633686857789        2.67665065091869
C            2.97444546831754       -0.36763418173108        2.17296481474219
C            1.27853430309372        0.99391628505802       -0.00220960067226
N            2.62827456043826        1.24586534302597       -0.28947109579030
C            3.30918410066079        2.41043256092727       -0.00124057991045
C            2.83402620014196        3.61418199026172        0.50098407743907
C            3.74658010195776        4.62638463627181        0.72329414435858
C            5.10540918047558        4.44834004422706        0.46717947819834
C            5.59058484915883        3.24562945737360       -0.01014502455043
C            4.68958197332073        2.21672040245850       -0.24505913902262
C            4.83015337232942        0.86915543424261       -0.71402692457155
C            5.89747109673799        0.07573060664732       -1.10869156989637
S            7.58128085391500        0.51044854942971       -1.10987008986751
C            8.01630501925889       -1.07660125036839       -1.72526786802769
C            9.29866150646485       -1.51236065020090       -2.00724166254288
C            9.46430852471089       -2.79890889988106       -2.49041785512685
C            8.36674307636053       -3.63126263194131       -2.68447268309009
C            7.08803294318284       -3.19332268568496       -2.40136154321935
C            6.89482651300592       -1.90118089268731       -1.91763755481602
C            5.66698716236467       -1.23823215520537       -1.56475231290674
C            4.36229588699780       -1.73025141955253       -1.65273283417191
C            3.28926511953151       -0.96352541198646       -1.25308387711911
C            3.53251531172240        0.31209271039978       -0.74793523784425
C            0.27899603469293        1.82287143653686       -0.60484219900464
C            0.63049721213135        2.76252648156592       -1.55965400629943
N            0.92794445838931        3.54159741581976       -2.36451663150109
C           -1.09678649095916        1.53827952406225       -0.33365520509730
N           -2.08289258224843        2.32195971262802       -0.94736620234999
C           -3.13837760953950        1.84570424930113       -1.70039901684001
C           -3.36438358233539        0.56607285223265       -2.18586618919865
C           -4.51085401769435        0.35157591329423       -2.92895671978753
C           -5.40135391631371        1.38612971614778       -3.19933765844737
C           -5.15154044377453        2.67587495599137       -2.76255442421808
C           -4.00768933217783        2.91387837327808       -2.01685512426354
C           -3.42444545774695        4.09702928900745       -1.44090564421893
C           -3.80580340045388        5.42912475857000       -1.40623903598037
C           -3.00046604551784        6.33143568422237       -0.73352683224949
C           -1.83832022872282        5.91550900151585       -0.08911863955528
C           -1.44265857504616        4.59161940175513       -0.10578327261051
C           -2.23324393972101        3.68604793262975       -0.79946293598483
C           -1.44947489797541        0.48756738235506        0.48760651925176
N           -2.79845822720569        0.24006468847674        0.78195171123046
C           -3.69488521191365        1.16531931690565        1.27851856865192
C           -3.46163592588862        2.44085131598706        1.77130532085276
C           -4.54928959005770        3.16613141528075        2.21997020774807
C           -5.83610378377581        2.63324905151333        2.19570787599811
C           -6.06824610296402        1.34444127152966        1.75148651499732
C           -4.98967201417413        0.59806675703750        1.29872500793587
C           -4.84660480259690       -0.74270594751817        0.80961481586081
C           -5.71951575664378       -1.79486810820652        0.57746518725115
S           -7.43869917582545       -1.80830906939615        0.84951315060301
C           -7.54143834835365       -3.46318739370370        0.27357752926863
C           -8.69607555697491       -4.22107060121979        0.19066877406243
C           -8.59981757501094       -5.51571296999797       -0.28841742354078
C           -7.37030419546107       -6.03998069757941       -0.67587296798452
C           -6.22001063728241       -5.28150652338536       -0.59218027583477
C           -6.29016685332475       -3.97455430058610       -0.11302072287256
C           -5.23509811178620       -3.01191522299136        0.05818533774620
C           -3.87499035977808       -3.15602682706095       -0.23480384662285
C           -2.99260039448268       -2.12171691750115       -0.01962074399276
C           -3.47638921998678       -0.92713947282097        0.51316105324851
H            0.37197071438518       -2.79883282582153        0.07844381254573
H            1.09228720360664       -5.15058036985390       -0.00766861601847
H            3.16748945274215       -5.87613453134975        1.07564469246345
H            4.60517880482197       -4.25341802575068        2.26672934133224
H            5.71168010419913       -1.98896393242066        3.39016457372283
H            6.15613480338002        0.30590899213989        4.19908239671184
H            4.54492187231907        2.10846336145685        3.79724384167858
H            2.47750835853268        1.70062505648998        2.52152808823664
H            1.78489787254437        3.76051194967858        0.70642057100547
H            3.39886886962081        5.57453578533275        1.10474953635557
H            5.78694626827110        5.26472039898583        0.65134744997454
H            6.64344183741174        3.10184551935590       -0.19797244566774
H           10.14438321906742       -0.86050233813384       -1.85317279687293
H           10.45648317853767       -3.15784368304265       -2.71827099056738
H            8.51775620371407       -4.63152901709396       -3.06167332851358
H            6.23870861313135       -3.84177139544057       -2.55206762281780
H            4.19567603450967       -2.72213978013455       -2.04114387512029
H            2.28167349236636       -1.33782563561796       -1.34516935891095
H           -2.66289898566086       -0.23437046661304       -2.00588475541734
H           -4.71333564728311       -0.63817144432441       -3.30984017769746
H           -6.29018249779219        1.17935905614971       -3.77583414521390
H           -5.82729341133532        3.48227972244966       -3.00131647529162
H           -4.71329480030244        5.75148650551661       -1.89272181100351
H           -3.27667339508538        7.37440119155300       -0.70065372092374
H           -1.23369383878484        6.63958705289607        0.43590111994041
H           -0.54375297095142        4.27757801486871        0.40242443844436
H           -2.46421891427765        2.85054097691030        1.81772645506863
H           -4.39457730768367        4.16446710419973        2.59990936152574
H           -6.66107666138323        3.23339797136036        2.54773441324201
H           -7.06053779928664        0.92070991446997        1.75961285960683
H           -9.64473199737442       -3.80620267103698        0.49366167734927
H           -9.48870348602291       -6.12376630268424       -0.36072479031933
H           -7.31681871157109       -7.05254158910879       -1.04662165056231
H           -5.26834387890633       -5.69233295685093       -0.89217801267737
H           -3.51775157674491       -4.08982960831698       -0.63922451417106
H           -1.94662177247748       -2.23693822086576       -0.25611362678251

          :  Hamiltonian                  GFN2-xTB          :
         :: gradient norm              0.000115627218 Eh/a0 ::
         :: HOMO-LUMO gap              0.693222553520 eV    ::
         :: SCC energy              -191.662108646558 Eh    ::
         :: -> dispersion             -0.210159899688 Eh    ::
         :: -> Gsolv                  -0.082059744295 Eh    ::
         :: repulsion energy           3.496582213821 Eh    ::

    * Orbital Energies and Occupations

         #    Occupation            Energy/Eh            Energy/eV
      -------------------------------------------------------------
         1        2.0000           -0.7363455             -20.0370
       ...           ...                  ...                  ...
       164        2.0000           -0.4120114             -11.2114
       165        2.0000           -0.4098999             -11.1539
       166        2.0000           -0.4036083             -10.9827
       167        2.0000           -0.4019454             -10.9375
       168        2.0000           -0.3941742             -10.7260
       169        2.0000           -0.3940870             -10.7237
       170        1.9998           -0.3846765             -10.4676
       171        1.9993           -0.3833036             -10.4302
       172        1.9828           -0.3802399             -10.3469
       173        1.9654           -0.3795602             -10.3284
       174        1.7738           -0.3775663             -10.2741
       175        1.2789           -0.3754950             -10.2177
       176        1.0000           -0.2955920              -8.0435 (HOMO)
       177        0.0000           -0.2701167              -7.3503 (LUMO)
       178                         -0.2663366              -7.2474
       179                         -0.2622981              -7.1375
       180                         -0.2619766              -7.1287
       181                         -0.2610566              -7.1037
       182                         -0.2596515              -7.0655
       183                         -0.2524427              -6.8693
       184                         -0.2387409              -6.4965
       185                         -0.2382766              -6.4838
       186                         -0.2376267              -6.4662
       187                         -0.2374858              -6.4623
       ...                                ...                  ...
       350                          1.1649079              31.6988
      -------------------------------------------------------------
                  HL-Gap            0.0254753 Eh            0.6932 eV

     #   Z          covCN         q      C6AA      α(0)
     1   7 N        0.911    -0.358    29.215     7.817
     2   6 C        1.909     0.109    28.411     8.608
     3   6 C        2.965    -0.055    29.365     8.888
     4   6 C        2.911     0.043    27.035     8.526
     5   7 N        2.802    -0.041    22.038     6.972
     6   6 C        3.074     0.055    26.700     8.472
     7   6 C        2.910    -0.040    28.999     8.830
     8   6 C        2.923    -0.031    28.767     8.796
     9   6 C        2.920    -0.034    28.839     8.806
    10   6 C        2.912    -0.030    28.746     8.792
    11   6 C        3.068    -0.014    28.283     8.720
    12   6 C        3.066    -0.015    28.328     8.728
    13   6 C        2.913    -0.030    28.746     8.792
    14   6 C        2.920    -0.034    28.856     8.809
    15   6 C        2.924    -0.031    28.781     8.798
    16   6 C        2.910    -0.046    29.134     8.851
    17   6 C        3.076     0.050    26.798     8.487
    18   6 C        2.912     0.040    27.101     8.537
    19   7 N        2.805    -0.036    21.931     6.955
    20   6 C        3.079     0.055    26.674     8.467
    21   6 C        2.910    -0.039    28.971     8.826
    22   6 C        2.923    -0.029    28.728     8.790
    23   6 C        2.921    -0.031    28.784     8.798
    24   6 C        2.911    -0.030    28.737     8.790
    25   6 C        3.068    -0.011    28.212     8.709
    26   6 C        3.085    -0.026    28.550     8.759
    27   6 C        2.994     0.034    27.224     8.559
    28  16 S        2.207    -0.062   143.618    20.170
    29   6 C        3.003     0.037    27.168     8.550
    30   6 C        2.934    -0.035    28.881     8.814
    31   6 C        2.923    -0.027    28.685     8.783
    32   6 C        2.918    -0.032    28.786     8.798
    33   6 C        2.917    -0.030    28.738     8.791
    34   6 C        3.103    -0.001    27.911     8.657
    35   6 C        3.103    -0.006    28.044     8.678
    36   6 C        2.920    -0.035    28.877     8.812
    37   6 C        2.909    -0.048    29.196     8.860
    38   6 C        3.078     0.050    26.802     8.488
    39   6 C        2.965    -0.055    29.355     8.887
    40   6 C        1.909     0.109    28.410     8.608
    41   7 N        0.911    -0.356    29.168     7.811
    42   6 C        2.911     0.043    27.033     8.526
    43   7 N        2.802    -0.039    21.984     6.964
    44   6 C        3.076     0.050    26.799     8.488
    45   6 C        2.910    -0.046    29.144     8.852
    46   6 C        2.923    -0.032    28.790     8.799
    47   6 C        2.920    -0.034    28.850     8.808
    48   6 C        2.913    -0.029    28.732     8.790
    49   6 C        3.066    -0.014    28.295     8.722
    50   6 C        3.068    -0.013    28.267     8.718
    51   6 C        2.912    -0.029    28.731     8.789
    52   6 C        2.920    -0.033    28.818     8.803
    53   6 C        2.923    -0.030    28.753     8.793
    54   6 C        2.910    -0.039    28.974     8.826
    55   6 C        3.074     0.055    26.694     8.471
    56   6 C        2.912     0.040    27.107     8.537
    57   7 N        2.805    -0.035    21.915     6.953
    58   6 C        3.081     0.050    26.782     8.484
    59   6 C        2.910    -0.045    29.113     8.848
    60   6 C        2.924    -0.030    28.755     8.794
    61   6 C        2.921    -0.033    28.815     8.803
    62   6 C        2.912    -0.029    28.732     8.789
    63   6 C        3.066    -0.012    28.251     8.716
    64   6 C        3.087    -0.024    28.497     8.751
    65   6 C        2.994     0.035    27.213     8.557
    66  16 S        2.207    -0.065   143.744    20.179
    67   6 C        3.003     0.037    27.151     8.548
    68   6 C        2.934    -0.036    28.886     8.814
    69   6 C        2.923    -0.027    28.675     8.781
    70   6 C        2.918    -0.032    28.787     8.798
    71   6 C        2.917    -0.030    28.740     8.791
    72   6 C        3.104    -0.000    27.897     8.655
    73   6 C        3.103    -0.005    28.023     8.674
    74   6 C        2.919    -0.034    28.845     8.807
    75   6 C        2.909    -0.043    29.067     8.841
    76   6 C        3.075     0.055    26.697     8.471
    77   1 H        0.926     0.022     2.705     2.572
    78   1 H        0.926     0.043     2.408     2.427
    79   1 H        0.926     0.046     2.368     2.406
    80   1 H        0.926     0.047     2.360     2.402
    81   1 H        0.926     0.046     2.367     2.406
    82   1 H        0.926     0.046     2.376     2.410
    83   1 H        0.926     0.042     2.427     2.436
    84   1 H        0.926     0.024     2.667     2.554
    85   1 H        0.926     0.025     2.663     2.552
    86   1 H        0.926     0.046     2.375     2.410
    87   1 H        0.926     0.049     2.335     2.390
    88   1 H        0.926     0.051     2.306     2.375
    89   1 H        0.926     0.049     2.331     2.388
    90   1 H        0.926     0.048     2.341     2.393
    91   1 H        0.926     0.046     2.370     2.408
    92   1 H        0.926     0.046     2.376     2.411
    93   1 H        0.926     0.051     2.308     2.376
    94   1 H        0.926     0.032     2.560     2.502
    95   1 H        0.926     0.024     2.672     2.556
    96   1 H        0.926     0.040     2.447     2.446
    97   1 H        0.926     0.046     2.374     2.410
    98   1 H        0.926     0.048     2.346     2.395
    99   1 H        0.926     0.048     2.342     2.393
   100   1 H        0.926     0.047     2.359     2.402
   101   1 H        0.926     0.044     2.399     2.422
   102   1 H        0.926     0.023     2.694     2.567
   103   1 H        0.926     0.027     2.628     2.535
   104   1 H        0.926     0.044     2.392     2.419
   105   1 H        0.926     0.048     2.341     2.393
   106   1 H        0.926     0.051     2.308     2.376
   107   1 H        0.926     0.049     2.332     2.388
   108   1 H        0.926     0.048     2.340     2.392
   109   1 H        0.926     0.046     2.372     2.408
   110   1 H        0.926     0.045     2.377     2.411
   111   1 H        0.926     0.052     2.291     2.367
   112   1 H        0.926     0.029     2.599     2.521

molecular dipole:
                 x           y           z       tot (Debye)
 q only:        0.112      -1.179      -0.480
   full:        0.140      -1.428      -0.561       3.915

 projected vibrational frequencies (cm⁻¹)
eigval :       -0.00    -0.00     0.00     0.00     0.00     0.00
eigval :        8.34     9.60    12.19    16.20    17.65    22.87
eigval :       25.18    33.29    36.55    42.84    48.17    55.34
eigval :       58.60    60.79    67.45    70.94    76.14    85.52
eigval :       91.09   104.40   106.82   110.44   112.78   115.11
eigval :      118.77   125.02   128.14   129.93   132.51   138.66
eigval :      142.47   146.38   155.52   157.65   177.72   180.81
eigval :      194.40   210.55   213.78   216.19   219.48   235.48
eigval :      248.83   256.56   264.35   267.53   273.09   274.43
eigval :      280.77   286.31   299.85   322.21   335.55   340.06
eigval :      364.07   366.55   378.72   382.01   385.90   391.60
eigval :      395.06   396.36   400.88   404.66   404.85   410.53
eigval :      414.74   418.56   419.58   420.42   430.14   433.21
eigval :      441.16   442.20   453.19   456.79   465.35   477.70
eigval :      479.13   488.30   488.93   491.96   493.10   500.14
eigval :      502.56   510.38   515.34   516.94   527.02   534.14
eigval :      537.81   538.01   540.15   542.41   547.84   558.08
eigval :      563.23   567.03   577.94   585.05   587.22   594.31
eigval :      596.24   599.00   600.86   616.71   627.66   629.74
eigval :      644.95   648.48   660.70   661.60   663.90   665.84
eigval :      671.27   671.73   682.05   687.20   688.22   690.53
eigval :      702.99   703.22   705.28   706.56   708.20   723.36
eigval :      728.11   749.83   753.13   762.30   763.04   763.62
eigval :      769.00   770.47   771.41   775.55   776.99   777.41
eigval :      801.63   807.58   810.57   823.60   834.97   835.32
eigval :      858.79   860.34   865.84   866.79   867.29   869.20
eigval :      870.88   871.81   875.46   888.46   891.30   896.44
eigval :      897.84   899.34   900.64   902.07   902.31   902.60
eigval :      904.07   905.80   905.90   914.73   916.38   919.69
eigval :      920.57   920.77   922.95   924.12   924.28   925.46
eigval :      929.00   977.10   994.20  1002.03  1010.84  1010.98
eigval :     1033.65  1042.73  1044.01  1064.85  1065.64  1066.22
eigval :     1068.93  1069.26  1069.93  1072.53  1073.83  1074.94
eigval :     1084.88  1106.07  1111.62  1121.48  1138.19  1140.49
eigval :     1141.64  1142.72  1144.44  1152.17  1153.79  1154.81
eigval :     1158.25  1173.44  1174.22  1174.79  1175.57  1176.35
eigval :     1177.47  1178.94  1180.99  1194.05  1212.56  1215.42
eigval :     1220.99  1227.47  1227.94  1230.11  1231.73  1241.43
eigval :     1242.72  1255.37  1257.13  1273.19  1276.13  1280.03
eigval :     1281.12  1283.72  1284.33  1291.94  1293.99  1305.10
eigval :     1310.07  1312.56  1313.52  1337.05  1339.26  1340.57
eigval :     1341.64  1343.32  1344.50  1348.65  1359.29  1360.50
eigval :     1364.35  1368.43  1378.03  1383.43  1392.99  1393.66
eigval :     1395.31  1400.49  1411.97  1412.74  1414.66  1416.32
eigval :     1421.96  1426.54  1438.96  1442.22  1451.03  1451.71
eigval :     1460.74  1461.05  1475.57  1477.78  1478.72  1480.90
eigval :     1481.25  1536.32  1537.97  1542.46  1543.80  1546.71
eigval :     1563.20  1565.05  1566.63  1566.72  1575.26  1576.32
eigval :     1579.76  1580.48  1581.18  1581.58  1582.10  1583.97
eigval :     1591.86  1593.06  1599.80  1603.36  2250.58  2294.58
eigval :     3080.91  3081.17  3081.55  3082.70  3082.96  3083.30
eigval :     3084.38  3085.33  3085.51  3086.33  3087.08  3087.17
eigval :     3088.73  3088.98  3089.13  3089.91  3092.28  3092.85
eigval :     3093.41  3094.10  3094.31  3094.46  3094.89  3096.14
eigval :     3096.19  3096.46  3099.62  3100.90  3101.34  3102.20
eigval :     3102.68  3102.84  3103.02  3103.78  3104.99  3108.01

   temp. (K)  partition function   enthalpy   heat capacity  entropy
                                   cal/mol     cal/K/mol   cal/K/mol   J/K/mol
 298.15  VIB  0.112E+28            35072.229    221.489    218.061
         ROT  0.231E+09              888.752      2.981     41.252
         INT  0.258E+36            35960.981    224.470    259.313
         TR   0.306E+29             1481.254      4.968     46.564
         TOT                       37442.2354   229.4382   305.8771  1279.7896

       T/K    H(0)-H(T)+PV         H(T)/Eh          T*S/Eh         G(T)/Eh
   ------------------------------------------------------------------------
    298.15    0.596680E-01    0.873655E+00    0.145332E+00    0.728323E+00
   ------------------------------------------------------------------------

         :::::::::::::::::::::::::::::::::::::::::::::::::::::
         ::                  THERMODYNAMIC                  ::
         :::::::::::::::::::::::::::::::::::::::::::::::::::::
         :: total free energy        -187.437203388730 Eh   ::
         ::.................................................::
         :: total energy             -188.165526434966 Eh   ::
         :: zero point energy           0.813987103194 Eh   ::
         :: G(RRHO) w/o ZPVE           -0.085664056957 Eh   ::
         :: G(RRHO) contrib.            0.728323046237 Eh   ::
         :::::::::::::::::::::::::::::::::::::::::::::::::::::

           -------------------------------------------------
          | TOTAL ENERGY             -188.165526434966 Eh   |
          | TOTAL ENTHALPY           -187.291871331613 Eh   |
          | TOTAL FREE ENERGY        -187.437203388730 Eh   |
          | GRADIENT NORM               0.000115192502 Eh/α |
          | HOMO-LUMO GAP               0.693218172866 eV   |
           -------------------------------------------------

 * finished run on 2025/07/16 at 21:10:40.444
