   * xtb version 6.7.1 (edcfbbe) compiled by 'albert@albert-system' on 2024-07-22

   ID    Z sym.   atoms
    1    7 N      1, 5, 19, 41, 43, 57
    2    6 C      2-4, 6-18, 20-27, 29-40, 42, 44-56, 58-65, 67-76
    3   16 S      28, 66
    4    1 H      77-112

          program call               : xtb data2507/toluene/2BTCz2CzTPN/2BTCz2CzTPN_toluene_S0_finalOpt.xtbopt.xyz --gfn 2 --uhf 2 --gbsa toluene --ohess vtight --parallel 40 --molden --ceasefiles --namespace data2507/toluene/2BTCz2CzTPN/2BTCz2CzTPN_toluene_T1_preOpt
      * Solvation model:               GBSA
        Solvent                        toluene
        Solvent mass                       9.2140E+01 g/mol
          :  Hamiltonian                  GFN2-xTB          :
 * total energy  :  -188.1595133 Eh     change       -0.3451566E-07 Eh
 * total energy  :  -188.1639275 Eh     change       -0.4414223E-02 Eh
 * total energy  :  -188.1651222 Eh     change       -0.1194647E-02 Eh
 * total energy  :  -188.1652231 Eh     change       -0.1008927E-03 Eh
 * total energy  :  -188.1653154 Eh     change       -0.9230642E-04 Eh
 * total energy  :  -188.1653481 Eh     change       -0.3275615E-04 Eh
 * total energy  :  -188.1653817 Eh     change       -0.3353077E-04 Eh
 * total energy  :  -188.1653967 Eh     change       -0.1503098E-04 Eh
 * total energy  :  -188.1654081 Eh     change       -0.1140688E-04 Eh
 * total energy  :  -188.1654183 Eh     change       -0.1022842E-04 Eh
 * total energy  :  -188.1655315 Eh     change       -0.2771552E-06 Eh
 * total energy  :  -188.1655318 Eh     change       -0.3420187E-06 Eh
 * total energy  :  -188.1655321 Eh     change       -0.3047711E-06 Eh
 * total energy  :  -188.1655324 Eh     change       -0.2875971E-06 Eh
 * total energy  :  -188.1655327 Eh     change       -0.3263463E-06 Eh
 * total energy  :  -188.1655330 Eh     change       -0.3107070E-06 Eh
 * total energy  :  -188.1655333 Eh     change       -0.2389395E-06 Eh
 * total energy  :  -188.1655335 Eh     change       -0.1908382E-06 Eh
 * total energy  :  -188.1655335 Eh     change       -0.1394659E-07 Eh
   *** GEOMETRY OPTIMIZATION CONVERGED AFTER 44 ITERATIONS ***

 final structure:
================
112
 xtb: 6.7.1 (edcfbbe)
N           -1.10558049436088       -2.14013342017024        2.77577985024397
C           -0.80392296245404       -1.33309101456490        2.00038019889198
C           -0.44950646406171       -0.36551754321881        1.07523306623657
C            0.92693136042480       -0.07902023845512        0.81116943842015
N            1.90947957095179       -0.88414067048454        1.40374714064769
C            2.06682428557382       -2.24011721560262        1.19863795573154
C            1.27079761254363       -3.12408685058339        0.48352526360378
C            1.67459249187822       -4.44350090359366        0.40907817427994
C            2.85043985167094       -4.87595972214987        1.01698122708256
C            3.66064496723075       -3.99487386958853        1.71105890332217
C            3.27081956156204       -2.66783323045156        1.80470815208430
C            3.85438686361257       -1.50503267435924        2.41984006951532
C            5.00889203574904       -1.28853716888026        3.15622836656862
C            5.25509582746529       -0.01620113511490        3.64264940429601
C            4.35302329298035        1.02165073237437        3.42834052791253
C            3.19768435058286        0.82947102711236        2.69304969073650
C            2.97329146151428       -0.43132253254682        2.16005012498450
C            1.28374754006607        0.98933949445693        0.01391435720593
N            2.63435706605527        1.24353554363608       -0.26730906251695
C            3.31811781385167        2.39961780859677        0.04778142336527
C            2.84559109244217        3.59334037917474        0.57566840797798
C            3.76084568660013        4.59726026308171        0.82311727234969
C            5.11976518251637        4.42061079799374        0.56661418743198
C            5.60228960246773        3.22744340997268        0.06336710488348
C            4.69855578425071        2.20698435413165       -0.19660821986406
C            4.83632580859779        0.86929477086641       -0.69378638297386
C            5.90265910008281        0.08072283160714       -1.10051836859345
S            7.58792366085901        0.50953804439640       -1.08489335680642
C            8.02061630552493       -1.06681813105646       -1.72869673677142
C            9.30301622093361       -1.50196465964756       -2.01142022098498
C            9.46676021382986       -2.77961451188241       -2.51825206922775
C            8.36724394984527       -3.60374894270101       -2.73510501670899
C            7.08849474662413       -3.16644883876403       -2.45124945679885
C            6.89724849415569       -1.88326136722275       -1.94353418318993
C            5.66993403861755       -1.22306378804821       -1.58378521928444
C            4.36398439065738       -1.70880757114896       -1.68710033133932
C            3.29185518263053       -0.94696247031180       -1.27589586217422
C            3.53713213246049        0.31700369766689       -0.74315803848286
C            0.28670566554613        1.83497876633666       -0.56940920903565
C            0.64034627139293        2.79330334148442       -1.50466636215598
N            0.93903186526548        3.58846424208846       -2.29313037165233
C           -1.08997239971693        1.55061326182493       -0.30238112671975
N           -2.07320002454198        2.35217368784294       -0.89735392297086
C           -3.13093186822473        1.89746660161613       -1.66042886322206
C           -3.36297292005792        0.62973364559892       -2.17346428480657
C           -4.50993593609052        0.43703642723632       -2.92175242629464
C           -5.39521114423738        1.48156297435207       -3.17004871753515
C           -5.13954694802844        2.76023977613737       -2.70498353548403
C           -3.99497015548764        2.97648848152604       -1.95376029952447
C           -3.40583543674587        4.14409574463431       -1.35258075278793
C           -3.78007365386200        5.47719808173196       -1.28994360243623
C           -2.96973462179062        6.36099142010595       -0.59890057442128
C           -1.80975705135127        5.92553591116300        0.03642498918242
C           -1.42118991481450        4.60019881591912       -0.00800542456058
C           -2.21665089147034        3.71351774950982       -0.72028975856911
C           -1.44636239956933        0.48378102143448        0.49620483150935
N           -2.79601552447969        0.23630706732153        0.78762509940249
C           -3.68728430983381        1.15534721628921        1.30479440792892
C           -3.44728409176793        2.41886935820878        1.82450520111508
C           -4.53088209068966        3.13988111506505        2.28956652293342
C           -5.82038231579508        2.61409430056833        2.25535872264124
C           -6.05926568158117        1.33609937795892        1.78428822826894
C           -4.98486095877311        0.59424423556595        1.31453843366804
C           -4.84915570494137       -0.73636037283318        0.79656306586685
C           -5.72813476340688       -1.77817779553202        0.54190418187919
S           -7.44727440586267       -1.78749188701323        0.81430720791138
C           -7.55993422464611       -3.42821334216990        0.20109827964537
C           -8.71912536584867       -4.17717312648633        0.10207933582933
C           -8.63068089324446       -5.46167614125795       -0.40498156271208
C           -7.40433147377879       -5.98481969790434       -0.80385205042816
C           -6.24948388257051       -5.23518323899958       -0.70422669573266
C           -6.31176534576730       -3.93849237347103       -0.19688847351743
C           -5.25104060860795       -2.98601194650051       -0.00489419823212
C           -3.89194803582692       -3.13104363538144       -0.30211463680485
C           -3.00359674069773       -2.10668136105719       -0.06482522072662
C           -3.48022059101129       -0.92148104398798        0.49467330605334
H            0.36088192884144       -2.79704667827389        0.00396862756087
H            1.06578229067583       -5.15115949070391       -0.13335112686494
H            3.13314543275786       -5.91480983807932        0.93873782168653
H            4.57838604404894       -4.32917660028835        2.16959614461583
H            5.69504916020008       -2.09845237030714        3.34993818619243
H            6.15121536104767        0.17394571812070        4.21346067922686
H            4.55423474200428        1.99640753987294        3.84604888567028
H            2.48947159701600        1.63214644698286        2.55322262615091
H            1.79643477108763        3.73855026194020        0.78164566045046
H            3.41513859843127        5.53773331792705        1.22485417174564
H            5.80332552204219        5.23048850266356        0.77097079421135
H            6.65519146950559        3.08427352372576       -0.12474960823417
H           10.15023422158635       -0.85647341760875       -1.83977090970947
H           10.45896444521217       -3.13800916675790       -2.74683340186608
H            8.51681470195544       -4.59730159175406       -3.13015773360632
H            6.23767699575378       -3.80862377218947       -2.61938395296974
H            4.19573521033770       -2.69198222346993       -2.09640853327562
H            2.28346791628010       -1.31600622151851       -1.37945157331492
H           -2.66553658999679       -0.17785930503519       -2.01044096705397
H           -4.71696313233258       -0.54317466460359       -3.32422753526341
H           -6.28467414713310        1.29171846994942       -3.75135008067131
H           -5.81140813854639        3.57479996850790       -2.92643492013701
H           -4.68585716509313        5.81460345049488       -1.76935583324365
H           -3.24036300859266        7.40450535741993       -0.54431751387118
H           -1.20123624284890        6.63527506242646        0.57632414668064
H           -0.52394855613293        4.27079066582882        0.49335453737272
H           -2.44783698514261        2.82254443688441        1.87864896465761
H           -4.37080608610227        4.12927894929577        2.69012562639951
H           -6.64204986197823        3.21059260099608        2.62104919913359
H           -7.05357205308825        0.91705075510092        1.78473951770253
H           -9.66521590832007       -3.76333847825327        0.41438555737616
H           -9.52317915938425       -6.06275703168320       -0.49003574298703
H           -7.35701456160396       -6.98957058341267       -1.19610165453941
H           -5.30026120932065       -5.64520572372075       -1.01298843133344
H           -3.54016667263350       -4.05752209222769       -0.72762618110172
H           -1.95851104276344       -2.22255137550043       -0.30489881144797

          :  Hamiltonian                  GFN2-xTB          :
         :: gradient norm              0.000076256359 Eh/a0 ::
         :: HOMO-LUMO gap              0.693113810003 eV    ::
         :: SCC energy              -191.662080858687 Eh    ::
         :: -> dispersion             -0.210122128303 Eh    ::
         :: -> Gsolv                  -0.082082686668 Eh    ::
         :: repulsion energy           3.496547366884 Eh    ::

    * Orbital Energies and Occupations

         #    Occupation            Energy/Eh            Energy/eV
      -------------------------------------------------------------
         1        2.0000           -0.7363380             -20.0368
       ...           ...                  ...                  ...
       164        2.0000           -0.4120189             -11.2116
       165        2.0000           -0.4098971             -11.1539
       166        2.0000           -0.4036108             -10.9828
       167        2.0000           -0.4019448             -10.9375
       168        2.0000           -0.3941684             -10.7259
       169        2.0000           -0.3940847             -10.7236
       170        1.9998           -0.3846615             -10.4672
       171        1.9993           -0.3833133             -10.4305
       172        1.9827           -0.3802398             -10.3469
       173        1.9653           -0.3795595             -10.3283
       174        1.7721           -0.3775599             -10.2739
       175        1.2807           -0.3755067             -10.2181
       176        1.0000           -0.2955976              -8.0436 (HOMO)
       177        0.0000           -0.2701265              -7.3505 (LUMO)
       178                         -0.2663437              -7.2476
       179                         -0.2622856              -7.1372
       180                         -0.2619719              -7.1286
       181                         -0.2610475              -7.1035
       182                         -0.2596512              -7.0655
       183                         -0.2524397              -6.8692
       184                         -0.2387297              -6.4962
       185                         -0.2382749              -6.4838
       186                         -0.2376227              -6.4660
       187                         -0.2374920              -6.4625
       ...                                ...                  ...
       350                          1.1649435              31.6997
      -------------------------------------------------------------
                  HL-Gap            0.0254712 Eh            0.6931 eV

     #   Z          covCN         q      C6AA      α(0)
     1   7 N        0.911    -0.358    29.215     7.817
     2   6 C        1.909     0.109    28.411     8.608
     3   6 C        2.965    -0.055    29.364     8.888
     4   6 C        2.911     0.043    27.036     8.526
     5   7 N        2.802    -0.041    22.038     6.972
     6   6 C        3.074     0.055    26.700     8.472
     7   6 C        2.910    -0.040    28.999     8.830
     8   6 C        2.923    -0.031    28.767     8.796
     9   6 C        2.920    -0.034    28.839     8.806
    10   6 C        2.912    -0.030    28.746     8.792
    11   6 C        3.068    -0.014    28.284     8.721
    12   6 C        3.066    -0.015    28.328     8.728
    13   6 C        2.913    -0.030    28.745     8.792
    14   6 C        2.920    -0.034    28.856     8.809
    15   6 C        2.924    -0.031    28.781     8.798
    16   6 C        2.910    -0.046    29.134     8.851
    17   6 C        3.076     0.050    26.798     8.487
    18   6 C        2.911     0.040    27.101     8.536
    19   7 N        2.805    -0.036    21.932     6.956
    20   6 C        3.079     0.055    26.675     8.467
    21   6 C        2.910    -0.039    28.972     8.826
    22   6 C        2.923    -0.029    28.728     8.790
    23   6 C        2.921    -0.031    28.785     8.798
    24   6 C        2.911    -0.030    28.737     8.790
    25   6 C        3.068    -0.011    28.212     8.709
    26   6 C        3.085    -0.026    28.550     8.759
    27   6 C        2.995     0.034    27.224     8.559
    28  16 S        2.207    -0.062   143.621    20.170
    29   6 C        3.003     0.037    27.168     8.550
    30   6 C        2.934    -0.035    28.881     8.814
    31   6 C        2.923    -0.027    28.685     8.783
    32   6 C        2.918    -0.032    28.786     8.798
    33   6 C        2.917    -0.030    28.738     8.791
    34   6 C        3.103    -0.001    27.911     8.657
    35   6 C        3.103    -0.006    28.044     8.678
    36   6 C        2.920    -0.035    28.877     8.812
    37   6 C        2.909    -0.048    29.196     8.860
    38   6 C        3.078     0.050    26.802     8.488
    39   6 C        2.965    -0.055    29.354     8.887
    40   6 C        1.909     0.109    28.410     8.608
    41   7 N        0.911    -0.356    29.167     7.811
    42   6 C        2.911     0.043    27.033     8.526
    43   7 N        2.802    -0.038    21.983     6.964
    44   6 C        3.076     0.050    26.799     8.488
    45   6 C        2.910    -0.046    29.144     8.852
    46   6 C        2.923    -0.032    28.790     8.799
    47   6 C        2.920    -0.034    28.850     8.808
    48   6 C        2.913    -0.029    28.732     8.790
    49   6 C        3.066    -0.014    28.295     8.722
    50   6 C        3.068    -0.013    28.267     8.718
    51   6 C        2.912    -0.029    28.731     8.789
    52   6 C        2.920    -0.033    28.818     8.803
    53   6 C        2.923    -0.030    28.753     8.793
    54   6 C        2.910    -0.039    28.974     8.826
    55   6 C        3.074     0.055    26.694     8.471
    56   6 C        2.911     0.040    27.107     8.537
    57   7 N        2.805    -0.035    21.916     6.953
    58   6 C        3.081     0.050    26.783     8.484
    59   6 C        2.910    -0.045    29.113     8.848
    60   6 C        2.924    -0.030    28.755     8.794
    61   6 C        2.921    -0.033    28.814     8.803
    62   6 C        2.912    -0.029    28.732     8.790
    63   6 C        3.066    -0.012    28.251     8.716
    64   6 C        3.088    -0.024    28.497     8.751
    65   6 C        2.994     0.035    27.213     8.557
    66  16 S        2.207    -0.065   143.743    20.179
    67   6 C        3.003     0.037    27.151     8.548
    68   6 C        2.934    -0.036    28.886     8.814
    69   6 C        2.923    -0.027    28.675     8.781
    70   6 C        2.918    -0.032    28.787     8.798
    71   6 C        2.917    -0.030    28.739     8.791
    72   6 C        3.104    -0.000    27.897     8.655
    73   6 C        3.103    -0.005    28.023     8.674
    74   6 C        2.919    -0.034    28.845     8.807
    75   6 C        2.909    -0.043    29.067     8.840
    76   6 C        3.074     0.055    26.697     8.472
    77   1 H        0.926     0.022     2.706     2.572
    78   1 H        0.926     0.043     2.408     2.427
    79   1 H        0.926     0.046     2.368     2.406
    80   1 H        0.926     0.047     2.360     2.402
    81   1 H        0.926     0.046     2.367     2.406
    82   1 H        0.926     0.046     2.376     2.410
    83   1 H        0.926     0.042     2.426     2.436
    84   1 H        0.926     0.024     2.667     2.554
    85   1 H        0.926     0.025     2.663     2.552
    86   1 H        0.926     0.046     2.375     2.410
    87   1 H        0.926     0.049     2.335     2.390
    88   1 H        0.926     0.051     2.306     2.375
    89   1 H        0.926     0.049     2.331     2.388
    90   1 H        0.926     0.048     2.341     2.393
    91   1 H        0.926     0.046     2.370     2.408
    92   1 H        0.926     0.046     2.376     2.411
    93   1 H        0.926     0.051     2.308     2.376
    94   1 H        0.926     0.032     2.559     2.502
    95   1 H        0.926     0.024     2.672     2.556
    96   1 H        0.926     0.040     2.446     2.446
    97   1 H        0.926     0.046     2.374     2.410
    98   1 H        0.926     0.048     2.346     2.395
    99   1 H        0.926     0.048     2.342     2.393
   100   1 H        0.926     0.047     2.359     2.402
   101   1 H        0.926     0.044     2.399     2.422
   102   1 H        0.926     0.023     2.695     2.567
   103   1 H        0.926     0.027     2.628     2.535
   104   1 H        0.926     0.044     2.392     2.419
   105   1 H        0.926     0.048     2.341     2.393
   106   1 H        0.926     0.051     2.308     2.376
   107   1 H        0.926     0.049     2.332     2.388
   108   1 H        0.926     0.048     2.340     2.392
   109   1 H        0.926     0.046     2.372     2.408
   110   1 H        0.926     0.046     2.377     2.411
   111   1 H        0.926     0.052     2.291     2.367
   112   1 H        0.926     0.029     2.598     2.521

molecular dipole:
                 x           y           z       tot (Debye)
 q only:        0.103      -1.166      -0.496
   full:        0.131      -1.414      -0.583       3.903

 projected vibrational frequencies (cm⁻¹)
eigval :       -0.00    -0.00    -0.00     0.00     0.00     0.00
eigval :        9.18    10.67    13.14    17.25    18.59    23.88
eigval :       26.05    35.39    37.24    45.09    48.26    56.29
eigval :       59.05    61.82    69.46    71.28    77.55    85.69
eigval :       91.66   104.02   106.90   110.41   113.00   114.81
eigval :      118.70   124.97   127.67   129.68   133.08   138.75
eigval :      143.84   147.39   156.61   158.61   177.67   180.85
eigval :      194.34   213.21   214.19   217.45   219.63   235.56
eigval :      249.17   256.21   264.30   267.92   273.32   274.63
eigval :      281.18   286.37   299.83   322.45   335.54   340.30
eigval :      364.03   366.75   379.00   382.18   385.98   391.82
eigval :      395.39   396.56   401.49   404.73   405.23   410.69
eigval :      415.57   419.83   420.69   420.99   430.07   433.25
eigval :      441.24   442.26   453.21   456.88   465.49   477.88
eigval :      479.32   488.17   489.51   493.10   494.32   500.24
eigval :      502.51   510.54   515.44   517.00   527.11   534.20
eigval :      538.00   538.17   540.18   542.53   547.74   558.23
eigval :      563.36   567.12   577.88   585.09   587.23   594.70
eigval :      596.52   599.15   600.85   616.77   627.76   629.88
eigval :      645.11   648.56   661.55   661.85   664.08   665.92
eigval :      671.72   671.81   682.19   687.97   689.21   690.77
eigval :      702.89   703.58   705.56   706.86   708.53   723.42
eigval :      728.14   749.92   753.32   762.42   763.52   763.92
eigval :      768.73   770.97   774.57   775.20   776.61   777.28
eigval :      801.68   806.76   810.55   823.69   835.05   835.47
eigval :      858.08   861.62   865.76   866.18   866.82   870.88
eigval :      871.12   874.79   876.71   887.39   891.28   896.44
eigval :      898.57   899.21   901.27   901.94   902.19   902.41
eigval :      903.39   905.46   911.93   916.06   916.11   919.77
eigval :      920.59   922.46   923.14   924.14   924.15   924.35
eigval :      928.97   977.16   994.29  1002.11  1011.00  1011.12
eigval :     1033.65  1043.18  1044.03  1064.80  1065.85  1066.70
eigval :     1068.71  1069.38  1069.70  1072.56  1074.75  1074.85
eigval :     1084.84  1106.43  1111.83  1121.46  1138.59  1140.37
eigval :     1141.54  1142.69  1144.71  1152.45  1153.76  1154.34
eigval :     1157.94  1173.24  1174.21  1175.24  1175.69  1176.41
eigval :     1177.55  1178.79  1180.94  1193.76  1212.27  1215.37
eigval :     1220.58  1227.71  1228.16  1230.46  1232.32  1241.60
eigval :     1242.49  1255.45  1256.80  1273.04  1275.89  1280.04
eigval :     1280.88  1283.67  1284.31  1292.04  1293.72  1305.29
eigval :     1310.14  1312.82  1313.53  1337.10  1339.25  1340.61
eigval :     1341.65  1343.25  1344.52  1348.66  1359.25  1360.36
eigval :     1364.20  1368.33  1378.00  1383.42  1392.92  1393.88
eigval :     1395.16  1400.41  1412.18  1412.88  1414.66  1416.34
eigval :     1421.97  1426.57  1438.88  1442.16  1451.00  1451.90
eigval :     1460.72  1460.99  1475.45  1477.66  1478.71  1480.96
eigval :     1481.24  1536.26  1537.89  1542.51  1543.94  1546.67
eigval :     1563.31  1565.16  1566.67  1566.76  1575.32  1576.42
eigval :     1579.75  1580.49  1581.23  1581.51  1582.12  1583.96
eigval :     1591.89  1593.09  1599.81  1603.45  2250.65  2294.64
eigval :     3080.97  3081.18  3082.29  3082.88  3082.92  3083.21
eigval :     3084.38  3085.38  3085.70  3086.40  3087.01  3087.61
eigval :     3088.85  3089.10  3089.20  3089.94  3092.17  3092.97
eigval :     3093.53  3093.95  3094.54  3094.68  3094.90  3096.23
eigval :     3096.28  3096.54  3099.60  3100.62  3101.33  3102.14
eigval :     3102.66  3102.94  3103.08  3103.86  3105.14  3108.07

   temp. (K)  partition function   enthalpy   heat capacity  entropy
                                   cal/mol     cal/K/mol   cal/K/mol   J/K/mol
 298.15  VIB  0.555E+27            35027.011    221.604    217.374
         ROT  0.231E+09              888.752      2.981     41.252
         INT  0.128E+36            35915.763    224.584    258.626
         TR   0.306E+29             1481.254      4.968     46.564
         TOT                       37397.0168   229.5526   305.1896  1276.9132

       T/K    H(0)-H(T)+PV         H(T)/Eh          T*S/Eh         G(T)/Eh
   ------------------------------------------------------------------------
    298.15    0.595959E-01    0.873737E+00    0.145005E+00    0.728732E+00
   ------------------------------------------------------------------------

         :::::::::::::::::::::::::::::::::::::::::::::::::::::
         ::                  THERMODYNAMIC                  ::
         :::::::::::::::::::::::::::::::::::::::::::::::::::::
         :: total free energy        -187.436801951336 Eh   ::
         ::.................................................::
         :: total energy             -188.165533494467 Eh   ::
         :: zero point energy           0.814141021091 Eh   ::
         :: G(RRHO) w/o ZPVE           -0.085409477960 Eh   ::
         :: G(RRHO) contrib.            0.728731543131 Eh   ::
         :::::::::::::::::::::::::::::::::::::::::::::::::::::

           -------------------------------------------------
          | TOTAL ENERGY             -188.165533494467 Eh   |
          | TOTAL ENTHALPY           -187.291796533613 Eh   |
          | TOTAL FREE ENERGY        -187.436801951336 Eh   |
          | GRADIENT NORM               0.000076398998 Eh/α |
          | HOMO-LUMO GAP               0.693106000368 eV   |
           -------------------------------------------------

 * finished run on 2025/07/16 at 20:58:56.925
