   * xtb version 6.7.1 (edcfbbe) compiled by 'albert@albert-system' on 2024-07-22

   ID    Z sym.   atoms
    1    7 N      1, 5, 19, 41, 43, 57
    2    6 C      2-4, 6-18, 20-27, 29-40, 42, 44-56, 58-65, 67-76
    3   16 S      28, 66
    4    1 H      77-112

          program call               : xtb data2507/toluene/2BTCz2CzTPN/2BTCz2CzTPN.xyz --gfn 2 --gbsa toluene --ohess vtight --parallel 40 --molden --ceasefiles --namespace data2507/toluene/2BTCz2CzTPN/2BTCz2CzTPN_toluene_S0_preOpt
      * Solvation model:               GBSA
        Solvent                        toluene
        Solvent mass                       9.2140E+01 g/mol
          :  Hamiltonian                  GFN2-xTB          :
 * total energy  :  -188.1726198 Eh     change       -0.2068901E-08 Eh
 * total energy  :  -188.2047043 Eh     change       -0.3208444E-01 Eh
 * total energy  :  -188.2146962 Eh     change       -0.9991920E-02 Eh
 * total energy  :  -188.2176905 Eh     change       -0.2994278E-02 Eh
 * total energy  :  -188.2199154 Eh     change       -0.2224922E-02 Eh
 * total energy  :  -188.2212323 Eh     change       -0.1316933E-02 Eh
 * total energy  :  -188.2220573 Eh     change       -0.8249846E-03 Eh
 * total energy  :  -188.2226561 Eh     change       -0.5987571E-03 Eh
 * total energy  :  -188.2230705 Eh     change       -0.4143910E-03 Eh
 * total energy  :  -188.2234613 Eh     change       -0.3907890E-03 Eh
 * total energy  :  -188.2302441 Eh     change       -0.5177772E-06 Eh
 * total energy  :  -188.2302445 Eh     change       -0.3483004E-06 Eh
 * total energy  :  -188.2302448 Eh     change       -0.3000539E-06 Eh
 * total energy  :  -188.2302450 Eh     change       -0.2880819E-06 Eh
 * total energy  :  -188.2302455 Eh     change       -0.4058397E-06 Eh
 * total energy  :  -188.2302459 Eh     change       -0.4703160E-06 Eh
 * total energy  :  -188.2302463 Eh     change       -0.4058542E-06 Eh
 * total energy  :  -188.2302466 Eh     change       -0.3169297E-06 Eh
 * total energy  :  -188.2302466 Eh     change       -0.1663381E-08 Eh
   *** GEOMETRY OPTIMIZATION CONVERGED AFTER 94 ITERATIONS ***

 final structure:
================
112
 xtb: 6.7.1 (edcfbbe)
N           -1.65760850692466       -0.90740622013985       -3.53140871656779
C           -1.17349800420152       -0.86396516522304       -2.49292262275615
C           -0.58041244702824       -0.80571393903589       -1.21019739179121
C            0.82084754375432       -0.81264717076816       -1.10215236900962
N            1.60835152865620       -0.90015995821921       -2.24598535886729
C            2.64529427447800       -0.04119230716117       -2.58306181057982
C            2.96945024617946        1.19243171955244       -2.04351165839158
C            4.04933802961675        1.86667401371960       -2.58382600541333
C            4.77310329167647        1.33788467045469       -3.64831922870907
C            4.41647568470248        0.13327731609755       -4.22387137473170
C            3.33707564004600       -0.56160873347981       -3.69617754829835
C            2.68234800736030       -1.79289049216184       -4.04975425305860
C            2.91584843587479       -2.74755880996493       -5.03010227652224
C            2.09384176009563       -3.85643468153733       -5.08308622486148
C            1.06057709395894       -4.02696599105024       -4.16642381696912
C            0.81178991953134       -3.09048297809394       -3.17930996752497
C            1.61817280097195       -1.96503678988382       -3.14015210748798
C            1.40610505436529       -0.73176573944185        0.17289720118953
N            2.79172180205141       -0.71327323517016        0.31950604296129
C            3.66798933615312       -1.64634984566070       -0.21549854569390
C            3.39703963875017       -2.88709901116156       -0.76763396627342
C            4.46942653674907       -3.64242371098535       -1.20530200641894
C            5.77807476598432       -3.18391682918279       -1.08001970589359
C            6.05483414058092       -1.96908712699543       -0.48368965473239
C            4.99218486631362       -1.19484009462079       -0.03729065686337
C            4.90310286179005        0.06724051285225        0.63897845879442
C            5.83021992999820        1.00799866212723        1.06797422614594
S            7.56349539021972        0.91637412107885        0.91120711263029
C            7.73927884409116        2.47430320562457        1.69728978067341
C            8.93644085195798        3.12106990750241        1.95441476926027
C            8.89704273000117        4.35026465506107        2.58509929573579
C            7.68183320292983        4.92115321293628        2.95254117019531
C            6.49049527745990        4.27394524395467        2.69589008641782
C            6.50310899604374        3.03424207776001        2.06084354067993
C            5.39650795663770        2.18790573104900        1.69442038339362
C            4.03041867343660        2.42161850047595        1.87489894977551
C            3.09210251986608        1.50492357033320        1.45278376938440
C            3.53469453191155        0.32978026857843        0.85311700090049
C            0.57764001161869       -0.67820626571618        1.30561720723583
C            1.17012897735097       -0.60343284486546        2.58776510249442
N            1.65182392117509       -0.53707276506619        3.62616241744226
C           -0.82364505647565       -0.69448670416920        1.19885437663519
N           -1.61011065983170       -0.66606303623895        2.34620030231629
C           -2.64742388031133        0.22160626606657        2.59658946679144
C           -2.97626262044187        1.39228060815491        1.93366847146231
C           -4.05686906908653        2.11572569209920        2.40453223863781
C           -4.77650534024129        1.69767169417684        3.51986429094907
C           -4.41458040079070        0.56017831986053        4.21601777892978
C           -3.33449656016985       -0.18257620984683        3.75979226649190
C           -2.67554636870471       -1.36917092974827        4.23677577427211
C           -2.90231917575173       -2.21632557732386        5.31286062778420
C           -2.07843371400252       -3.31289869418568        5.47688352239452
C           -1.04963607219022       -3.57700557975852        4.57755889889717
C           -0.80669340984591       -2.74784743784129        3.49741571579626
C           -1.61466716527943       -1.63307264760157        3.34555019114074
C           -1.40903969473090       -0.74217300971890       -0.07790859813804
N           -2.79455492482372       -0.73632796745867       -0.22540384733466
C           -3.67281621262134       -1.60867958932210        0.40113678834702
C           -3.40399341089198       -2.78566027656480        1.07951774834729
C           -4.47794204787090       -3.49389144427172        1.58661299079452
C           -5.78620734710100       -3.05276847780757        1.40743874260704
C           -6.06062891730096       -1.90443883557186        0.69041879245044
C           -4.99640248516532       -1.17886444078184        0.17172607100032
C           -4.90496358360536        0.00444446892793       -0.63434091955062
C           -5.83077550628150        0.89093889511513       -1.16890863073214
S           -7.56461660439393        0.81708613687604       -1.00872193772887
C           -7.73848858161402        2.26767481924100       -1.97877531798973
C           -8.93581624712779        2.87121859623199       -2.32473323278762
C           -8.89566633303835        4.01021083972194       -3.10656845645470
C           -7.67932529268856        4.53676149501007       -3.53191979943132
C           -6.48766416606208        3.93452148261132       -3.18360692848982
C           -6.50112313144864        2.78474972044978       -2.39739741580845
C           -5.39514703193166        1.99255119632769       -1.92364061202827
C           -4.02833680850293        2.20877795018680       -2.11926754247229
C           -3.09118041912293        1.34766791423394       -1.59080821942973
C           -3.53570960222413        0.24341255861872       -0.87008705936390
H            2.39883546930672        1.62439843777958       -1.23483791467352
H            4.32995259823657        2.82465876200691       -2.17234953857430
H            5.61422639026535        1.89019769067049       -4.03882853600992
H            4.95844463640672       -0.25976999222952       -5.06980773253544
H            3.72733783254146       -2.62304906966064       -5.73000461898371
H            2.25566875373088       -4.60860613752632       -5.84013927323894
H            0.43985699399070       -4.90855379037213       -4.22173074308433
H            0.01200154311343       -3.24338913397681       -2.46852142865498
H            2.38762955967029       -3.26182879471857       -0.84958961156503
H            4.28421347230037       -4.60840797425469       -1.64992769389488
H            6.58833391557677       -3.79967912902790       -1.43927873851794
H            7.06952937000419       -1.62483149021775       -0.35749594933948
H            9.87348451385123        2.67023633146318        1.66626052960466
H            9.81903333057178        4.87119219250561        2.79488317841358
H            7.67308201769950        5.88208939958250        3.44502535614770
H            5.55073061526874        4.71943325672436        2.98482983390860
H            3.70801260007446        3.33609460231871        2.34725386012817
H            2.03925807871014        1.70430647739909        1.58769940852498
H           -2.40896500740595        1.74009703553476        1.08308639261490
H           -4.34145909922884        3.02524352077061        1.89703593414539
H           -5.61840131926042        2.28498952074807        3.85354501157403
H           -4.95318194342031        0.25537082310643        5.09964088276850
H           -3.71087477819380       -2.02063527262345        5.99975102802850
H           -2.23558611508779       -3.98251034192425        6.30871979385353
H           -0.42782192989062       -4.44788823314080        4.72071665683772
H           -0.01015245739370       -2.97338011978417        2.80255615242261
H           -2.39496668103509       -3.14904015021967        1.20489502216570
H           -4.29380134354407       -4.40913390862143        2.12835988279621
H           -6.59799274029508       -3.63023312393882        1.82255207484535
H           -7.07505078160521       -1.57668162112601        0.52447258769061
H           -9.87352483364623        2.45461904545295       -1.99077209345198
H           -9.81777593778968        4.49487943624717       -3.38990405559682
H           -7.66993537892889        5.42707471003552       -4.14291836787815
H           -5.54693471573436        4.34516917774584       -3.51755819236248
H           -3.70447238995765        3.06608301278222       -2.68803085156694
H           -2.03785151346226        1.53470137120429       -1.73862203274808

          :  Hamiltonian                  GFN2-xTB          :
         :: gradient norm              0.000062254731 Eh/a0 ::
         :: HOMO-LUMO gap              1.368443415107 eV    ::
         :: SCC energy              -191.745016357476 Eh    ::
         :: -> dispersion             -0.209465650765 Eh    ::
         :: -> Gsolv                  -0.074140626848 Eh    ::
         :: repulsion energy           3.514769708427 Eh    ::

    * Orbital Energies and Occupations

         #    Occupation            Energy/Eh            Energy/eV
      -------------------------------------------------------------
         1        2.0000           -0.7308965             -19.8887
       ...           ...                  ...                  ...
       163        2.0000           -0.4195571             -11.4167
       164        2.0000           -0.4099686             -11.1558
       165        2.0000           -0.4092876             -11.1373
       166        2.0000           -0.4020623             -10.9407
       167        2.0000           -0.4009932             -10.9116
       168        2.0000           -0.3935458             -10.7089
       169        2.0000           -0.3934325             -10.7058
       170        2.0000           -0.3883790             -10.5683
       171        2.0000           -0.3827131             -10.4142
       172        2.0000           -0.3821674             -10.3993
       173        2.0000           -0.3791753             -10.3179
       174        2.0000           -0.3759388             -10.2298
       175        2.0000           -0.3756364             -10.2216 (HOMO)
       176                         -0.3253471              -8.8531 (LUMO)
       177                         -0.2891218              -7.8674
       178                         -0.2653535              -7.2206
       179                         -0.2631883              -7.1617
       180                         -0.2600961              -7.0776
       181                         -0.2588509              -7.0437
       182                         -0.2575195              -7.0075
       183                         -0.2574710              -7.0061
       184                         -0.2513549              -6.8397
       185                         -0.2406447              -6.5483
       186                         -0.2390585              -6.5051
       ...                                ...                  ...
       350                          1.1417419              31.0684
      -------------------------------------------------------------
                  HL-Gap            0.0502893 Eh            1.3684 eV

     #   Z          covCN         q      C6AA      α(0)
     1   7 N        0.911    -0.243    26.343     7.423
     2   6 C        1.912     0.132    27.869     8.526
     3   6 C        2.973    -0.011    28.278     8.723
     4   6 C        2.916     0.060    26.660     8.467
     5   7 N        2.800    -0.058    22.353     7.022
     6   6 C        3.067     0.048    26.853     8.497
     7   6 C        2.910    -0.050    29.244     8.867
     8   6 C        2.925    -0.031    28.778     8.797
     9   6 C        2.920    -0.037    28.908     8.817
    10   6 C        2.913    -0.031    28.772     8.796
    11   6 C        3.065    -0.014    28.294     8.722
    12   6 C        3.067    -0.013    28.273     8.719
    13   6 C        2.913    -0.031    28.762     8.794
    14   6 C        2.920    -0.037    28.910     8.817
    15   6 C        2.925    -0.030    28.759     8.795
    16   6 C        2.910    -0.048    29.186     8.859
    17   6 C        3.065     0.049    26.834     8.494
    18   6 C        2.917     0.059    26.675     8.469
    19   7 N        2.804    -0.055    22.300     7.014
    20   6 C        3.072     0.048    26.848     8.496
    21   6 C        2.910    -0.049    29.221     8.864
    22   6 C        2.925    -0.031    28.769     8.796
    23   6 C        2.921    -0.036    28.884     8.813
    24   6 C        2.913    -0.030    28.760     8.794
    25   6 C        3.065    -0.012    28.253     8.716
    26   6 C        3.086    -0.024    28.503     8.752
    27   6 C        2.996     0.034    27.226     8.559
    28  16 S        2.209    -0.088   144.741    20.249
    29   6 C        3.004     0.037    27.158     8.549
    30   6 C        2.935    -0.038    28.952     8.824
    31   6 C        2.923    -0.030    28.759     8.794
    32   6 C        2.918    -0.034    28.843     8.807
    33   6 C        2.917    -0.033    28.824     8.804
    34   6 C        3.106    -0.003    27.954     8.663
    35   6 C        3.103    -0.012    28.168     8.697
    36   6 C        2.921    -0.035    28.866     8.811
    37   6 C        2.909    -0.054    29.339     8.882
    38   6 C        3.064     0.048    26.850     8.497
    39   6 C        2.974    -0.011    28.278     8.723
    40   6 C        1.912     0.132    27.869     8.526
    41   7 N        0.911    -0.243    26.342     7.423
    42   6 C        2.916     0.060    26.661     8.467
    43   7 N        2.800    -0.057    22.348     7.021
    44   6 C        3.067     0.048    26.854     8.497
    45   6 C        2.910    -0.050    29.242     8.867
    46   6 C        2.925    -0.031    28.778     8.797
    47   6 C        2.920    -0.036    28.908     8.817
    48   6 C        2.913    -0.031    28.772     8.796
    49   6 C        3.065    -0.014    28.293     8.722
    50   6 C        3.067    -0.013    28.272     8.719
    51   6 C        2.913    -0.031    28.762     8.794
    52   6 C        2.920    -0.037    28.909     8.817
    53   6 C        2.925    -0.030    28.759     8.794
    54   6 C        2.910    -0.048    29.186     8.859
    55   6 C        3.065     0.049    26.835     8.495
    56   6 C        2.916     0.059    26.676     8.470
    57   7 N        2.804    -0.055    22.295     7.013
    58   6 C        3.072     0.048    26.849     8.496
    59   6 C        2.910    -0.049    29.221     8.864
    60   6 C        2.925    -0.031    28.769     8.796
    61   6 C        2.921    -0.035    28.883     8.813
    62   6 C        2.913    -0.030    28.760     8.794
    63   6 C        3.065    -0.012    28.252     8.716
    64   6 C        3.086    -0.024    28.502     8.752
    65   6 C        2.996     0.034    27.226     8.559
    66  16 S        2.209    -0.088   144.739    20.249
    67   6 C        3.004     0.037    27.158     8.549
    68   6 C        2.935    -0.038    28.952     8.824
    69   6 C        2.923    -0.030    28.759     8.794
    70   6 C        2.918    -0.034    28.842     8.807
    71   6 C        2.917    -0.033    28.824     8.804
    72   6 C        3.106    -0.003    27.954     8.663
    73   6 C        3.103    -0.011    28.167     8.696
    74   6 C        2.921    -0.035    28.866     8.811
    75   6 C        2.909    -0.054    29.339     8.882
    76   6 C        3.064     0.048    26.851     8.497
    77   1 H        0.926     0.018     2.771     2.603
    78   1 H        0.926     0.037     2.486     2.466
    79   1 H        0.926     0.043     2.414     2.430
    80   1 H        0.926     0.046     2.373     2.409
    81   1 H        0.926     0.046     2.366     2.405
    82   1 H        0.926     0.044     2.395     2.420
    83   1 H        0.926     0.041     2.429     2.437
    84   1 H        0.926     0.015     2.814     2.623
    85   1 H        0.926     0.020     2.730     2.584
    86   1 H        0.926     0.042     2.426     2.436
    87   1 H        0.926     0.045     2.384     2.414
    88   1 H        0.926     0.048     2.339     2.391
    89   1 H        0.926     0.044     2.398     2.422
    90   1 H        0.926     0.043     2.408     2.426
    91   1 H        0.926     0.041     2.436     2.441
    92   1 H        0.926     0.040     2.445     2.445
    93   1 H        0.926     0.047     2.352     2.398
    94   1 H        0.926     0.019     2.746     2.592
    95   1 H        0.926     0.018     2.770     2.603
    96   1 H        0.926     0.037     2.485     2.465
    97   1 H        0.926     0.043     2.413     2.429
    98   1 H        0.926     0.046     2.373     2.409
    99   1 H        0.926     0.046     2.365     2.405
   100   1 H        0.926     0.044     2.394     2.420
   101   1 H        0.926     0.041     2.429     2.437
   102   1 H        0.926     0.015     2.814     2.623
   103   1 H        0.926     0.020     2.729     2.583
   104   1 H        0.926     0.042     2.426     2.436
   105   1 H        0.926     0.045     2.383     2.414
   106   1 H        0.926     0.049     2.338     2.391
   107   1 H        0.926     0.044     2.398     2.422
   108   1 H        0.926     0.043     2.407     2.426
   109   1 H        0.926     0.041     2.436     2.441
   110   1 H        0.926     0.040     2.444     2.445
   111   1 H        0.926     0.047     2.351     2.398
   112   1 H        0.926     0.019     2.746     2.591

molecular dipole:
                 x           y           z       tot (Debye)
 q only:       -0.007       0.312      -0.023
   full:       -0.006       0.581      -0.039       1.480

 projected vibrational frequencies (cm⁻¹)
eigval :       -0.00    -0.00    -0.00    -0.00     0.00     0.00
eigval :        7.46    10.09    12.07    15.94    18.80    25.42
eigval :       28.43    34.27    37.02    45.13    49.14    56.72
eigval :       59.28    61.74    66.48    72.63    78.20    84.83
eigval :       90.22   107.16   107.86   111.47   118.49   120.57
eigval :      123.30   128.45   132.10   134.53   137.75   139.18
eigval :      142.38   146.63   159.82   161.27   184.00   185.09
eigval :      207.67   210.54   213.82   214.37   220.62   232.83
eigval :      249.30   259.57   262.85   269.15   273.45   276.38
eigval :      280.70   289.71   302.79   318.83   334.97   337.74
eigval :      358.15   365.70   379.51   384.40   387.14   393.32
eigval :      396.37   401.66   402.52   409.96   411.12   414.22
eigval :      416.04   421.23   424.01   427.00   433.31   433.88
eigval :      438.61   441.78   456.83   462.88   480.06   480.74
eigval :      488.03   488.88   494.41   495.13   505.98   506.39
eigval :      516.02   516.32   522.37   523.86   531.15   536.07
eigval :      541.04   541.88   543.02   547.83   557.06   559.59
eigval :      577.35   578.26   581.76   589.62   592.71   593.49
eigval :      594.01   603.17   612.72   634.91   639.86   645.18
eigval :      654.68   656.12   659.99   660.38   671.48   671.98
eigval :      672.88   680.76   687.28   687.37   693.31   698.51
eigval :      700.01   701.04   705.11   706.17   710.80   720.67
eigval :      741.81   742.32   754.22   758.19   769.53   770.23
eigval :      770.36   771.95   776.94   777.89   782.24   782.45
eigval :      809.92   811.83   813.95   815.11   836.47   836.84
eigval :      865.30   870.10   873.41   874.48   874.55   875.90
eigval :      876.29   876.97   877.18   891.22   893.07   893.43
eigval :      897.05   902.43   903.49   903.55   904.46   905.30
eigval :      905.41   905.48   907.18   916.46   922.36   922.37
eigval :      922.49   923.45   924.06   925.03   926.21   927.66
eigval :      935.25   976.06  1000.06  1004.50  1010.89  1011.66
eigval :     1040.10  1046.75  1047.03  1070.03  1070.68  1070.93
eigval :     1071.75  1073.11  1074.49  1074.67  1074.73  1077.44
eigval :     1088.52  1117.22  1120.22  1124.21  1146.49  1148.21
eigval :     1151.37  1151.65  1152.63  1153.17  1157.52  1158.77
eigval :     1166.51  1176.45  1177.09  1178.24  1178.79  1179.10
eigval :     1180.31  1181.23  1182.89  1195.86  1213.81  1218.13
eigval :     1228.41  1230.86  1231.64  1231.90  1235.84  1244.84
eigval :     1257.31  1262.79  1266.19  1270.76  1283.10  1288.16
eigval :     1288.45  1291.33  1292.30  1295.94  1300.28  1314.89
eigval :     1316.91  1336.60  1336.75  1346.78  1349.59  1355.69
eigval :     1356.21  1356.41  1357.66  1358.91  1359.67  1376.42
eigval :     1377.61  1390.84  1391.92  1404.66  1406.80  1411.09
eigval :     1413.00  1418.44  1422.36  1422.67  1425.78  1426.35
eigval :     1437.20  1440.12  1446.71  1454.50  1458.77  1459.09
eigval :     1470.13  1471.19  1479.60  1480.98  1483.97  1484.26
eigval :     1492.74  1495.82  1559.59  1559.89  1568.96  1569.18
eigval :     1576.12  1576.45  1577.51  1577.62  1585.31  1585.42
eigval :     1591.54  1592.01  1594.57  1594.61  1599.57  1599.66
eigval :     1607.21  1607.63  1611.15  1611.91  2360.25  2360.33
eigval :     3065.69  3066.85  3074.82  3077.87  3078.13  3078.65
eigval :     3079.39  3080.29  3080.36  3080.83  3085.18  3085.35
eigval :     3085.38  3085.61  3085.92  3086.24  3087.62  3087.68
eigval :     3092.43  3092.53  3092.54  3092.69  3093.68  3093.72
eigval :     3094.86  3095.49  3099.64  3099.84  3101.17  3101.23
eigval :     3101.65  3102.61  3103.37  3103.38  3103.82  3103.94

   temp. (K)  partition function   enthalpy   heat capacity  entropy
                                   cal/mol     cal/K/mol   cal/K/mol   J/K/mol
 298.15  VIB  0.482E+27            34795.572    220.333    216.079
         ROT  0.239E+09              888.752      2.981     41.321
         INT  0.115E+36            35684.324    223.314    257.400
         TR   0.306E+29             1481.254      4.968     46.564
         TOT                       37165.5780   228.2821   303.9640  1271.7853

       T/K    H(0)-H(T)+PV         H(T)/Eh          T*S/Eh         G(T)/Eh
   ------------------------------------------------------------------------
    298.15    0.592271E-01    0.876815E+00    0.144423E+00    0.732392E+00
   ------------------------------------------------------------------------

         :::::::::::::::::::::::::::::::::::::::::::::::::::::
         ::                  THERMODYNAMIC                  ::
         :::::::::::::::::::::::::::::::::::::::::::::::::::::
         :: total free energy        -187.497854988371 Eh   ::
         ::.................................................::
         :: total energy             -188.230246648877 Eh   ::
         :: zero point energy           0.817587641594 Eh   ::
         :: G(RRHO) w/o ZPVE           -0.085195981088 Eh   ::
         :: G(RRHO) contrib.            0.732391660506 Eh   ::
         :::::::::::::::::::::::::::::::::::::::::::::::::::::

           -------------------------------------------------
          | TOTAL ENERGY             -188.230246648877 Eh   |
          | TOTAL ENTHALPY           -187.353431888824 Eh   |
          | TOTAL FREE ENERGY        -187.497854988371 Eh   |
          | GRADIENT NORM               0.000062117704 Eh/α |
          | HOMO-LUMO GAP               1.368441172843 eV   |
           -------------------------------------------------

 * finished run on 2025/07/16 at 20:49:51.456
