   * xtb version 6.7.1 (edcfbbe) compiled by 'albert@albert-system' on 2024-07-22

   ID    Z sym.   atoms
    1    7 N      1, 5, 19, 41, 43, 57
    2    6 C      2-4, 6-18, 20-27, 29-40, 42, 44-56, 58-65, 67-76
    3   16 S      28, 66
    4    1 H      77-112

          program call               : xtb data2507/toluene/2BTCz2CzTPN/2BTCz2CzTPN_toluene_S0_crest.xyz --gfn 2 --gbsa toluene --ohess vtight --parallel 40 --molden --ceasefiles --namespace data2507/toluene/2BTCz2CzTPN/2BTCz2CzTPN_toluene_S0_finalOpt
      * Solvation model:               GBSA
        Solvent                        toluene
        Solvent mass                       9.2140E+01 g/mol
          :  Hamiltonian                  GFN2-xTB          :
 * total energy  :  -188.2298571 Eh     change       -0.2946379E-07 Eh
 * total energy  :  -188.2300175 Eh     change       -0.1603910E-03 Eh
 * total energy  :  -188.2301694 Eh     change       -0.1518607E-03 Eh
 * total energy  :  -188.2302507 Eh     change       -0.8129668E-04 Eh
 * total energy  :  -188.2303944 Eh     change       -0.1437364E-03 Eh
 * total energy  :  -188.2305440 Eh     change       -0.1496293E-03 Eh
 * total energy  :  -188.2306798 Eh     change       -0.1358141E-03 Eh
 * total energy  :  -188.2307939 Eh     change       -0.1140163E-03 Eh
 * total energy  :  -188.2308987 Eh     change       -0.1048641E-03 Eh
 * total energy  :  -188.2309907 Eh     change       -0.9195376E-04 Eh
 * total energy  :  -188.2315310 Eh     change       -0.1833353E-06 Eh
 * total energy  :  -188.2315311 Eh     change       -0.1330000E-06 Eh
 * total energy  :  -188.2315313 Eh     change       -0.1136156E-06 Eh
 * total energy  :  -188.2315314 Eh     change       -0.1084017E-06 Eh
 * total energy  :  -188.2315315 Eh     change       -0.1098809E-06 Eh
 * total energy  :  -188.2315316 Eh     change       -0.1060592E-06 Eh
 * total energy  :  -188.2315317 Eh     change       -0.1079887E-06 Eh
 * total energy  :  -188.2315318 Eh     change       -0.1099030E-06 Eh
 * total energy  :  -188.2315319 Eh     change       -0.9279560E-07 Eh
   *** GEOMETRY OPTIMIZATION CONVERGED AFTER 91 ITERATIONS ***

 final structure:
================
112
 xtb: 6.7.1 (edcfbbe)
N           -1.09368469755626       -2.07618910088771        2.79605850618176
C           -0.80409367664875       -1.31318410990159        1.99064675843102
C           -0.44424999614487       -0.32360658730354        1.04675103040479
C            0.91818127959269       -0.08569841136577        0.79852550685922
N            1.88323409075423       -0.90333935365809        1.37799591012620
C            2.00926317735279       -2.27451039716490        1.18524725553048
C            1.17992652856266       -3.15127727648150        0.50642944056880
C            1.55914082083079       -4.47936158696731        0.43644116838823
C            2.74336310365629       -4.92469619308068        1.01586334317536
C            3.58707687140694       -4.04863795438777        1.67097279769501
C            3.22287990575070       -2.71190661576197        1.75591264897101
C            3.85210852975280       -1.55388875332337        2.33222574337521
C            5.03608084739403       -1.35800779561631        3.02965176759673
C            5.33069235673668       -0.08835888861830        3.48852760618024
C            4.44677327271001        0.96832036186596        3.29134701297972
C            3.26242240457885        0.79560281771167        2.59857437312540
C            2.99359194121315       -0.46276849193167        2.08621676712383
C            1.28089379417713        0.99715653633393       -0.02269311521817
N            2.61744957263168        1.26093638619001       -0.31007523071248
C            3.29862074044286        2.43475177185439       -0.00867536683300
C            2.81897719320348        3.63456919578097        0.48821036095959
C            3.73018521554331        4.64702750487359        0.72694701931423
C            5.09015405610612        4.46840327480802        0.48972908299692
C            5.57834206668406        3.26466055105959        0.02089494077086
C            4.67848029442013        2.23660897358813       -0.22674762156123
C            4.83054380948145        0.88641057969552       -0.68720398180209
C            5.91016010663736        0.09789750462570       -1.06223081009928
S            7.59380742774596        0.54650549389532       -1.03965917241722
C            8.04766139471289       -1.04024066954851       -1.63344405876638
C            9.33875127898822       -1.47090484726175       -1.88932536174750
C            9.52120747027173       -2.75834609509575       -2.35783197051587
C            8.43196926088522       -3.60006913981610       -2.56470444008496
C            7.14665204825669       -3.16840736028415       -2.30855145568179
C            6.93586776816745       -1.87387152504079       -1.83954188274329
C            5.69716619282818       -1.21584577900820       -1.51257851964300
C            4.39694635814972       -1.71627674063744       -1.62103814259361
C            3.31223514700751       -0.95457902061477       -1.24550051895729
C            3.54123047766871        0.32093004072140       -0.73951849650515
C            0.27207021758655        1.80412831295417       -0.57430636098355
C            0.63036172509109        2.78868646571448       -1.52402316976825
N            0.91671261142874        3.54435716034271       -2.33743946714613
C           -1.09069861575432        1.56658925919191       -0.32485479986797
N           -2.05736842552887        2.38096466200653       -0.90472656838635
C           -3.16342067806131        1.93888848067549       -1.61837436073481
C           -3.43564008143229        0.67665405874918       -2.11921644628594
C           -4.61487121980511        0.50309959123713       -2.82060319484164
C           -5.48991572028611        1.56296908265277       -3.03841906543029
C           -5.19098089955190        2.83588170800560       -2.59155110179939
C           -4.01265656035119        3.03244366445845       -1.88502464149353
C           -3.38187599479320        4.19313353293075       -1.31561646902614
C           -3.73841137547897        5.53296851864853       -1.24837861719827
C           -2.89730849506195        6.41008099075453       -0.59139657976688
C           -1.72347700762076        5.96319398323249        0.00766216690121
C           -1.35110399096109        4.63249947484868       -0.04610601605880
C           -2.17733565944948        3.75468470418570       -0.72729405114295
C           -1.45277339540767        0.48437223827361        0.49608295863801
N           -2.78934654854470        0.22465386328626        0.78784537450277
C           -3.70386045149316        1.15455917240664        1.26190103073761
C           -3.48245502579735        2.42631594026327        1.76321955393846
C           -4.58048085126470        3.14645761738067        2.19646988655761
C           -5.86358405205840        2.60813366734641        2.15204104196662
C           -6.08156321225446        1.32021466035977        1.70288914610415
C           -4.99205169127086        0.58040473275742        1.26282695748950
C           -4.83962394052429       -0.76012542629594        0.77491496767754
C           -5.71406558847217       -1.80986963830150        0.52576529467146
S           -7.43874597821558       -1.81659413246599        0.77577687641069
C           -7.53976407966759       -3.46655705784216        0.19039894830227
C           -8.69755052503103       -4.21945804274706        0.08869303652476
C           -8.60142903229533       -5.51045484883031       -0.39529937548888
C           -7.36900650661885       -6.03814525933013       -0.76987450881769
C           -6.21699510935889       -5.28553060709962       -0.66730801661963
C           -6.28703638270657       -3.98155893457612       -0.18242483672937
C           -5.22928718383703       -3.02246791614001        0.00823239322959
C           -3.86739821871321       -3.16842755521908       -0.26879414238026
C           -2.98335238940980       -2.13854081521519       -0.03241768541348
C           -3.46981504509349       -0.94984142392831        0.50169936549044
H            0.26436406783491       -2.81928723304229        0.03951838088688
H            0.92222706399529       -5.18130217301496       -0.08052870908196
H            3.00538413826168       -5.96930994556578        0.94351686655719
H            4.51366941174553       -4.38962284567910        2.10590585832350
H            5.70537922621627       -2.18427011691937        3.21254657503638
H            6.25007181093644        0.08723887710197        4.02601344985889
H            4.68455749073181        1.94302482603838        3.68950064853523
H            2.57212149132440        1.61663588448431        2.47500900276756
H            1.76885658908830        3.78559027613959        0.68896218987676
H            3.37590078578791        5.59355223390505        1.10634952091104
H            5.77056227202496        5.28321915249729        0.68435612160529
H            6.63328565707441        3.11538806205872       -0.14945555682451
H           10.17704306148774       -0.81154156140997       -1.72562089353512
H           10.51951349022134       -3.11331781077861       -2.56500472996038
H            8.59682081794358       -4.60267313951523       -2.93025412542762
H            6.30430401586760       -3.82404107746182       -2.46879894196767
H            4.24309321869825       -2.71111536987657       -2.00764603079162
H            2.31004893221753       -1.33937221962672       -1.35465554477916
H           -2.75113559517677       -0.14698561481866       -1.98170435076307
H           -4.85513346209740       -0.47473385028969       -3.21031506796751
H           -6.40510408671987        1.38695787390940       -3.58295645482749
H           -5.85240231639630        3.66427684000932       -2.79172222904328
H           -4.65718630790119        5.87558002041025       -1.69821615674395
H           -3.15355795991983        7.45689918642343       -0.53222108881601
H           -1.08936826474472        6.66594906935705        0.52686364887710
H           -0.44404948082258        4.29891420903107        0.43613838573401
H           -2.48913095172543        2.84410594306755        1.82748529590281
H           -4.43481061147174        4.14477980087194        2.58014319440180
H           -6.69654216825478        3.20361347355462        2.49312492361757
H           -7.07039960714016        0.88859578040837        1.69749406553444
H           -9.64784620933347       -3.80097327510273        0.38217204836961
H           -9.49183881655315       -6.11466808187060       -0.48219636586397
H           -7.31557041856789       -7.04914051825303       -1.14546844755723
H           -5.26344132765393       -5.69971078562217       -0.95747177735188
H           -3.50706153211211       -4.09922066654307       -0.67769589401684
H           -1.93652982000408       -2.25874798573612       -0.26614585856133

          :  Hamiltonian                  GFN2-xTB          :
         :: gradient norm              0.000037780642 Eh/a0 ::
         :: HOMO-LUMO gap              1.409208773893 eV    ::
         :: SCC energy              -191.747965152713 Eh    ::
         :: -> dispersion             -0.211803320016 Eh    ::
         :: -> Gsolv                  -0.073885655676 Eh    ::
         :: repulsion energy           3.516433258296 Eh    ::

    * Orbital Energies and Occupations

         #    Occupation            Energy/Eh            Energy/eV
      -------------------------------------------------------------
         1        2.0000           -0.7311725             -19.8962
       ...           ...                  ...                  ...
       163        2.0000           -0.4197324             -11.4215
       164        2.0000           -0.4104623             -11.1692
       165        2.0000           -0.4095787             -11.1452
       166        2.0000           -0.4026541             -10.9568
       167        2.0000           -0.4014966             -10.9253
       168        2.0000           -0.3939424             -10.7197
       169        2.0000           -0.3936381             -10.7114
       170        2.0000           -0.3889001             -10.5825
       171        2.0000           -0.3841592             -10.4535
       172        2.0000           -0.3825784             -10.4105
       173        2.0000           -0.3785929             -10.3020
       174        2.0000           -0.3762146             -10.2373
       175        2.0000           -0.3756848             -10.2229 (HOMO)
       176                         -0.3238971              -8.8137 (LUMO)
       177                         -0.2881276              -7.8404
       178                         -0.2655799              -7.2268
       179                         -0.2633410              -7.1659
       180                         -0.2605886              -7.0910
       181                         -0.2594233              -7.0593
       182                         -0.2579216              -7.0184
       183                         -0.2577796              -7.0145
       184                         -0.2498113              -6.7977
       185                         -0.2397154              -6.5230
       186                         -0.2384095              -6.4875
       ...                                ...                  ...
       350                          1.1417917              31.0697
      -------------------------------------------------------------
                  HL-Gap            0.0517877 Eh            1.4092 eV

     #   Z          covCN         q      C6AA      α(0)
     1   7 N        0.911    -0.246    26.407     7.432
     2   6 C        1.914     0.132    27.871     8.526
     3   6 C        2.974    -0.011    28.288     8.724
     4   6 C        2.916     0.058    26.691     8.472
     5   7 N        2.799    -0.057    22.337     7.019
     6   6 C        3.065     0.049    26.830     8.494
     7   6 C        2.911    -0.047    29.170     8.856
     8   6 C        2.924    -0.031    28.772     8.796
     9   6 C        2.920    -0.037    28.918     8.819
    10   6 C        2.913    -0.031    28.762     8.794
    11   6 C        3.067    -0.013    28.278     8.720
    12   6 C        3.065    -0.015    28.308     8.725
    13   6 C        2.913    -0.031    28.776     8.796
    14   6 C        2.920    -0.036    28.902     8.816
    15   6 C        2.925    -0.031    28.772     8.796
    16   6 C        2.910    -0.049    29.224     8.864
    17   6 C        3.068     0.048    26.857     8.498
    18   6 C        2.917     0.058    26.700     8.473
    19   7 N        2.802    -0.053    22.272     7.009
    20   6 C        3.069     0.049    26.829     8.493
    21   6 C        2.911    -0.046    29.153     8.854
    22   6 C        2.924    -0.030    28.752     8.793
    23   6 C        2.921    -0.035    28.877     8.812
    24   6 C        2.913    -0.030    28.743     8.791
    25   6 C        3.067    -0.011    28.222     8.711
    26   6 C        3.083    -0.025    28.524     8.755
    27   6 C        2.997     0.033    27.242     8.562
    28  16 S        2.208    -0.088   144.735    20.248
    29   6 C        3.003     0.037    27.157     8.548
    30   6 C        2.934    -0.038    28.950     8.824
    31   6 C        2.923    -0.030    28.757     8.794
    32   6 C        2.918    -0.034    28.840     8.806
    33   6 C        2.917    -0.033    28.819     8.803
    34   6 C        3.106    -0.003    27.954     8.663
    35   6 C        3.104    -0.012    28.170     8.697
    36   6 C        2.921    -0.036    28.885     8.813
    37   6 C        2.910    -0.055    29.370     8.886
    38   6 C        3.069     0.047    26.870     8.500
    39   6 C        2.974    -0.011    28.288     8.724
    40   6 C        1.914     0.132    27.878     8.527
    41   7 N        0.911    -0.245    26.379     7.428
    42   6 C        2.916     0.059    26.685     8.471
    43   7 N        2.800    -0.056    22.313     7.016
    44   6 C        3.068     0.048    26.858     8.498
    45   6 C        2.910    -0.050    29.232     8.866
    46   6 C        2.925    -0.031    28.778     8.797
    47   6 C        2.920    -0.036    28.906     8.817
    48   6 C        2.913    -0.031    28.771     8.796
    49   6 C        3.065    -0.014    28.288     8.722
    50   6 C        3.067    -0.013    28.270     8.719
    51   6 C        2.913    -0.030    28.757     8.794
    52   6 C        2.920    -0.037    28.910     8.817
    53   6 C        2.924    -0.031    28.764     8.795
    54   6 C        2.911    -0.047    29.164     8.855
    55   6 C        3.065     0.049    26.836     8.495
    56   6 C        2.917     0.058    26.705     8.474
    57   7 N        2.803    -0.053    22.259     7.007
    58   6 C        3.072     0.048    26.853     8.497
    59   6 C        2.910    -0.049    29.212     8.863
    60   6 C        2.925    -0.031    28.766     8.796
    61   6 C        2.921    -0.035    28.880     8.813
    62   6 C        2.913    -0.030    28.759     8.794
    63   6 C        3.065    -0.012    28.248     8.715
    64   6 C        3.086    -0.024    28.502     8.751
    65   6 C        2.996     0.034    27.225     8.559
    66  16 S        2.209    -0.088   144.730    20.248
    67   6 C        3.004     0.037    27.157     8.548
    68   6 C        2.935    -0.038    28.950     8.824
    69   6 C        2.923    -0.030    28.757     8.794
    70   6 C        2.918    -0.034    28.842     8.807
    71   6 C        2.917    -0.033    28.824     8.804
    72   6 C        3.105    -0.003    27.955     8.663
    73   6 C        3.104    -0.012    28.168     8.697
    74   6 C        2.921    -0.035    28.873     8.812
    75   6 C        2.910    -0.053    29.318     8.879
    76   6 C        3.065     0.048    26.853     8.497
    77   1 H        0.926     0.013     2.849     2.640
    78   1 H        0.926     0.041     2.432     2.439
    79   1 H        0.926     0.044     2.399     2.422
    80   1 H        0.926     0.045     2.378     2.412
    81   1 H        0.926     0.044     2.392     2.418
    82   1 H        0.926     0.043     2.406     2.425
    83   1 H        0.926     0.040     2.447     2.446
    84   1 H        0.926     0.019     2.752     2.594
    85   1 H        0.926     0.015     2.807     2.620
    86   1 H        0.926     0.044     2.401     2.423
    87   1 H        0.926     0.046     2.372     2.409
    88   1 H        0.926     0.049     2.328     2.386
    89   1 H        0.926     0.044     2.397     2.421
    90   1 H        0.926     0.043     2.405     2.425
    91   1 H        0.926     0.041     2.432     2.438
    92   1 H        0.926     0.041     2.441     2.443
    93   1 H        0.926     0.046     2.370     2.408
    94   1 H        0.926     0.023     2.691     2.565
    95   1 H        0.926     0.018     2.770     2.603
    96   1 H        0.926     0.037     2.483     2.464
    97   1 H        0.926     0.043     2.411     2.428
    98   1 H        0.926     0.046     2.370     2.407
    99   1 H        0.926     0.046     2.366     2.405
   100   1 H        0.926     0.044     2.394     2.420
   101   1 H        0.926     0.042     2.424     2.435
   102   1 H        0.926     0.013     2.843     2.637
   103   1 H        0.926     0.020     2.726     2.582
   104   1 H        0.926     0.042     2.423     2.434
   105   1 H        0.926     0.045     2.380     2.413
   106   1 H        0.926     0.049     2.337     2.390
   107   1 H        0.926     0.044     2.399     2.422
   108   1 H        0.926     0.043     2.407     2.426
   109   1 H        0.926     0.041     2.435     2.440
   110   1 H        0.926     0.040     2.442     2.444
   111   1 H        0.926     0.048     2.350     2.397
   112   1 H        0.926     0.017     2.780     2.607

molecular dipole:
                 x           y           z       tot (Debye)
 q only:        0.086      -0.408      -0.172
   full:        0.115      -0.725      -0.281       1.998

 projected vibrational frequencies (cm⁻¹)
eigval :       -0.00    -0.00    -0.00    -0.00     0.00     0.00
eigval :        9.67    12.04    14.02    20.00    24.63    28.61
eigval :       31.39    34.89    42.07    45.34    50.51    57.29
eigval :       59.95    63.54    71.36    74.56    78.85    87.62
eigval :       95.74   106.38   108.68   111.44   115.25   117.69
eigval :      120.13   128.39   131.41   131.83   135.28   141.79
eigval :      144.20   151.46   159.76   160.69   183.75   187.04
eigval :      199.48   212.27   216.25   217.72   220.54   239.45
eigval :      255.03   260.01   265.94   272.03   276.07   277.39
eigval :      282.14   288.55   303.08   322.44   341.12   341.23
eigval :      360.21   362.49   378.88   384.53   386.59   398.24
eigval :      398.77   400.92   402.17   406.10   408.76   413.83
eigval :      415.82   419.32   421.30   424.17   432.76   438.38
eigval :      442.38   445.07   457.77   463.14   480.37   481.01
eigval :      489.88   491.62   495.25   495.61   507.01   507.20
eigval :      516.60   516.94   522.96   525.09   531.98   538.89
eigval :      542.30   543.05   543.75   545.03   562.28   564.81
eigval :      576.62   579.20   581.74   590.60   594.19   595.07
eigval :      596.63   600.71   615.11   630.39   633.74   644.56
eigval :      654.88   658.23   661.08   661.29   671.70   672.47
eigval :      672.52   682.43   687.36   688.24   693.58   696.17
eigval :      701.60   702.16   705.30   706.66   710.23   727.20
eigval :      730.21   750.63   754.46   763.01   765.45   766.45
eigval :      770.31   771.24   773.40   777.95   781.56   782.07
eigval :      804.10   807.43   812.55   826.50   836.50   836.81
eigval :      859.96   862.89   868.42   869.88   871.61   874.22
eigval :      876.04   876.54   877.68   888.11   891.79   897.47
eigval :      899.17   901.31   902.13   902.35   904.67   904.85
eigval :      904.99   905.39   906.98   919.50   920.07   920.27
eigval :      921.15   923.27   924.24   926.39   927.07   927.55
eigval :      934.49   978.74   996.77  1004.16  1012.08  1012.52
eigval :     1041.20  1046.85  1047.10  1070.02  1070.43  1071.17
eigval :     1073.37  1073.48  1073.66  1074.70  1075.48  1078.04
eigval :     1088.97  1116.91  1119.41  1125.15  1145.12  1147.98
eigval :     1148.66  1149.73  1151.24  1153.35  1157.78  1158.63
eigval :     1166.38  1176.24  1176.88  1177.31  1178.49  1178.89
eigval :     1179.63  1180.43  1181.94  1197.44  1215.19  1216.84
eigval :     1227.71  1230.50  1231.32  1231.92  1236.36  1245.79
eigval :     1257.32  1262.46  1265.54  1271.61  1282.75  1287.10
eigval :     1288.65  1291.12  1292.05  1296.32  1300.27  1314.80
eigval :     1318.07  1336.60  1337.01  1346.40  1349.44  1356.14
eigval :     1356.53  1356.77  1358.07  1358.87  1359.71  1376.05
eigval :     1377.85  1391.52  1394.05  1404.90  1406.72  1410.95
eigval :     1413.16  1418.41  1422.17  1422.51  1426.11  1426.88
eigval :     1437.31  1442.55  1446.22  1454.11  1459.03  1459.27
eigval :     1470.35  1471.19  1480.30  1481.04  1484.26  1484.46
eigval :     1494.51  1497.62  1560.26  1560.69  1569.73  1569.76
eigval :     1576.43  1576.89  1577.76  1577.95  1585.23  1585.75
eigval :     1591.80  1592.36  1594.67  1594.80  1600.07  1600.18
eigval :     1607.44  1607.89  1611.66  1612.51  2360.78  2361.44
eigval :     3072.53  3072.63  3076.58  3079.22  3079.34  3079.88
eigval :     3080.40  3082.87  3083.58  3084.81  3085.09  3085.35
eigval :     3085.87  3086.23  3086.80  3087.57  3088.24  3090.54
eigval :     3091.97  3092.20  3092.67  3092.75  3093.89  3093.96
eigval :     3094.76  3095.63  3099.51  3100.08  3100.82  3100.87
eigval :     3102.06  3103.25  3103.32  3103.64  3103.72  3105.92

   temp. (K)  partition function   enthalpy   heat capacity  entropy
                                   cal/mol     cal/K/mol   cal/K/mol   J/K/mol
 298.15  VIB  0.936E+26            34701.620    220.643    214.525
         ROT  0.231E+09              888.752      2.981     41.250
         INT  0.216E+35            35590.373    223.624    255.775
         TR   0.306E+29             1481.254      4.968     46.564
         TOT                       37071.6267   228.5923   302.3386  1264.9847

       T/K    H(0)-H(T)+PV         H(T)/Eh          T*S/Eh         G(T)/Eh
   ------------------------------------------------------------------------
    298.15    0.590774E-01    0.876957E+00    0.143651E+00    0.733306E+00
   ------------------------------------------------------------------------

         :::::::::::::::::::::::::::::::::::::::::::::::::::::
         ::                  THERMODYNAMIC                  ::
         :::::::::::::::::::::::::::::::::::::::::::::::::::::
         :: total free energy        -187.498225989995 Eh   ::
         ::.................................................::
         :: total energy             -188.231531899855 Eh   ::
         :: zero point energy           0.817879332679 Eh   ::
         :: G(RRHO) w/o ZPVE           -0.084573422819 Eh   ::
         :: G(RRHO) contrib.            0.733305909859 Eh   ::
         :::::::::::::::::::::::::::::::::::::::::::::::::::::

           -------------------------------------------------
          | TOTAL ENERGY             -188.231531899855 Eh   |
          | TOTAL ENTHALPY           -187.354575169609 Eh   |
          | TOTAL FREE ENERGY        -187.498225989995 Eh   |
          | GRADIENT NORM               0.000037673160 Eh/α |
          | HOMO-LUMO GAP               1.409216272513 eV   |
           -------------------------------------------------

 * finished run on 2025/07/16 at 20:58:36.708
