   * xtb version 6.7.1 (edcfbbe) compiled by 'albert@albert-system' on 2024-07-22

   ID    Z sym.   atoms
    1    7 N      1, 11, 19, 23
    2    6 C      2-10, 12-18, 20-22, 24-29, 31-38
    3    8 O      30
    4    1 H      39-56

          program call               : xtb data2507/gas/oPTBC/oPTBC_gas_T1_crest.xyz --gfn 2 --spinpol --tblite --uhf 2 --ohess vtight --parallel 40 --molden --ceasefiles --namespace data2507/gas/oPTBC/oPTBC_gas_T1_finalOpt
 * total energy  :   -95.4285648 Eh     change        0.1891314E-07 Eh
 * total energy  :   -95.4285699 Eh     change       -0.5082173E-05 Eh
 * total energy  :   -95.4285714 Eh     change       -0.1526012E-05 Eh
 * total energy  :   -95.4285732 Eh     change       -0.1775769E-05 Eh
 * total energy  :   -95.4285741 Eh     change       -0.9570917E-06 Eh
 * total energy  :   -95.4285749 Eh     change       -0.7563915E-06 Eh
 * total energy  :   -95.4285749 Eh     change       -0.9577519E-08 Eh
 * total energy  :   -95.4285757 Eh     change       -0.8271244E-06 Eh
 * total energy  :   -95.4285760 Eh     change       -0.2464782E-06 Eh
 * total energy  :   -95.4285764 Eh     change       -0.4406394E-06 Eh
 * total energy  :   -95.4285767 Eh     change       -0.2847285E-06 Eh
 * total energy  :   -95.4285770 Eh     change       -0.3276419E-06 Eh
 * total energy  :   -95.4285773 Eh     change       -0.2313218E-06 Eh
 * total energy  :   -95.4285774 Eh     change       -0.1620587E-06 Eh
 * total energy  :   -95.4285776 Eh     change       -0.1858968E-06 Eh
 * total energy  :   -95.4285778 Eh     change       -0.1771570E-06 Eh
 * total energy  :   -95.4285780 Eh     change       -0.1972914E-06 Eh
 * total energy  :   -95.4285781 Eh     change       -0.1574722E-06 Eh
 * total energy  :   -95.4285782 Eh     change       -0.5843832E-07 Eh
   *** GEOMETRY OPTIMIZATION CONVERGED AFTER 19 ITERATIONS ***

 final structure:
================
56
 xtb: 6.7.1 (edcfbbe)
N            7.04175294944179       -1.67327458752613        0.81005033903741
C            6.07003784567975       -1.06740873261088        0.71946577956236
C            4.87429050048707       -0.33321631977025        0.60355102106374
C            3.77021882457731       -0.65841958812119        1.39977094798545
C            2.59364646634266        0.04094910964646        1.26359788312261
C            2.48020547521198        1.07933611186476        0.33247465968953
C            1.21768842877549        1.79997529185104        0.14192827084346
C            1.19724769089906        3.17989927132494        0.11942101877939
C           -0.01546466691502        3.87844273753674       -0.00012109023045
C           -0.02080236057013        5.28172911187714        0.00016274777785
N           -0.02510238168722        6.43245489481028        0.00044418511088
C           -1.22267387041146        3.17076521617091       -0.12012594579655
C           -1.23275019750088        1.79064738147696       -0.14231150024702
C           -2.48936340195358        1.06045600448240       -0.33468957690612
C           -2.59256276728047        0.01953841917917       -1.26425555897444
C           -3.76375450625854       -0.68826437303148       -1.40297336071665
C           -4.87272471111761       -0.36933132853268       -0.61099131256602
C           -6.06298276880743       -1.11192543013583       -0.72966719434714
N           -7.03023209882191       -1.72457646748562       -0.82264465516625
C           -4.79022310852911        0.69427608251888        0.29528745129598
C           -3.61577129137842        1.39805935677267        0.42326554633185
C           -0.00492475369142        1.09778214434458        0.00050624800634
N            0.00062850247755       -0.31484738675913        0.00213487104736
C           -0.66991848665153       -1.00588745001314        0.98243211078367
C           -1.31629585587705       -0.36962220412432        2.05087848153610
C           -2.02777376535807       -1.09988650207544        2.97037581001277
C           -2.10504227262329       -2.49886451015063        2.86812269396177
C           -1.42300745845489       -3.15534111307363        1.86945370122246
C           -0.68987558139824       -2.43170127918382        0.93265830922924
O            0.01892938130474       -3.11538798180794        0.00961730220931
C            0.71819045028358       -2.42754707276540       -0.91759076174456
C            1.46143795399978       -3.14623633833555       -1.85009685489579
C            2.13442639875330       -2.48602466113223       -2.85249270984477
C            2.03775617414434       -1.08879406820423       -2.96275888297172
C            1.31663144343493       -0.36321275020138       -2.04720476322306
C            0.67901409288500       -1.00237507218972       -0.97510527110996
C            3.60172436592214        1.42355809355948       -0.42962950258625
C            4.78149882550394        0.72822298267223       -0.30423364640806
H            3.85202984216267       -1.45806420333337        2.12145611883896
H            1.75915891019106       -0.19813759117111        1.90814594986367
H            2.11628347168790        3.73352718445780        0.23916734462831
H           -2.14576284741836        3.71745428330708       -0.24061230173416
H           -1.75448802780785       -0.21475850966530       -1.90586833124260
H           -3.83765213550666       -1.48965246743478       -2.12357862816422
H           -5.65177931333343        0.94968464292297        0.89416268906666
H           -3.55023902872261        2.20721803322291        1.13593672376697
H           -1.24210653168936        0.70130310711347        2.14902903746351
H           -2.52695450355724       -0.59606549189973        3.78204080540070
H           -2.67924875806797       -3.05868311110085        3.58784731405245
H           -1.42973017341701       -4.23046974085205        1.79060807950536
H            1.48315719653219       -4.22070089247515       -1.76514473465980
H            2.71644288296796       -3.04190573420418       -3.56897743154982
H            2.52974931101127       -0.58282897066851       -3.77747549960755
H            1.22779348685167        0.70609728275558       -2.15103526352428
H            3.52816227149863        2.23103757563359       -1.14341581114241
H            5.63933304117874        0.98861019383541       -0.90629596253599

 projected vibrational frequencies (cm⁻¹)
eigval :       -0.00    -0.00    -0.00    -0.00     0.00     0.00
eigval :       11.48    17.88    22.64    25.42    40.86    50.89
eigval :       55.77    57.04    77.29    86.94    98.63   106.42
eigval :      115.15   121.03   127.98   142.14   148.10   152.03
eigval :      195.04   217.02   219.47   243.53   256.39   263.97
eigval :      276.46   279.52   314.37   318.36   362.93   372.21
eigval :      375.98   393.11   396.89   407.95   416.58   425.52
eigval :      434.79   454.92   458.43   478.03   498.63   505.54
eigval :      518.62   524.78   527.18   529.27   534.35   537.23
eigval :      537.50   561.27   572.77   579.80   602.70   605.28
eigval :      621.65   623.52   642.10   646.81   662.27   668.30
eigval :      674.39   685.22   728.67   754.48   759.19   768.05
eigval :      783.64   809.95   810.41   834.05   849.09   856.65
eigval :      858.79   860.19   862.51   864.23   867.01   876.26
eigval :      893.79   896.59   897.29   902.03   902.67   911.96
eigval :      915.69   915.96   927.30   927.57   999.34  1007.20
eigval :     1048.74  1056.12  1062.29  1110.33  1122.60  1134.81
eigval :     1138.63  1141.34  1160.07  1165.06  1169.63  1172.21
eigval :     1182.70  1188.88  1192.80  1215.60  1220.39  1238.05
eigval :     1244.38  1246.70  1249.44  1261.89  1268.66  1271.79
eigval :     1290.29  1308.54  1312.89  1318.59  1318.94  1336.41
eigval :     1346.56  1368.43  1369.78  1379.84  1386.39  1402.41
eigval :     1407.53  1408.13  1421.67  1425.60  1460.53  1462.57
eigval :     1472.19  1477.59  1483.92  1486.30  1488.71  1509.34
eigval :     1510.74  1566.65  1587.33  2307.55  2337.43  2346.90
eigval :     3069.57  3069.79  3080.16  3080.34  3088.79  3089.22
eigval :     3093.69  3094.60  3095.48  3096.05  3105.49  3105.62
eigval :     3109.82  3110.13  3115.97  3116.35  3121.06  3122.28

   temp. (K)  partition function   enthalpy   heat capacity  entropy
                                   cal/mol     cal/K/mol   cal/K/mol   J/K/mol
 298.15  VIB  0.641E+14            17879.243    110.829    111.564
         ROT  0.144E+08              888.752      2.981     35.743
         INT  0.927E+21            18767.995    113.810    147.307
         TR   0.104E+29             1481.254      4.968     44.414
         TOT                       20249.2493   118.7778   191.7208   802.1599

       T/K    H(0)-H(T)+PV         H(T)/Eh          T*S/Eh         G(T)/Eh
   ------------------------------------------------------------------------
    298.15    0.322692E-01    0.431965E+00    0.910927E-01    0.340872E+00
   ------------------------------------------------------------------------

         :::::::::::::::::::::::::::::::::::::::::::::::::::::
         ::                  THERMODYNAMIC                  ::
         :::::::::::::::::::::::::::::::::::::::::::::::::::::
         :: total free energy         -95.087705948883 Eh   ::
         ::.................................................::
         :: total energy              -95.428578195225 Eh   ::
         :: zero point energy           0.399695755351 Eh   ::
         :: G(RRHO) w/o ZPVE           -0.058823509009 Eh   ::
         :: G(RRHO) contrib.            0.340872246342 Eh   ::
         :::::::::::::::::::::::::::::::::::::::::::::::::::::

           -------------------------------------------------
          | TOTAL ENERGY              -95.428578195225 Eh   |
          | TOTAL ENTHALPY            -94.996613207160 Eh   |
          | TOTAL FREE ENERGY         -95.087705948883 Eh   |
          | GRADIENT NORM               0.000070596972 Eh/α |
           -------------------------------------------------

 * finished run on 2025/08/21 at 15:49:54.595
