   * xtb version 6.7.1 (edcfbbe) compiled by 'albert@albert-system' on 2024-07-22

   ID    Z sym.   atoms
    1    7 N      1, 11, 19, 23
    2    6 C      2-10, 12-18, 20-22, 24-29, 31-38
    3    8 O      30
    4    1 H      39-56

          program call               : xtb data2507/gas/oPTBC/oPTBC.xyz --gfn 2 --ohess vtight --parallel 40 --molden --ceasefiles --namespace data2507/gas/oPTBC/oPTBC_gas_S0_preOpt
          :  Hamiltonian                  GFN2-xTB          :
 * total energy  :   -95.4908220 Eh     change       -0.6872042E-08 Eh
 * total energy  :   -95.5015018 Eh     change       -0.1067972E-01 Eh
 * total energy  :   -95.5047780 Eh     change       -0.3276196E-02 Eh
 * total energy  :   -95.5057591 Eh     change       -0.9811277E-03 Eh
 * total energy  :   -95.5063538 Eh     change       -0.5946735E-03 Eh
 * total energy  :   -95.5067012 Eh     change       -0.3474057E-03 Eh
 * total energy  :   -95.5069845 Eh     change       -0.2833295E-03 Eh
 * total energy  :   -95.5072593 Eh     change       -0.2748561E-03 Eh
 * total energy  :   -95.5075221 Eh     change       -0.2627618E-03 Eh
 * total energy  :   -95.5078939 Eh     change       -0.3717541E-03 Eh
 * total energy  :   -95.5111137 Eh     change       -0.4572646E-06 Eh
 * total energy  :   -95.5111143 Eh     change       -0.5682381E-06 Eh
 * total energy  :   -95.5111149 Eh     change       -0.6018606E-06 Eh
 * total energy  :   -95.5111155 Eh     change       -0.5731128E-06 Eh
 * total energy  :   -95.5111155 Eh     change        0.2329458E-08 Eh
 * total energy  :   -95.5111156 Eh     change       -0.1412999E-06 Eh
 * total energy  :   -95.5111159 Eh     change       -0.2231276E-06 Eh
 * total energy  :   -95.5111160 Eh     change       -0.1282124E-06 Eh
 * total energy  :   -95.5111160 Eh     change       -0.6027982E-07 Eh
   *** GEOMETRY OPTIMIZATION CONVERGED AFTER 72 ITERATIONS ***

 final structure:
================
56
 xtb: 6.7.1 (edcfbbe)
N            7.04098118890867       -1.66773739682986       -0.21404065408667
C            6.06569506209034       -1.06596898320897       -0.19842506719297
C            4.86396699506460       -0.32081693718895       -0.17915958030663
C            3.86526383526705       -0.58325039308028       -1.11711694431263
C            2.68941583365577        0.13706524251873       -1.08600131154176
C            2.49089615190304        1.12407581302125       -0.12248646368142
C            1.21683082017202        1.86324836471074       -0.05524877451858
C            1.20896817416840        3.24951088773090       -0.03718139139878
C            0.00059497488879        3.94353066969176        0.00014539167041
C            0.00053949616965        5.35761727821975        0.00029047763473
N            0.00065412289557        6.50366777867238        0.00024348867075
C           -1.20781897115533        3.24957080711918        0.03736173598954
C           -1.21574431722223        1.86332199759225        0.05525995348498
C           -2.48984462157552        1.12417873768877        0.12221242367583
C           -3.50205714267681        1.39835236142089       -0.79470070948303
C           -4.68013085323825        0.68159532805057       -0.77452375108811
C           -4.86275932370400       -0.32095740516592        0.17801595072712
C           -6.06439736728801       -1.06627334796876        0.19679370843396
N           -7.03961518942369       -1.66818251289137        0.21183995534157
C           -3.86451247219943       -0.58307307473252        1.11653900915272
C           -2.68872827834604        0.13736634795247        1.08584939123264
C            0.00052186891920        1.16680965240888       -0.00001610835619
N            0.00043880393966       -0.24090703462891       -0.00006007755300
C            0.56258788880299       -0.95080904695686        1.06468838342710
C            1.07312462799353       -0.31609644501409        2.18910268141643
C            1.64499049289373       -1.04908832958026        3.21788006750802
C            1.69736054940562       -2.42603563001015        3.14554048219075
C            1.14325178678885       -3.07639391223618        2.05299867861452
C            0.56975592968223       -2.35037568821156        1.02565495188243
O           -0.00207057138639       -3.06050873601687        0.00086478151958
C           -0.57264908898214       -2.35005530523070       -1.02438766788261
C           -1.14747900539354       -3.07569605926610       -2.05125306809848
C           -1.70041731944693       -2.42503069000193       -3.14420585499172
C           -1.64555780344361       -1.04822560610614       -3.21744037253881
C           -1.07239300931211       -0.31561168364049       -2.18912104879499
C           -0.56300794270857       -0.95053691248524       -1.06430019132073
C            3.50351523825737        1.39849883484258        0.79390721062392
C            4.68166350720347        0.68187451986665        0.77329838832757
H            4.01784186804481       -1.35031505115196       -1.86164524404803
H            1.92549155974318       -0.05828887601580       -1.82449393533743
H            2.14039857114750        3.79432273686701       -0.08293556723683
H           -2.13922273095810        3.79442108565711        0.08318631553951
H           -3.35355037542324        2.16598612953289       -1.54001236231486
H           -5.46063021030640        0.88665431307364       -1.49185706386874
H           -4.01736970699525       -1.34999701095039        1.86115427837333
H           -1.92511302823107       -0.05776851382402        1.82472696769181
H            1.01461435088604        0.75826917345100        2.27035063293329
H            2.04323859424561       -0.53080480274655        4.07624613972373
H            2.14869742605688       -3.00069830067607        3.93832295001564
H            1.13991414097575       -4.15202439733322        1.98165294227036
H           -1.14612599244691       -4.15128370121251       -1.97920866339613
H           -2.15287499608894       -2.99937965701781       -3.93657448790358
H           -2.04293515103511       -0.52977968743130       -4.07611154155681
H           -1.01199339588444        0.75861043540804       -2.27098665363150
H            3.35530368903946        2.16625540581586        1.53915407809738
H            5.46248531565695        0.88716622748578        1.49021414027207

          :  Hamiltonian                  GFN2-xTB          :
         :: gradient norm              0.000050638757 Eh/a0 ::
         :: HOMO-LUMO gap              1.667456441166 eV    ::
         :: SCC energy               -97.348604072674 Eh    ::
         :: -> dispersion             -0.087379640546 Eh    ::
         :: repulsion energy           1.837488032239 Eh    ::

    * Orbital Energies and Occupations

         #    Occupation            Energy/Eh            Energy/eV
      -------------------------------------------------------------
         1        2.0000           -0.7434730             -20.2309
       ...           ...                  ...                  ...
        76        2.0000           -0.4432331             -12.0610
        77        2.0000           -0.4424847             -12.0406
        78        2.0000           -0.4418133             -12.0224
        79        2.0000           -0.4416879             -12.0189
        80        2.0000           -0.4370395             -11.8925
        81        2.0000           -0.4317370             -11.7482
        82        2.0000           -0.4310976             -11.7308
        83        2.0000           -0.4305630             -11.7162
        84        2.0000           -0.4290426             -11.6748
        85        2.0000           -0.4269343             -11.6175
        86        2.0000           -0.4233677             -11.5204
        87        2.0000           -0.4064808             -11.0609
        88        2.0000           -0.3611916              -9.8285 (HOMO)
        89                         -0.2999137              -8.1611 (LUMO)
        90                         -0.2978961              -8.1062
        91                         -0.2835394              -7.7155
        92                         -0.2603876              -7.0855
        93                         -0.2590318              -7.0486
        94                         -0.2577281              -7.0131
        95                         -0.2536656              -6.9026
        96                         -0.2452445              -6.6734
        97                         -0.2313330              -6.2949
        98                         -0.2224707              -6.0537
        99                         -0.2162761              -5.8852
       ...                                ...                  ...
       170                          1.1621685              31.6242
      -------------------------------------------------------------
                  HL-Gap            0.0612779 Eh            1.6675 eV

     #   Z          covCN         q      C6AA      α(0)
     1   7 N        0.911    -0.224    25.906     7.361
     2   6 C        1.912     0.112    28.326     8.595
     3   6 C        2.974     0.022    27.513     8.604
     4   6 C        2.925    -0.019    28.481     8.752
     5   6 C        2.923    -0.027    28.683     8.783
     6   6 C        2.978     0.020    27.562     8.612
     7   6 C        2.977     0.002    27.979     8.677
     8   6 C        2.930    -0.028    28.703     8.786
     9   6 C        2.970     0.017    27.627     8.622
    10   6 C        1.913     0.112    28.337     8.597
    11   7 N        0.911    -0.223    25.863     7.355
    12   6 C        2.930    -0.028    28.703     8.786
    13   6 C        2.977     0.002    27.979     8.677
    14   6 C        2.978     0.020    27.562     8.612
    15   6 C        2.924    -0.028    28.704     8.786
    16   6 C        2.925    -0.019    28.478     8.751
    17   6 C        2.974     0.022    27.513     8.604
    18   6 C        1.912     0.112    28.326     8.595
    19   7 N        0.911    -0.224    25.906     7.361
    20   6 C        2.925    -0.019    28.481     8.752
    21   6 C        2.923    -0.027    28.683     8.783
    22   6 C        2.928     0.063    26.592     8.457
    23   7 N        2.752    -0.071    22.607     7.062
    24   6 C        2.923     0.040    27.094     8.536
    25   6 C        2.924    -0.060    29.495     8.906
    26   6 C        2.919    -0.039    28.973     8.827
    27   6 C        2.919    -0.038    28.948     8.823
    28   6 C        2.920    -0.055    29.364     8.886
    29   6 C        2.884     0.125    25.263     8.240
    30   8 O        1.709    -0.252    18.170     5.755
    31   6 C        2.884     0.125    25.264     8.240
    32   6 C        2.920    -0.055    29.364     8.886
    33   6 C        2.919    -0.038    28.948     8.823
    34   6 C        2.919    -0.039    28.973     8.827
    35   6 C        2.924    -0.060    29.495     8.906
    36   6 C        2.923     0.040    27.094     8.536
    37   6 C        2.924    -0.028    28.704     8.786
    38   6 C        2.925    -0.019    28.478     8.751
    39   1 H        0.926     0.047     2.359     2.402
    40   1 H        0.926     0.040     2.447     2.446
    41   1 H        0.926     0.050     2.323     2.383
    42   1 H        0.926     0.050     2.323     2.383
    43   1 H        0.926     0.042     2.420     2.433
    44   1 H        0.926     0.048     2.344     2.394
    45   1 H        0.926     0.047     2.359     2.402
    46   1 H        0.926     0.040     2.447     2.446
    47   1 H        0.926     0.029     2.604     2.523
    48   1 H        0.926     0.039     2.469     2.457
    49   1 H        0.926     0.044     2.399     2.422
    50   1 H        0.926     0.056     2.252     2.347
    51   1 H        0.926     0.056     2.252     2.347
    52   1 H        0.926     0.044     2.399     2.422
    53   1 H        0.926     0.039     2.469     2.457
    54   1 H        0.926     0.029     2.604     2.523
    55   1 H        0.926     0.042     2.420     2.433
    56   1 H        0.926     0.048     2.344     2.394

molecular dipole:
                 x           y           z       tot (Debye)
 q only:       -0.000       0.240       0.000
   full:       -0.000       0.362       0.001       0.920

 projected vibrational frequencies (cm⁻¹)
eigval :       -0.00    -0.00     0.00     0.00     0.00     0.00
eigval :       11.40    18.75    23.38    25.72    41.60    47.06
eigval :       54.64    55.89    72.79    87.40    98.90   108.84
eigval :      117.58   128.83   128.95   142.56   150.21   153.19
eigval :      199.54   214.47   224.03   253.72   258.85   260.27
eigval :      274.70   279.00   309.15   312.89   364.95   368.30
eigval :      372.08   391.78   409.09   423.78   431.40   438.28
eigval :      448.56   455.23   480.29   506.02   506.64   510.27
eigval :      521.74   523.30   532.62   533.75   535.51   546.71
eigval :      550.06   583.72   583.76   600.54   610.76   614.43
eigval :      627.02   630.49   658.80   659.68   679.03   693.73
eigval :      693.98   713.96   730.48   773.16   780.30   780.94
eigval :      798.66   818.83   819.94   855.55   858.46   862.09
eigval :      868.90   869.02   872.31   873.32   884.59   888.84
eigval :      898.74   900.15   915.75   916.10   917.90   920.59
eigval :      920.60   932.26   932.52   937.81  1006.83  1014.93
eigval :     1063.69  1090.02  1091.38  1109.71  1122.71  1137.44
eigval :     1138.09  1167.48  1171.89  1175.82  1179.47  1185.67
eigval :     1188.56  1189.82  1201.78  1219.81  1224.83  1237.32
eigval :     1243.75  1252.90  1262.23  1267.25  1267.45  1301.37
eigval :     1301.48  1311.52  1313.74  1314.27  1340.29  1348.97
eigval :     1360.60  1391.49  1392.70  1416.59  1423.86  1434.52
eigval :     1445.49  1485.54  1486.67  1489.42  1504.22  1536.69
eigval :     1552.60  1554.13  1565.51  1569.37  1581.67  1591.01
eigval :     1591.97  1592.71  1603.56  2374.95  2376.85  2377.72
eigval :     3082.49  3082.52  3083.69  3083.89  3090.98  3091.10
eigval :     3092.88  3093.68  3097.10  3097.19  3097.52  3097.61
eigval :     3099.77  3099.96  3107.33  3107.86  3117.17  3117.66

   temp. (K)  partition function   enthalpy   heat capacity  entropy
                                   cal/mol     cal/K/mol   cal/K/mol   J/K/mol
 298.15  VIB  0.506E+14            17647.985    108.988    110.226
         ROT  0.144E+08              888.752      2.981     35.737
         INT  0.729E+21            18536.737    111.969    145.963
         TR   0.104E+29             1481.254      4.968     44.414
         TOT                       20017.9912   116.9371   190.3770   796.5372

       T/K    H(0)-H(T)+PV         H(T)/Eh          T*S/Eh         G(T)/Eh
   ------------------------------------------------------------------------
    298.15    0.319007E-01    0.436652E+00    0.904542E-01    0.346197E+00
   ------------------------------------------------------------------------

         :::::::::::::::::::::::::::::::::::::::::::::::::::::
         ::                  THERMODYNAMIC                  ::
         :::::::::::::::::::::::::::::::::::::::::::::::::::::
         :: total free energy         -95.164918744052 Eh   ::
         ::.................................................::
         :: total energy              -95.511116040424 Eh   ::
         :: zero point energy           0.404750832631 Eh   ::
         :: G(RRHO) w/o ZPVE           -0.058553536259 Eh   ::
         :: G(RRHO) contrib.            0.346197296372 Eh   ::
         :::::::::::::::::::::::::::::::::::::::::::::::::::::

           -------------------------------------------------
          | TOTAL ENERGY              -95.511116040424 Eh   |
          | TOTAL ENTHALPY            -95.074464508191 Eh   |
          | TOTAL FREE ENERGY         -95.164918744052 Eh   |
          | GRADIENT NORM               0.000050724984 Eh/α |
          | HOMO-LUMO GAP               1.667456678441 eV   |
           -------------------------------------------------

 * finished run on 2025/08/21 at 15:44:25.893
