   * xtb version 6.7.1 (edcfbbe) compiled by 'albert@albert-system' on 2024-07-22

   ID    Z sym.   atoms
    1    7 N      1, 11, 19, 23
    2    6 C      2-10, 12-18, 20-22, 24-29, 31-38
    3    8 O      30
    4    1 H      39-56

          program call               : xtb data2507/gas/oPTBC/oPTBC_gas_S0_crest.xyz --gfn 2 --ohess vtight --parallel 40 --molden --ceasefiles --namespace data2507/gas/oPTBC/oPTBC_gas_S0_finalOpt
          :  Hamiltonian                  GFN2-xTB          :
 * total energy  :   -95.5111073 Eh     change       -0.3932485E-08 Eh
 * total energy  :   -95.5111081 Eh     change       -0.8606303E-06 Eh
 * total energy  :   -95.5111073 Eh     change        0.7770101E-06 Eh
 * total energy  :   -95.5111101 Eh     change       -0.2721348E-05 Eh
 * total energy  :   -95.5111108 Eh     change       -0.7221784E-06 Eh
 * total energy  :   -95.5111118 Eh     change       -0.9896148E-06 Eh
 * total energy  :   -95.5111118 Eh     change       -0.6487838E-07 Eh
 * total energy  :   -95.5111132 Eh     change       -0.1389350E-05 Eh
 * total energy  :   -95.5111139 Eh     change       -0.6405727E-06 Eh
 * total energy  :   -95.5111145 Eh     change       -0.6359876E-06 Eh
 * total energy  :   -95.5111150 Eh     change       -0.4762859E-06 Eh
 * total energy  :   -95.5111154 Eh     change       -0.3755859E-06 Eh
 * total energy  :   -95.5111157 Eh     change       -0.3828041E-06 Eh
 * total energy  :   -95.5111162 Eh     change       -0.4272901E-06 Eh
 * total energy  :   -95.5111164 Eh     change       -0.2642020E-06 Eh
 * total energy  :   -95.5111166 Eh     change       -0.1240613E-06 Eh
 * total energy  :   -95.5111166 Eh     change       -0.4981231E-07 Eh
   *** GEOMETRY OPTIMIZATION CONVERGED AFTER 17 ITERATIONS ***

 final structure:
================
56
 xtb: 6.7.1 (edcfbbe)
N            6.99899722854372       -1.70797112222926       -0.83613160428793
C            6.02761558640487       -1.10852789309945       -0.73272359582409
C            4.83083127923113       -0.36606553448666       -0.60529996166410
C            3.75464200749824       -0.62627054352984       -1.45391604139040
C            2.58470873573078        0.09138612956139       -1.31707955620317
C            2.46923198217914        1.07351950679219       -0.33525497088229
C            1.20489166251376        1.80996019935294       -0.15285698472413
C            1.19751465685392        3.19609100569812       -0.12640727481843
C           -0.00328421441429        3.88842452989285        0.02163570385483
C           -0.00464507264975        5.30247364149213        0.02954812260948
N           -0.00588050555338        6.44851631327242        0.03611714108006
C           -1.20299167249990        3.19265599673846        0.16227508606394
C           -1.20828216738983        1.80631154550408        0.17274249438069
C           -2.47123464707995        1.06610016494787        0.34929474392116
C           -3.56213595727940        1.34655434196844       -0.47035685738522
C           -4.73443852215477        0.63058562926817       -0.34772953339737
C           -4.83123704010848       -0.37755063526246        0.61148756435119
C           -6.02753065048973       -1.12142605143392        0.73521431967350
N           -6.99860294024308       -1.72183155374532        0.83576260494149
C           -3.75211091243747       -0.64646547430760        1.45362955057384
C           -2.58296563104199        0.07319194807836        1.32067182021147
C           -0.00126249331122        1.11152911689693        0.00543588566531
N           -0.00055045158215       -0.29608439305774       -0.00393026624473
C            0.65818686785542       -1.01235910690157        0.99942961154783
C            1.26621573426875       -0.38468418142481        2.07839101512004
C            1.93313682261944       -1.12347249433414        3.04382488597441
C            1.98523750658767       -2.49942473592538        2.95423698773354
C            1.33581665469854       -3.14330421793878        1.91150066095914
C            0.66708275969290       -2.41149913570417        0.94780751592804
O            0.00562377274361       -3.11568832282930       -0.02583907660390
C           -0.65945879188848       -2.39932480939085       -0.98809615018108
C           -1.32524476200231       -3.11911819479652       -1.96282427733557
C           -1.97807228058823       -2.46213145084225       -2.99519919313230
C           -1.93238413473330       -1.08472879761821       -3.06331715007641
C           -1.26835117896502       -0.35798577141889       -2.08680599136209
C           -0.65684199551480       -0.99950363671034       -1.01799980856762
C            3.55745524493426        1.34586326666218        0.49068802335464
C            4.73053440226724        0.63185918925826        0.36416802474506
H            3.84314691466388       -1.38957435193094       -2.21254954979155
H            1.75964769704142       -0.10225024445996       -1.98708654428512
H            2.12083347939866        3.74228838069328       -0.25141192487549
H           -2.12703422438139        3.73603313104389        0.29402057345721
H           -3.48094100300383        2.11871300678825       -1.22134747900296
H           -5.57657224963141        0.84070443675480       -0.98995855584707
H           -3.83776580672705       -1.41789281815057        2.20433263465412
H           -1.75563588412391       -0.12725917533905        1.98584988961741
H            1.21040286202566        0.68861478380141        2.17439834358992
H            2.40584424416684       -0.61053604532369        3.86689796541396
H            2.51040386435320       -3.07846537047123        3.69677181301628
H            1.33065423764915       -4.21828910524090        1.83111066937942
H           -1.31500699563841       -4.19519014477522       -1.89919613878872
H           -2.50078769354792       -3.03196547000809       -3.74653658404990
H           -2.40782605190434       -0.56120590864914       -3.87811111775392
H           -1.21742117494525        0.71687270876085       -2.16639080569193
H            3.47337924641700        2.10982367226366        1.24970787245756
H            5.57047748539243        0.83552534634610        1.01132764079202

          :  Hamiltonian                  GFN2-xTB          :
         :: gradient norm              0.000075302663 Eh/a0 ::
         :: HOMO-LUMO gap              1.668516147999 eV    ::
         :: SCC energy               -97.348561099518 Eh    ::
         :: -> dispersion             -0.087394156570 Eh    ::
         :: repulsion energy           1.837444486567 Eh    ::

    * Orbital Energies and Occupations

         #    Occupation            Energy/Eh            Energy/eV
      -------------------------------------------------------------
         1        2.0000           -0.7435097             -20.2319
       ...           ...                  ...                  ...
        76        2.0000           -0.4432466             -12.0614
        77        2.0000           -0.4424928             -12.0408
        78        2.0000           -0.4418234             -12.0226
        79        2.0000           -0.4416871             -12.0189
        80        2.0000           -0.4370124             -11.8917
        81        2.0000           -0.4317401             -11.7482
        82        2.0000           -0.4311065             -11.7310
        83        2.0000           -0.4305656             -11.7163
        84        2.0000           -0.4290670             -11.6755
        85        2.0000           -0.4269178             -11.6170
        86        2.0000           -0.4233269             -11.5193
        87        2.0000           -0.4064885             -11.0611
        88        2.0000           -0.3612196              -9.8293 (HOMO)
        89                         -0.2999028              -8.1608 (LUMO)
        90                         -0.2979002              -8.1063
        91                         -0.2835217              -7.7150
        92                         -0.2604064              -7.0860
        93                         -0.2590344              -7.0487
        94                         -0.2576991              -7.0123
        95                         -0.2536775              -6.9029
        96                         -0.2452527              -6.6737
        97                         -0.2313503              -6.2954
        98                         -0.2224416              -6.0529
        99                         -0.2162823              -5.8853
       ...                                ...                  ...
       170                          1.1621128              31.6227
      -------------------------------------------------------------
                  HL-Gap            0.0613168 Eh            1.6685 eV

     #   Z          covCN         q      C6AA      α(0)
     1   7 N        0.911    -0.224    25.906     7.361
     2   6 C        1.912     0.112    28.326     8.595
     3   6 C        2.974     0.022    27.513     8.604
     4   6 C        2.925    -0.019    28.481     8.752
     5   6 C        2.923    -0.027    28.683     8.783
     6   6 C        2.978     0.020    27.562     8.612
     7   6 C        2.977     0.002    27.980     8.677
     8   6 C        2.930    -0.028    28.704     8.786
     9   6 C        2.970     0.017    27.628     8.622
    10   6 C        1.913     0.112    28.338     8.597
    11   7 N        0.911    -0.223    25.864     7.355
    12   6 C        2.930    -0.028    28.704     8.786
    13   6 C        2.977     0.002    27.980     8.677
    14   6 C        2.978     0.020    27.562     8.612
    15   6 C        2.924    -0.028    28.704     8.786
    16   6 C        2.925    -0.019    28.478     8.751
    17   6 C        2.974     0.022    27.513     8.604
    18   6 C        1.912     0.112    28.326     8.595
    19   7 N        0.911    -0.224    25.906     7.361
    20   6 C        2.925    -0.019    28.482     8.752
    21   6 C        2.923    -0.027    28.683     8.783
    22   6 C        2.928     0.063    26.592     8.457
    23   7 N        2.752    -0.070    22.605     7.061
    24   6 C        2.923     0.040    27.094     8.536
    25   6 C        2.924    -0.060    29.494     8.906
    26   6 C        2.919    -0.039    28.974     8.827
    27   6 C        2.919    -0.038    28.948     8.823
    28   6 C        2.920    -0.055    29.365     8.886
    29   6 C        2.884     0.125    25.263     8.240
    30   8 O        1.709    -0.252    18.169     5.755
    31   6 C        2.884     0.125    25.263     8.240
    32   6 C        2.920    -0.055    29.364     8.886
    33   6 C        2.919    -0.038    28.948     8.823
    34   6 C        2.919    -0.039    28.973     8.827
    35   6 C        2.924    -0.060    29.495     8.906
    36   6 C        2.923     0.040    27.094     8.536
    37   6 C        2.924    -0.028    28.704     8.786
    38   6 C        2.925    -0.019    28.478     8.751
    39   1 H        0.926     0.047     2.359     2.402
    40   1 H        0.926     0.040     2.448     2.447
    41   1 H        0.926     0.050     2.323     2.383
    42   1 H        0.926     0.050     2.323     2.383
    43   1 H        0.926     0.042     2.420     2.433
    44   1 H        0.926     0.048     2.344     2.394
    45   1 H        0.926     0.047     2.359     2.402
    46   1 H        0.926     0.040     2.447     2.446
    47   1 H        0.926     0.029     2.604     2.523
    48   1 H        0.926     0.039     2.468     2.457
    49   1 H        0.926     0.044     2.399     2.422
    50   1 H        0.926     0.056     2.252     2.347
    51   1 H        0.926     0.056     2.252     2.347
    52   1 H        0.926     0.044     2.399     2.422
    53   1 H        0.926     0.039     2.468     2.457
    54   1 H        0.926     0.029     2.603     2.523
    55   1 H        0.926     0.042     2.420     2.433
    56   1 H        0.926     0.048     2.344     2.394

molecular dipole:
                 x           y           z       tot (Debye)
 q only:        0.000       0.235      -0.002
   full:        0.001       0.355      -0.002       0.903

 projected vibrational frequencies (cm⁻¹)
eigval :       -0.00     0.00     0.00     0.00     0.00     0.00
eigval :       11.28    18.73    23.47    25.74    41.92    46.94
eigval :       54.81    55.99    72.87    87.48    99.01   108.91
eigval :      117.74   128.92   129.16   142.66   150.35   153.26
eigval :      199.68   214.57   223.92   253.80   258.95   260.23
eigval :      274.80   279.07   309.24   312.93   364.90   368.30
eigval :      372.05   391.79   409.09   423.79   431.49   438.33
eigval :      448.73   455.24   480.27   505.99   506.65   510.32
eigval :      521.71   523.29   532.65   533.79   535.51   546.70
eigval :      550.08   583.75   583.75   600.51   610.76   614.41
eigval :      627.03   630.50   658.80   659.69   679.04   693.70
eigval :      693.97   713.93   730.46   773.14   780.34   780.96
eigval :      798.66   818.84   819.94   855.57   858.46   862.05
eigval :      868.95   869.09   872.31   873.33   884.55   888.86
eigval :      898.77   900.18   915.76   916.11   917.91   920.62
eigval :      920.63   932.22   932.47   937.82  1006.83  1014.91
eigval :     1063.72  1090.03  1091.34  1109.71  1122.71  1137.45
eigval :     1138.10  1167.49  1171.95  1175.83  1179.55  1185.62
eigval :     1188.57  1189.81  1201.78  1219.88  1224.89  1237.35
eigval :     1243.73  1252.89  1262.20  1267.25  1267.46  1301.44
eigval :     1301.53  1311.49  1313.75  1314.28  1340.19  1348.93
eigval :     1360.58  1391.52  1392.72  1416.54  1423.87  1434.53
eigval :     1445.48  1485.52  1486.69  1489.35  1504.17  1536.65
eigval :     1552.58  1554.12  1565.49  1569.37  1581.64  1591.02
eigval :     1591.97  1592.71  1603.52  2374.85  2376.74  2377.62
eigval :     3082.45  3082.50  3083.65  3083.85  3090.99  3091.14
eigval :     3092.89  3093.68  3097.08  3097.17  3097.51  3097.60
eigval :     3099.78  3100.00  3107.32  3107.83  3117.16  3117.65

   temp. (K)  partition function   enthalpy   heat capacity  entropy
                                   cal/mol     cal/K/mol   cal/K/mol   J/K/mol
 298.15  VIB  0.500E+14            17645.503    108.996    110.210
         ROT  0.144E+08              888.752      2.981     35.738
         INT  0.721E+21            18534.255    111.977    145.948
         TR   0.104E+29             1481.254      4.968     44.414
         TOT                       20015.5093   116.9453   190.3616   796.4728

       T/K    H(0)-H(T)+PV         H(T)/Eh          T*S/Eh         G(T)/Eh
   ------------------------------------------------------------------------
    298.15    0.318967E-01    0.436652E+00    0.904469E-01    0.346205E+00
   ------------------------------------------------------------------------

         :::::::::::::::::::::::::::::::::::::::::::::::::::::
         ::                  THERMODYNAMIC                  ::
         :::::::::::::::::::::::::::::::::::::::::::::::::::::
         :: total free energy         -95.164911367587 Eh   ::
         ::.................................................::
         :: total energy              -95.511116612951 Eh   ::
         :: zero point energy           0.404755421309 Eh   ::
         :: G(RRHO) w/o ZPVE           -0.058550175946 Eh   ::
         :: G(RRHO) contrib.            0.346205245363 Eh   ::
         :::::::::::::::::::::::::::::::::::::::::::::::::::::

           -------------------------------------------------
          | TOTAL ENERGY              -95.511116612951 Eh   |
          | TOTAL ENTHALPY            -95.074464447220 Eh   |
          | TOTAL FREE ENERGY         -95.164911367587 Eh   |
          | GRADIENT NORM               0.000075300052 Eh/α |
          | HOMO-LUMO GAP               1.668514332035 eV   |
           -------------------------------------------------

 * finished run on 2025/08/21 at 15:46:41.552
