   * xtb version 6.7.1 (edcfbbe) compiled by 'albert@albert-system' on 2024-07-22

   ID    Z sym.   atoms
    1    7 N      1, 11, 19, 23
    2    6 C      2-10, 12-18, 20-22, 24-29, 31-38
    3    8 O      30
    4    1 H      39-56

          program call               : xtb data2507/gas/oPTBC/oPTBC_gas_S0_finalOpt.xtbopt.xyz --gfn 2 --spinpol --tblite --uhf 2 --ohess vtight --parallel 40 --molden --ceasefiles --namespace data2507/gas/oPTBC/oPTBC_gas_T1_preOpt
 * total energy  :   -95.4230928 Eh     change        0.7405717E-08 Eh
 * total energy  :   -95.4272369 Eh     change       -0.4144097E-02 Eh
 * total energy  :   -95.4282590 Eh     change       -0.1022102E-02 Eh
 * total energy  :   -95.4283448 Eh     change       -0.8578372E-04 Eh
 * total energy  :   -95.4284137 Eh     change       -0.6890403E-04 Eh
 * total energy  :   -95.4284407 Eh     change       -0.2697259E-04 Eh
 * total energy  :   -95.4284682 Eh     change       -0.2752280E-04 Eh
 * total energy  :   -95.4284651 Eh     change        0.3108516E-05 Eh
 * total energy  :   -95.4284825 Eh     change       -0.1742485E-04 Eh
 * total energy  :   -95.4284952 Eh     change       -0.1271390E-04 Eh
 * total energy  :   -95.4285762 Eh     change       -0.2359995E-06 Eh
 * total energy  :   -95.4285762 Eh     change        0.3258151E-08 Eh
 * total energy  :   -95.4285761 Eh     change        0.4427314E-07 Eh
 * total energy  :   -95.4285762 Eh     change       -0.1347003E-06 Eh
 * total energy  :   -95.4285764 Eh     change       -0.1401967E-06 Eh
 * total energy  :   -95.4285765 Eh     change       -0.1052665E-06 Eh
 * total energy  :   -95.4285766 Eh     change       -0.1010007E-06 Eh
 * total energy  :   -95.4285767 Eh     change       -0.1276806E-06 Eh
 * total energy  :   -95.4285768 Eh     change       -0.8889006E-07 Eh
   *** GEOMETRY OPTIMIZATION CONVERGED AFTER 51 ITERATIONS ***

 final structure:
================
56
 xtb: 6.7.1 (edcfbbe)
N            7.04232496373482       -1.69309425513596       -0.76853875274340
C            6.07174425337489       -1.08517990177103       -0.67976893443983
C            4.87741936231888       -0.34815460411668       -0.56665172871737
C            3.77885096956809       -0.66246162254310       -1.37475368876001
C            2.60373552058207        0.04009358531694       -1.24226564713934
C            2.48647525058777        1.07092965366551       -0.30329204466072
C            1.22519944852236        1.79537169753833       -0.11875758563554
C            1.20921747954897        3.17528776400137       -0.08709717423484
C           -0.00227135596216        3.87687807642884        0.02574534827406
C           -0.00303260700391        5.28021995728029        0.03520918268365
N           -0.00377882339922        6.43089376677869        0.04296481700482
C           -1.21293813587399        3.17254510709936        0.12915294155203
C           -1.22751631818772        1.79228398925798        0.14233460141072
C           -2.48797013149388        1.06417385681677        0.31736125599514
C           -3.60477936246594        1.40693796062121       -0.45224211009169
C           -4.78233093981194        0.70562040875135       -0.33967702185619
C           -4.87764136671213       -0.36046772188510        0.56239000866156
C           -6.07130511725986       -1.09989975518605        0.66598895312694
N           -7.04135438174786       -1.70977124298479        0.74704187048435
C           -3.77834763106877       -0.68492249787179        1.36551277102544
C           -2.60390257851958        0.02036269802295        1.24209962805374
C           -0.00075521002850        1.09671847252704        0.00706965621517
N            0.00008029050783       -0.31616032779082       -0.00248744621792
C            0.66087271711072       -1.01130355641247        0.98121546940642
C            1.28722878112983       -0.38011285526483        2.06454855888721
C            1.98777464931285       -1.11386773750245        2.98948758381138
C            2.07442268832344       -2.51175998511519        2.87726798560076
C            1.41314885455404       -3.16378534913633        1.86193376117480
C            0.69098975820697       -2.43670943028122        0.91928455561388
O            0.00294624703711       -3.11642295026966       -0.02208610842075
C           -0.68658666706891       -2.42498864357364       -0.95378540021095
C           -1.40712409303239       -3.14032584281134       -1.90662253646570
C           -2.06979977999571       -2.47554016189401       -2.91271781539724
C           -1.98622727810197       -1.07603351625564       -3.00525152915514
C           -1.28722068918305       -0.35382598035264       -2.07009160286941
C           -0.65949452214188       -0.99880585691133       -0.99573274232892
C            3.60256141565350        1.40404971164830        0.47152081342850
C            4.78079131836353        0.70534064734413        0.34992094023977
H            3.86376220973320       -1.45599200888169       -2.10280285805052
H            1.77385288633352       -0.19017412919313       -1.89587576201220
H            2.13119385335933        3.72657547789558       -0.19437555533518
H           -2.13550529879393        3.72135793544220        0.24383890018887
H           -3.52921602369405        2.21834334520060       -1.16135419172783
H           -5.63651557693663        0.96502556757951       -0.94732612445732
H           -3.86222727933423       -1.48844935723418        2.08263758562416
H           -1.77351070685644       -0.21816397401653        1.89208793299696
H            1.20578294248985        0.68967144244388        2.16961374979237
H            2.47097205209497       -0.61405667631935        3.81321385594250
H            2.63973496107151       -3.07419268003150        3.60196968318438
H            1.42800542840859       -4.23814204274574        1.77410660423933
H           -1.41961751283417       -4.21584050688980       -1.83390610037587
H           -2.63385312142626       -3.02896553948409       -3.64529413773956
H           -2.47054951941179       -0.56573089131007       -3.82185260178614
H           -1.20809734528966        0.71749215968323       -2.16016485736604
H            3.52593697990821        2.20557759588993        1.19166460061063
H            5.63444401216583        0.95710193002320        0.96151585407245

 projected vibrational frequencies (cm⁻¹)
eigval :       -0.00    -0.00    -0.00     0.00     0.00     0.00
eigval :       11.84    18.10    22.27    25.37    40.72    50.95
eigval :       55.75    59.99    77.01    87.02    98.52   106.47
eigval :      115.24   120.49   127.84   141.72   148.36   151.92
eigval :      194.57   216.76   219.67   243.22   256.33   263.82
eigval :      276.35   279.12   314.28   318.19   362.57   372.06
eigval :      375.70   393.41   396.56   407.76   416.20   425.32
eigval :      434.63   454.81   458.04   477.92   498.53   505.44
eigval :      518.63   524.83   527.25   529.12   534.30   537.24
eigval :      537.43   561.46   572.80   579.94   602.60   605.35
eigval :      621.85   623.53   641.81   646.59   662.51   668.42
eigval :      674.57   685.34   728.69   753.96   759.06   768.00
eigval :      783.12   809.92   810.37   834.30   849.20   856.18
eigval :      858.63   859.86   862.39   863.63   866.69   876.41
eigval :      894.22   896.54   897.22   901.93   902.43   912.59
eigval :      915.52   915.89   927.32   927.55   999.51  1007.49
eigval :     1049.03  1056.34  1062.02  1110.93  1122.63  1135.21
eigval :     1138.59  1141.51  1160.34  1164.85  1169.97  1172.28
eigval :     1182.90  1188.61  1193.02  1216.03  1220.34  1238.27
eigval :     1244.61  1247.13  1249.37  1262.75  1268.63  1272.42
eigval :     1291.08  1308.28  1313.26  1318.60  1319.06  1336.35
eigval :     1346.69  1368.59  1369.67  1381.09  1385.87  1402.75
eigval :     1407.55  1408.38  1421.24  1426.01  1459.94  1461.85
eigval :     1472.11  1477.51  1483.94  1485.94  1489.13  1509.49
eigval :     1510.77  1567.12  1587.41  2307.91  2337.56  2346.97
eigval :     3069.70  3069.82  3079.77  3079.98  3088.62  3088.87
eigval :     3093.74  3094.18  3095.48  3096.32  3105.32  3105.42
eigval :     3109.66  3109.90  3115.78  3116.10  3120.89  3121.43

   temp. (K)  partition function   enthalpy   heat capacity  entropy
                                   cal/mol     cal/K/mol   cal/K/mol   J/K/mol
 298.15  VIB  0.609E+14            17879.717    110.874    111.545
         ROT  0.145E+08              888.752      2.981     35.744
         INT  0.881E+21            18768.469    113.855    147.289
         TR   0.104E+29             1481.254      4.968     44.414
         TOT                       20249.7229   118.8234   191.7028   802.0845

       T/K    H(0)-H(T)+PV         H(T)/Eh          T*S/Eh         G(T)/Eh
   ------------------------------------------------------------------------
    298.15    0.322700E-01    0.431965E+00    0.910842E-01    0.340881E+00
   ------------------------------------------------------------------------

         :::::::::::::::::::::::::::::::::::::::::::::::::::::
         ::                  THERMODYNAMIC                  ::
         :::::::::::::::::::::::::::::::::::::::::::::::::::::
         :: total free energy         -95.087695984569 Eh   ::
         ::.................................................::
         :: total energy              -95.428576824877 Eh   ::
         :: zero point energy           0.399695032703 Eh   ::
         :: G(RRHO) w/o ZPVE           -0.058814192395 Eh   ::
         :: G(RRHO) contrib.            0.340880840308 Eh   ::
         :::::::::::::::::::::::::::::::::::::::::::::::::::::

           -------------------------------------------------
          | TOTAL ENERGY              -95.428576824877 Eh   |
          | TOTAL ENTHALPY            -94.996611804646 Eh   |
          | TOTAL FREE ENERGY         -95.087695984569 Eh   |
          | GRADIENT NORM               0.000100146331 Eh/α |
           -------------------------------------------------

 * finished run on 2025/08/21 at 15:46:48.593
