   * xtb version 6.7.1 (edcfbbe) compiled by 'albert@albert-system' on 2024-07-22

   ID    Z sym.   atoms
    1    8 O      1, 21, 25
    2   15 P      2, 24
    3    6 C      3-20, 22, 23, 26-41
    4    1 H      42-67

          program call               : xtb data2507/toluene/DBFDPO/DBFDPO_toluene_T1_crest.xyz --gfn 2 --uhf 2 --gbsa toluene --ohess vtight --parallel 40 --molden --ceasefiles --namespace data2507/toluene/DBFDPO/DBFDPO_toluene_T1_finalOpt
      * Solvation model:               GBSA
        Solvent                        toluene
        Solvent mass                       9.2140E+01 g/mol
          :  Hamiltonian                  GFN2-xTB          :
 * total energy  :  -107.6101431 Eh     change       -0.2559716E-08 Eh
 * total energy  :  -107.6103150 Eh     change       -0.1718623E-03 Eh
 * total energy  :  -107.6104075 Eh     change       -0.9250038E-04 Eh
 * total energy  :  -107.6104420 Eh     change       -0.3456382E-04 Eh
 * total energy  :  -107.6104806 Eh     change       -0.3855593E-04 Eh
 * total energy  :  -107.6105228 Eh     change       -0.4218407E-04 Eh
 * total energy  :  -107.6105374 Eh     change       -0.1466769E-04 Eh
 * total energy  :  -107.6105494 Eh     change       -0.1193777E-04 Eh
 * total energy  :  -107.6105652 Eh     change       -0.1583693E-04 Eh
 * total energy  :  -107.6105889 Eh     change       -0.2373419E-04 Eh
 * total energy  :  -107.6107287 Eh     change       -0.1997468E-06 Eh
 * total energy  :  -107.6107289 Eh     change       -0.2293720E-06 Eh
 * total energy  :  -107.6107291 Eh     change       -0.2241871E-06 Eh
 * total energy  :  -107.6107293 Eh     change       -0.1993947E-06 Eh
 * total energy  :  -107.6107295 Eh     change       -0.1716329E-06 Eh
 * total energy  :  -107.6107296 Eh     change       -0.1481385E-06 Eh
 * total energy  :  -107.6107298 Eh     change       -0.1332921E-06 Eh
 * total energy  :  -107.6107299 Eh     change       -0.1336852E-06 Eh
 * total energy  :  -107.6107299 Eh     change       -0.2210456E-08 Eh
   *** GEOMETRY OPTIMIZATION CONVERGED AFTER 44 ITERATIONS ***

 final structure:
================
67
 xtb: 6.7.1 (edcfbbe)
O            3.85529938910729        0.07173717155123        2.39095835606175
P            2.79211409856037        0.04990968112934        1.36712537660080
C            1.42394713717116       -1.03940589938526        1.87216692297695
C            0.33162948850129       -0.55016936986661        2.57121549689665
C           -0.61686884234515       -1.43122266094263        3.06099348100153
C           -0.46973720121564       -2.79374524878483        2.85777656012782
C            0.63441787151919       -3.28355478031561        2.17827291177454
C            1.58617947424453       -2.40563124220028        1.69031037364434
C            3.39597360522307       -0.53481544665420       -0.24792461520937
C            2.62329132899045       -0.45397457099121       -1.39910272001674
C            3.14945244965108       -0.87712267072315       -2.60565783234088
C            4.44019302471452       -1.38094042591528       -2.66426067887361
C            5.21183562995780       -1.45910534169078       -1.51581151680007
C            4.69203703199505       -1.02974297913990       -0.30729135720474
C            2.12235346051478        1.70240343042882        1.04109001966800
C            2.98714352521941        2.79474011904084        1.40374759443593
C            2.65419989737042        4.12199246329524        1.14301907883595
C            1.47766782962923        4.45694184084398        0.52439843491003
C            0.58443731992249        3.38834535139319        0.14726236963150
C            0.94793851868869        2.02411289597684        0.42527519482093
O           -0.03658493572815        1.17465728800034       -0.00804273762093
C           -1.01351101923450        1.95290520840029       -0.55592792504302
C           -2.20403306620397        1.55366026158202       -1.09330221809649
P           -2.85180273211793       -0.13814435806605       -1.22063680385128
O           -4.05354338419269       -0.17708396056001       -2.07870242682294
C           -3.24934584027740       -0.69238319544493        0.47133082252758
C           -3.51253273465875        0.21483403101189        1.48622450353973
C           -3.98709062524416       -0.23730026273581        2.70613148105080
C           -4.20394764046429       -1.59076604425541        2.90833568346567
C           -3.94588499174323       -2.49676090693487        1.89132334247864
C           -3.47415364924476       -2.04778658423090        0.67140633390694
C           -1.53312150373403       -1.21952242538380       -1.84945204226515
C           -0.60004759046176       -1.83114629048096       -1.02464879829329
C            0.33172453248181       -2.69326255933218       -1.57531118671294
C            0.34137986316418       -2.93394785903290       -2.94002027308995
C           -0.58369720703416       -2.31252023914137       -3.76455933853543
C           -1.52332896415111       -1.45707951946075       -3.21840600636800
C           -3.05381711382856        2.58040393002927       -1.62012796571586
C           -2.70768553361915        3.93332621315684       -1.56933760305195
C           -1.52859420114250        4.34948911516918       -1.01425716696572
C           -0.64190478218213        3.34580536821698       -0.48363111553114
H            0.23178041982609        0.51430676810088        2.73479608467084
H           -1.47107250165926       -1.05456906164529        3.60244078850604
H           -1.21447284275497       -3.47531547775180        3.23969725046013
H            0.75432764284271       -4.34707918274083        2.03261931693966
H            2.46495142980898       -2.76533855796181        1.17034430190350
H            1.61605781344749       -0.07031345584046       -1.34461640096324
H            2.54924187738957       -0.81495578732794       -3.50116575358747
H            4.84681670733421       -1.70885651973708       -3.60951866694937
H            6.21771898894133       -1.85006934453542       -1.56144191816490
H            5.27471030396907       -1.06970025321703        0.60278355305762
H            3.90942250448035        2.53798047262720        1.90094182151754
H            3.34424122506876        4.89737781136622        1.44070877635446
H            1.20308277005921        5.47642755586432        0.31548782012247
H           -3.34995330842673        1.27097435549029        1.31658318019030
H           -4.19462017236948        0.46929226521940        3.49693790512077
H           -4.57957297132166       -1.93998256097214        3.85898168428842
H           -4.12224978862718       -3.55104992691344        2.04591038157131
H           -3.28331241267968       -2.73910059463699       -0.13924885401722
H           -0.61258397274085       -1.63635400281241        0.03726825961635
H            1.05182127043157       -3.17898186729669       -0.93510252593714
H            1.07087846671351       -3.61011175320755       -3.36066143364793
H           -0.57775726005578       -2.49947136454718       -4.82851346419121
H           -2.27167591822623       -0.97766337178406       -3.83478981278282
H           -3.98416074217222        2.26181555940713       -2.06342525069367
H           -3.39441593458586        4.65696446646323       -1.98254937601954
H           -1.24389903459428        5.38653580694017       -0.96841209011846

          :  Hamiltonian                  GFN2-xTB          :
         :: gradient norm              0.000031263108 Eh/a0 ::
         :: HOMO-LUMO gap              0.655458683148 eV    ::
         :: SCC energy              -109.458752781200 Eh    ::
         :: -> dispersion             -0.109070656450 Eh    ::
         :: -> Gsolv                  -0.046907528043 Eh    ::
         :: repulsion energy           1.848022868064 Eh    ::

    * Orbital Energies and Occupations

         #    Occupation            Energy/Eh            Energy/eV
      -------------------------------------------------------------
         1        2.0000           -0.7577997             -20.6208
       ...           ...                  ...                  ...
        88        2.0000           -0.4215057             -11.4698
        89        2.0000           -0.4203918             -11.4394
        90        2.0000           -0.4195483             -11.4165
        91        2.0000           -0.4179078             -11.3718
        92        2.0000           -0.4173275             -11.3561
        93        2.0000           -0.4163408             -11.3292
        94        2.0000           -0.4157031             -11.3119
        95        2.0000           -0.4123926             -11.2218
        96        2.0000           -0.4112542             -11.1908
        97        1.9999           -0.4090925             -11.1320
        98        1.9874           -0.4045202             -11.0076
        99        1.0128           -0.3962474             -10.7824
       100        1.0000           -0.2879377              -7.8352 (HOMO)
       101        0.0000           -0.2638501              -7.1797 (LUMO)
       102                         -0.2531460              -6.8885
       103                         -0.2484761              -6.7614
       104                         -0.2473282              -6.7301
       105                         -0.2462930              -6.7020
       106                         -0.2394135              -6.5148
       107                         -0.2388618              -6.4998
       108                         -0.2375263              -6.4634
       109                         -0.2360499              -6.4232
       110                         -0.2303798              -6.2690
       111                         -0.2198856              -5.9834
       ...                                ...                  ...
       200                          1.1873370              32.3091
      -------------------------------------------------------------
                  HL-Gap            0.0240876 Eh            0.6555 eV

     #   Z          covCN         q      C6AA      α(0)
     1   8 O        0.808    -0.397    21.652     6.238
     2  15 P        4.062     0.066   157.328    22.532
     3   6 C        2.922     0.019    27.589     8.614
     4   6 C        2.986    -0.017    28.418     8.744
     5   6 C        2.920    -0.026    28.646     8.777
     6   6 C        2.921    -0.024    28.596     8.769
     7   6 C        2.919    -0.024    28.610     8.771
     8   6 C        3.019    -0.019    28.447     8.749
     9   6 C        2.921     0.012    27.743     8.638
    10   6 C        2.979    -0.024    28.589     8.771
    11   6 C        2.920    -0.025    28.623     8.773
    12   6 C        2.920    -0.022    28.562     8.764
    13   6 C        2.919    -0.026    28.645     8.777
    14   6 C        3.020    -0.019    28.459     8.751
    15   6 C        2.900    -0.019    28.473     8.749
    16   6 C        3.021    -0.026    28.637     8.778
    17   6 C        2.906    -0.029    28.715     8.787
    18   6 C        2.905    -0.039    28.961     8.824
    19   6 C        3.048    -0.011    28.253     8.718
    20   6 C        3.110     0.139    24.841     8.165
    21   8 O        1.712    -0.226    17.739     5.687
    22   6 C        3.109     0.140    24.815     8.161
    23   6 C        2.900    -0.020    28.500     8.753
    24  15 P        4.061     0.062   157.516    22.545
    25   8 O        0.808    -0.402    21.737     6.250
    26   6 C        2.921     0.015    27.681     8.628
    27   6 C        2.984    -0.021    28.526     8.761
    28   6 C        2.920    -0.025    28.638     8.776
    29   6 C        2.920    -0.024    28.591     8.769
    30   6 C        2.919    -0.024    28.615     8.772
    31   6 C        3.016    -0.018    28.442     8.748
    32   6 C        2.922     0.014    27.696     8.630
    33   6 C        2.975    -0.021    28.524     8.761
    34   6 C        2.921    -0.024    28.607     8.771
    35   6 C        2.920    -0.022    28.562     8.764
    36   6 C        2.919    -0.026    28.659     8.779
    37   6 C        3.032    -0.019    28.455     8.750
    38   6 C        3.019    -0.026    28.636     8.778
    39   6 C        2.907    -0.028    28.707     8.785
    40   6 C        2.905    -0.041    29.007     8.831
    41   6 C        3.050    -0.010    28.210     8.711
    42   1 H        0.925     0.033     2.542     2.493
    43   1 H        0.926     0.044     2.398     2.421
    44   1 H        0.926     0.049     2.330     2.387
    45   1 H        0.926     0.049     2.331     2.387
    46   1 H        0.925     0.040     2.442     2.444
    47   1 H        0.926     0.040     2.447     2.446
    48   1 H        0.926     0.044     2.396     2.421
    49   1 H        0.926     0.051     2.313     2.378
    50   1 H        0.926     0.049     2.336     2.390
    51   1 H        0.925     0.054     2.273     2.358
    52   1 H        0.926     0.064     2.157     2.297
    53   1 H        0.926     0.057     2.236     2.338
    54   1 H        0.926     0.059     2.211     2.325
    55   1 H        0.925     0.033     2.545     2.495
    56   1 H        0.926     0.046     2.374     2.410
    57   1 H        0.926     0.050     2.324     2.384
    58   1 H        0.926     0.048     2.344     2.394
    59   1 H        0.925     0.039     2.459     2.452
    60   1 H        0.926     0.041     2.438     2.442
    61   1 H        0.926     0.043     2.413     2.429
    62   1 H        0.926     0.049     2.332     2.388
    63   1 H        0.926     0.047     2.356     2.401
    64   1 H        0.925     0.049     2.326     2.385
    65   1 H        0.926     0.065     2.138     2.287
    66   1 H        0.926     0.056     2.242     2.341
    67   1 H        0.926     0.058     2.224     2.332

molecular dipole:
                 x           y           z       tot (Debye)
 q only:        0.364       0.003      -0.314
   full:        0.354       0.049      -0.338       1.251

 projected vibrational frequencies (cm⁻¹)
eigval :       -0.00    -0.00     0.00     0.00     0.00     0.00
eigval :       17.07    18.34    27.20    31.84    34.04    38.34
eigval :       42.94    48.62    54.15    65.19    69.70    77.38
eigval :       85.70    93.93    97.30   123.49   136.89   148.43
eigval :      149.61   157.29   189.95   196.07   198.70   223.28
eigval :      232.93   236.66   243.57   250.10   254.83   262.24
eigval :      265.25   270.26   273.97   331.61   340.86   360.97
eigval :      367.83   369.29   371.03   389.45   405.81   409.90
eigval :      427.25   449.96   457.71   467.33   469.31   472.02
eigval :      475.25   505.35   509.71   512.93   538.42   559.87
eigval :      584.10   584.45   585.51   585.68   611.15   631.30
eigval :      641.41   645.49   654.21   656.46   658.39   662.77
eigval :      679.90   685.91   692.31   696.19   715.53   718.45
eigval :      738.72   740.02   742.69   744.41   764.94   773.64
eigval :      802.44   805.14   874.62   875.86   877.75   878.47
eigval :      879.75   895.80   897.54   898.13   900.57   901.08
eigval :      906.52   907.59   925.01   926.32   929.21   930.79
eigval :      931.74   931.99   932.92   934.30   968.42   969.27
eigval :      973.59   974.59  1020.08  1064.22  1075.84  1076.16
eigval :     1076.46  1078.14  1082.40  1104.91  1109.79  1111.03
eigval :     1112.49  1112.73  1114.00  1117.59  1122.98  1126.04
eigval :     1127.18  1136.17  1157.80  1168.02  1175.37  1175.76
eigval :     1177.02  1178.13  1185.35  1187.18  1187.72  1189.17
eigval :     1204.86  1212.37  1216.13  1266.82  1267.76  1268.55
eigval :     1270.87  1272.18  1306.31  1317.74  1318.87  1320.95
eigval :     1321.94  1335.45  1353.82  1372.17  1420.14  1420.88
eigval :     1421.90  1423.80  1439.47  1448.40  1450.14  1452.30
eigval :     1453.38  1459.15  1519.09  1544.03  1576.94  1577.75
eigval :     1580.03  1580.49  1582.38  1583.08  1583.54  1584.04
eigval :     1593.03  3049.42  3052.83  3054.36  3060.05  3067.09
eigval :     3069.56  3074.83  3077.40  3078.82  3080.63  3081.32
eigval :     3083.83  3085.28  3085.69  3087.54  3090.12  3091.49
eigval :     3091.65  3092.37  3099.98  3100.67  3100.85  3101.21
eigval :     3102.56  3119.90  3123.07

   temp. (K)  partition function   enthalpy   heat capacity  entropy
                                   cal/mol     cal/K/mol   cal/K/mol   J/K/mol
 298.15  VIB  0.132E+17            20997.008    128.900    131.079
         ROT  0.334E+08              888.752      2.981     37.406
         INT  0.442E+24            21885.761    131.881    168.485
         TR   0.131E+29             1481.254      4.968     44.878
         TOT                       23367.0145   136.8490   213.3629   892.7105

       T/K    H(0)-H(T)+PV         H(T)/Eh          T*S/Eh         G(T)/Eh
   ------------------------------------------------------------------------
    298.15    0.372377E-01    0.533202E+00    0.101376E+00    0.431826E+00
   ------------------------------------------------------------------------

         :::::::::::::::::::::::::::::::::::::::::::::::::::::
         ::                  THERMODYNAMIC                  ::
         :::::::::::::::::::::::::::::::::::::::::::::::::::::
         :: total free energy        -107.178903538009 Eh   ::
         ::.................................................::
         :: total energy             -107.610729914486 Eh   ::
         :: zero point energy           0.495964279581 Eh   ::
         :: G(RRHO) w/o ZPVE           -0.064137903103 Eh   ::
         :: G(RRHO) contrib.            0.431826376478 Eh   ::
         :::::::::::::::::::::::::::::::::::::::::::::::::::::

           -------------------------------------------------
          | TOTAL ENERGY             -107.610729914486 Eh   |
          | TOTAL ENTHALPY           -107.077527927089 Eh   |
          | TOTAL FREE ENERGY        -107.178903538009 Eh   |
          | GRADIENT NORM               0.000030981485 Eh/α |
          | HOMO-LUMO GAP               0.655457483361 eV   |
           -------------------------------------------------

 * finished run on 2025/08/25 at 13:21:05.446
