   * xtb version 6.7.1 (edcfbbe) compiled by 'albert@albert-system' on 2024-07-22

   ID    Z sym.   atoms
    1    8 O      1, 21, 25
    2   15 P      2, 24
    3    6 C      3-20, 22, 23, 26-41
    4    1 H      42-67

          program call               : xtb data2507/toluene/DBFDPO/DBFDPO_toluene_S0_crest.xyz --gfn 2 --gbsa toluene --ohess vtight --parallel 40 --molden --ceasefiles --namespace data2507/toluene/DBFDPO/DBFDPO_toluene_S0_finalOpt
      * Solvation model:               GBSA
        Solvent                        toluene
        Solvent mass                       9.2140E+01 g/mol
          :  Hamiltonian                  GFN2-xTB          :
 * total energy  :  -107.7313600 Eh     change       -0.1043091E-08 Eh
 * total energy  :  -107.7315550 Eh     change       -0.1949381E-03 Eh
 * total energy  :  -107.7316500 Eh     change       -0.9508937E-04 Eh
 * total energy  :  -107.7316816 Eh     change       -0.3157913E-04 Eh
 * total energy  :  -107.7317188 Eh     change       -0.3715222E-04 Eh
 * total energy  :  -107.7317582 Eh     change       -0.3940956E-04 Eh
 * total energy  :  -107.7317734 Eh     change       -0.1521938E-04 Eh
 * total energy  :  -107.7317861 Eh     change       -0.1269314E-04 Eh
 * total energy  :  -107.7318001 Eh     change       -0.1400865E-04 Eh
 * total energy  :  -107.7318227 Eh     change       -0.2261722E-04 Eh
 * total energy  :  -107.7319600 Eh     change       -0.1171883E-05 Eh
 * total energy  :  -107.7319608 Eh     change       -0.7923631E-06 Eh
 * total energy  :  -107.7319615 Eh     change       -0.7039108E-06 Eh
 * total energy  :  -107.7319622 Eh     change       -0.7269808E-06 Eh
 * total energy  :  -107.7319629 Eh     change       -0.7027235E-06 Eh
 * total energy  :  -107.7319635 Eh     change       -0.5607282E-06 Eh
 * total energy  :  -107.7319640 Eh     change       -0.5127347E-06 Eh
 * total energy  :  -107.7319644 Eh     change       -0.4662042E-06 Eh
 * total energy  :  -107.7319644 Eh     change       -0.4670042E-08 Eh
   *** GEOMETRY OPTIMIZATION CONVERGED AFTER 44 ITERATIONS ***

 final structure:
================
67
 xtb: 6.7.1 (edcfbbe)
O            4.63066402449780       -0.13125222712076       -1.69878717298972
P            3.36430549247123       -0.01498812087943       -0.94833446149639
C            2.01112000784448        0.61570618837871       -1.98694691931545
C            1.63455283096463        1.94889889233697       -1.95045619185775
C            0.69804810677396        2.41963014790982       -2.85434841034637
C            0.14129559381232        1.56238168501931       -3.78813727260790
C            0.52235955635730        0.23099006021162       -3.82661198837228
C            1.46273222661381       -0.24137657299746       -2.93084416243562
C            3.50234662655198        1.04721674867789        0.51828508605386
C            4.74691787558529        1.59396061274095        0.80016236216723
C            4.91966246643899        2.37620758140479        1.92855713813943
C            3.84902185814035        2.60007566053990        2.77893328838214
C            2.60673937186034        2.05056609397173        2.49881227194891
C            2.42656546487195        1.27610756207875        1.36761260887988
C            2.82157298750675       -1.62680187567721       -0.29677970886740
C            3.78681398588937       -2.61157536500808       -0.12673065381709
C            3.47252216987600       -3.86997070953529        0.37317240440598
C            2.17231288110936       -4.19326826635996        0.71323286345743
C            1.18613387907125       -3.22908646855055        0.54491242993159
C            1.51923817903390       -1.95048782948043        0.05214994581179
O            0.42349954394712       -1.14717738423546       -0.04527960229449
C           -0.63351011993031       -1.90416508939100        0.34913207622347
C           -1.95867826333944       -1.49568201216640        0.36224349771309
P           -2.32388447157766        0.14631252331842       -0.34117942200717
O           -1.85391536460703        0.27877770013333       -1.73158125274057
C           -1.59965820829072        1.34990656305728        0.81155714776996
C           -1.20282657100124        2.56850850617585        0.27904198836575
C           -0.73080788256784        3.56704227238435        1.11182835116273
C           -0.66376364747808        3.34873442938289        2.47861269347303
C           -1.04606498296806        2.12625006313327        3.00989680554975
C           -1.51323623084067        1.12322785166515        2.17917060994273
C           -4.12416063193435        0.35990195157728       -0.18115974504343
C           -4.86130134598588        0.42513854018709       -1.35529560896646
C           -6.23428343741096        0.59140824031304       -1.30406969097705
C           -6.87016122310016        0.69355538151429       -0.07726428587448
C           -6.13401924037425        0.63501833864903        1.09670079822663
C           -4.76164371619811        0.47017231338744        1.04901762496576
C           -2.89781546914274       -2.42010097262582        0.79837870918829
C           -2.51960611250839       -3.69419431392936        1.21314681630539
C           -1.19815220278491       -4.09954949987889        1.18800053797424
C           -0.23972885067243       -3.19579111216740        0.74491082221272
H            2.07418577762855        2.60883094703715       -1.21428561544165
H            0.40362325405349        3.45931684145523       -2.83083713033542
H           -0.59539962244076        1.93072087425355       -4.48676261560715
H            0.08401974239719       -0.43768328145584       -4.55298347505931
H            1.78160409328875       -1.27668390797561       -2.95318751062011
H            5.56378603305895        1.39614811635419        0.11990588985762
H            5.88667104518384        2.80604146808019        2.14472259711413
H            3.98155063063692        3.20508336969454        3.66376338178141
H            1.77401072913798        2.22779740673726        3.16169504173967
H            1.45833406417422        0.85874795201690        1.13055164832237
H            4.80110861886526       -2.37131953138512       -0.41296342044387
H            4.25632993165726       -4.60304753128607        0.48775581725433
H            1.92149954956329       -5.17140175033932        1.09248511174829
H           -1.26466712613274        2.70637044219890       -0.79135784956192
H           -0.42095948451682        4.51538887041996        0.69821531767940
H           -0.30691786277738        4.13235928780465        3.13092858542151
H           -0.98310130745070        1.95434408670510        4.07495582861003
H           -1.80213928141714        0.16353542841134        2.58591492736465
H           -4.33884446570810        0.34679514424797       -2.29868321397396
H           -6.80643998546211        0.64076653980206       -2.21890246335965
H           -7.94160835865714        0.82287823868505       -0.03506426650404
H           -6.63209058380803        0.71890215443677        2.05153427442399
H           -4.18345113058516        0.42990503181723        1.96021904046175
H           -3.94107741122765       -2.14076183645213        0.81077128651477
H           -3.28165770542503       -4.38065278138187        1.54973150616397
H           -0.91399726044494       -5.09336366492588        1.49623004138804

          :  Hamiltonian                  GFN2-xTB          :
         :: gradient norm              0.000048855088 Eh/a0 ::
         :: HOMO-LUMO gap              3.429648178319 eV    ::
         :: SCC energy              -109.602482106928 Eh    ::
         :: -> dispersion             -0.105926024252 Eh    ::
         :: -> Gsolv                  -0.050138541459 Eh    ::
         :: repulsion energy           1.870517667494 Eh    ::

    * Orbital Energies and Occupations

         #    Occupation            Energy/Eh            Energy/eV
      -------------------------------------------------------------
         1        2.0000           -0.7532302             -20.4964
       ...           ...                  ...                  ...
        87        2.0000           -0.4220681             -11.4851
        88        2.0000           -0.4198913             -11.4258
        89        2.0000           -0.4186247             -11.3914
        90        2.0000           -0.4183209             -11.3831
        91        2.0000           -0.4174191             -11.3586
        92        2.0000           -0.4125569             -11.2262
        93        2.0000           -0.4102467             -11.1634
        94        2.0000           -0.4092202             -11.1354
        95        2.0000           -0.4084419             -11.1143
        96        2.0000           -0.4066678             -11.0660
        97        2.0000           -0.4060573             -11.0494
        98        2.0000           -0.4042977             -11.0015
        99        2.0000           -0.4005816             -10.9004 (HOMO)
       100                         -0.2745443              -7.4707 (LUMO)
       101                         -0.2606480              -7.0926
       102                         -0.2582036              -7.0261
       103                         -0.2467925              -6.7156
       104                         -0.2429826              -6.6119
       105                         -0.2391925              -6.5088
       106                         -0.2377380              -6.4692
       107                         -0.2366910              -6.4407
       108                         -0.2358882              -6.4188
       109                         -0.2291622              -6.2358
       110                         -0.2285134              -6.2182
       ...                                ...                  ...
       200                          1.1881428              32.3310
      -------------------------------------------------------------
                  HL-Gap            0.1260372 Eh            3.4296 eV

     #   Z          covCN         q      C6AA      α(0)
     1   8 O        0.808    -0.398    21.663     6.239
     2  15 P        4.066     0.059   157.617    22.552
     3   6 C        2.922     0.020    27.555     8.608
     4   6 C        2.987    -0.020    28.505     8.758
     5   6 C        2.921    -0.022    28.559     8.764
     6   6 C        2.921    -0.015    28.386     8.737
     7   6 C        2.920    -0.017    28.436     8.745
     8   6 C        3.018    -0.013    28.306     8.727
     9   6 C        2.921     0.012    27.739     8.637
    10   6 C        3.023    -0.019    28.465     8.752
    11   6 C        2.918    -0.026    28.658     8.779
    12   6 C        2.920    -0.023    28.576     8.766
    13   6 C        2.920    -0.028    28.693     8.784
    14   6 C        2.981    -0.023    28.561     8.766
    15   6 C        2.908    -0.013    28.332     8.728
    16   6 C        3.024    -0.023    28.561     8.766
    17   6 C        2.919    -0.035    28.883     8.813
    18   6 C        2.913    -0.029    28.718     8.788
    19   6 C        3.058    -0.019    28.413     8.742
    20   6 C        3.148     0.133    24.839     8.153
    21   8 O        1.715    -0.218    17.617     5.667
    22   6 C        3.218     0.138    24.363     8.028
    23   6 C        2.908    -0.014    28.366     8.733
    24  15 P        4.068     0.072   157.057    22.512
    25   8 O        0.808    -0.395    21.601     6.230
    26   6 C        2.921     0.012    27.750     8.639
    27   6 C        3.030    -0.018    28.422     8.745
    28   6 C        2.919    -0.025    28.620     8.773
    29   6 C        2.920    -0.022    28.564     8.764
    30   6 C        2.919    -0.026    28.643     8.776
    31   6 C        2.976    -0.024    28.598     8.772
    32   6 C        2.920     0.008    27.842     8.653
    33   6 C        3.025    -0.019    28.457     8.750
    34   6 C        2.918    -0.026    28.652     8.778
    35   6 C        2.920    -0.023    28.583     8.767
    36   6 C        2.919    -0.026    28.660     8.779
    37   6 C        2.975    -0.026    28.657     8.781
    38   6 C        2.964    -0.029    28.717     8.790
    39   6 C        2.920    -0.036    28.885     8.813
    40   6 C        2.913    -0.029    28.727     8.789
    41   6 C        3.054    -0.020    28.453     8.748
    42   1 H        0.925     0.035     2.515     2.480
    43   1 H        0.926     0.043     2.408     2.427
    44   1 H        0.926     0.046     2.376     2.410
    45   1 H        0.926     0.042     2.428     2.437
    46   1 H        0.925     0.029     2.601     2.522
    47   1 H        0.925     0.052     2.292     2.367
    48   1 H        0.926     0.048     2.349     2.397
    49   1 H        0.926     0.051     2.313     2.378
    50   1 H        0.926     0.047     2.353     2.399
    51   1 H        0.926     0.037     2.484     2.465
    52   1 H        0.926     0.062     2.180     2.309
    53   1 H        0.926     0.057     2.232     2.336
    54   1 H        0.926     0.061     2.192     2.315
    55   1 H        0.926     0.046     2.375     2.410
    56   1 H        0.926     0.044     2.392     2.419
    57   1 H        0.926     0.049     2.333     2.389
    58   1 H        0.926     0.047     2.357     2.401
    59   1 H        0.925     0.040     2.448     2.447
    60   1 H        0.925     0.049     2.330     2.387
    61   1 H        0.926     0.045     2.385     2.415
    62   1 H        0.926     0.048     2.346     2.395
    63   1 H        0.926     0.048     2.345     2.395
    64   1 H        0.926     0.048     2.342     2.393
    65   1 H        0.926     0.054     2.269     2.355
    66   1 H        0.926     0.058     2.227     2.334
    67   1 H        0.926     0.059     2.212     2.326

molecular dipole:
                 x           y           z       tot (Debye)
 q only:       -2.289      -0.060       2.899
   full:       -2.513      -0.084       2.994       9.938

 projected vibrational frequencies (cm⁻¹)
eigval :       -0.00    -0.00    -0.00     0.00     0.00     0.00
eigval :       18.41    19.29    26.19    30.37    33.98    37.83
eigval :       39.23    46.11    51.13    54.25    63.84    68.18
eigval :       72.45    85.73   100.50   115.36   145.82   150.99
eigval :      157.34   169.13   192.24   209.66   211.19   228.79
eigval :      232.16   234.89   245.45   256.58   270.37   273.85
eigval :      285.93   297.14   309.71   349.42   362.11   364.29
eigval :      365.92   366.62   369.88   409.72   416.07   433.48
eigval :      445.98   458.32   470.16   486.92   502.93   507.02
eigval :      517.95   536.80   538.94   546.73   566.65   567.65
eigval :      585.31   585.57   585.83   586.71   655.75   656.90
eigval :      658.17   659.38   662.28   674.74   687.61   692.28
eigval :      711.16   714.99   719.27   723.69   738.37   741.92
eigval :      743.40   748.41   797.69   804.41   840.29   843.15
eigval :      874.97   878.64   879.76   880.97   888.65   896.29
eigval :      897.48   897.79   904.84   905.23   905.91   917.88
eigval :      920.78   925.84   927.17   928.13   930.16   931.62
eigval :      932.52   936.02   938.22   971.47   972.64   975.09
eigval :      975.88  1061.18  1076.02  1076.62  1078.02  1078.79
eigval :     1093.70  1101.04  1110.83  1112.25  1113.30  1115.85
eigval :     1122.39  1122.85  1126.10  1131.20  1160.46  1170.58
eigval :     1175.78  1177.65  1179.60  1180.01  1180.95  1187.15
eigval :     1188.59  1189.38  1191.00  1193.64  1216.73  1221.17
eigval :     1225.80  1232.67  1267.59  1270.73  1272.65  1273.23
eigval :     1286.37  1320.63  1321.26  1321.28  1324.00  1342.34
eigval :     1352.78  1374.68  1391.36  1421.47  1421.95  1423.71
eigval :     1425.55  1450.70  1450.90  1452.65  1453.84  1456.56
eigval :     1475.41  1563.14  1581.25  1581.43  1582.28  1582.76
eigval :     1583.92  1584.43  1584.99  1585.76  1587.61  1589.31
eigval :     1604.73  3037.20  3055.44  3060.17  3070.00  3070.87
eigval :     3071.90  3073.56  3075.22  3076.79  3076.83  3077.73
eigval :     3078.58  3079.21  3080.22  3082.46  3082.61  3086.82
eigval :     3088.65  3090.23  3091.73  3091.80  3092.54  3093.82
eigval :     3101.29  3103.28  3105.02

   temp. (K)  partition function   enthalpy   heat capacity  entropy
                                   cal/mol     cal/K/mol   cal/K/mol   J/K/mol
 298.15  VIB  0.123E+17            20473.350    124.787    128.266
         ROT  0.363E+08              888.752      2.981     37.574
         INT  0.448E+24            21362.102    127.768    165.840
         TR   0.131E+29             1481.254      4.968     44.878
         TOT                       22843.3560   132.7360   210.7180   881.6440

       T/K    H(0)-H(T)+PV         H(T)/Eh          T*S/Eh         G(T)/Eh
   ------------------------------------------------------------------------
    298.15    0.364032E-01    0.538460E+00    0.100119E+00    0.438341E+00
   ------------------------------------------------------------------------

         :::::::::::::::::::::::::::::::::::::::::::::::::::::
         ::                  THERMODYNAMIC                  ::
         :::::::::::::::::::::::::::::::::::::::::::::::::::::
         :: total free energy        -107.293623594811 Eh   ::
         ::.................................................::
         :: total energy             -107.731964440109 Eh   ::
         :: zero point energy           0.502056548168 Eh   ::
         :: G(RRHO) w/o ZPVE           -0.063715702870 Eh   ::
         :: G(RRHO) contrib.            0.438340845298 Eh   ::
         :::::::::::::::::::::::::::::::::::::::::::::::::::::

           -------------------------------------------------
          | TOTAL ENERGY             -107.731964440109 Eh   |
          | TOTAL ENTHALPY           -107.193504687018 Eh   |
          | TOTAL FREE ENERGY        -107.293623594811 Eh   |
          | GRADIENT NORM               0.000048857143 Eh/α |
          | HOMO-LUMO GAP               3.429647886673 eV   |
           -------------------------------------------------

 * finished run on 2025/08/25 at 13:15:06.437
