   * xtb version 6.7.1 (edcfbbe) compiled by 'albert@albert-system' on 2024-07-22

   ID    Z sym.   atoms
    1    8 O      1, 21, 25
    2   15 P      2, 24
    3    6 C      3-20, 22, 23, 26-41
    4    1 H      42-67

          program call               : xtb data2507/toluene/DBFDPO/DBFDPO_toluene_S0_finalOpt.xtbopt.xyz --gfn 2 --uhf 2 --gbsa toluene --ohess vtight --parallel 40 --molden --ceasefiles --namespace data2507/toluene/DBFDPO/DBFDPO_toluene_T1_preOpt
      * Solvation model:               GBSA
        Solvent                        toluene
        Solvent mass                       9.2140E+01 g/mol
          :  Hamiltonian                  GFN2-xTB          :
 * total energy  :  -107.6036524 Eh     change       -0.5954163E-08 Eh
 * total energy  :  -107.6101180 Eh     change       -0.6465599E-02 Eh
 * total energy  :  -107.6127494 Eh     change       -0.2631418E-02 Eh
 * total energy  :  -107.6129263 Eh     change       -0.1769108E-03 Eh
 * total energy  :  -107.6129851 Eh     change       -0.5878498E-04 Eh
 * total energy  :  -107.6129817 Eh     change        0.3464030E-05 Eh
 * total energy  :  -107.6129965 Eh     change       -0.1485052E-04 Eh
 * total energy  :  -107.6130035 Eh     change       -0.6968272E-05 Eh
 * total energy  :  -107.6130082 Eh     change       -0.4715167E-05 Eh
 * total energy  :  -107.6130139 Eh     change       -0.5725217E-05 Eh
 * total energy  :  -107.6130240 Eh     change       -0.2197824E-05 Eh
 * total energy  :  -107.6130258 Eh     change       -0.1792196E-05 Eh
 * total energy  :  -107.6130271 Eh     change       -0.1310751E-05 Eh
 * total energy  :  -107.6130284 Eh     change       -0.1299404E-05 Eh
 * total energy  :  -107.6130295 Eh     change       -0.1073852E-05 Eh
 * total energy  :  -107.6130302 Eh     change       -0.7023064E-06 Eh
 * total energy  :  -107.6130306 Eh     change       -0.4321425E-06 Eh
 * total energy  :  -107.6130309 Eh     change       -0.2952199E-06 Eh
 * total energy  :  -107.6130310 Eh     change       -0.3101778E-07 Eh
   *** GEOMETRY OPTIMIZATION CONVERGED AFTER 22 ITERATIONS ***

 final structure:
================
67
 xtb: 6.7.1 (edcfbbe)
O            4.61459115726513       -0.16367101680007       -1.72536522377512
P            3.35377967125946       -0.03586239819263       -0.96719818650100
C            2.00390519274114        0.62481157336145       -1.99476408548688
C            1.64503931624139        1.96198610392652       -1.94626237951387
C            0.71170775855433        2.45140640450381       -2.84370132612258
C            0.14312357936422        1.60895166892259       -3.78368027620160
C            0.50794545314597        0.27355208899965       -3.83408245103895
C            1.44380968325327       -0.21833764771914       -2.94402158857961
C            3.51295935819354        1.03470435799013        0.49516448876902
C            4.77410377387138        1.53323135461206        0.79277641019460
C            4.95638945523337        2.32105265163074        1.91579323107633
C            3.88075253864393        2.59597165968356        2.74467927970301
C            2.62284426628226        2.09057571631417        2.44971488486661
C            2.43306358386146        1.30789586045106        1.32601247365318
C            2.80068099238497       -1.62459438654945       -0.30079042239679
C            3.80250187810305       -2.64730093765951       -0.09770046277267
C            3.47596705648028       -3.89566497449042        0.41553029923227
C            2.18652458441833       -4.22108590290692        0.76665129943233
C            1.15776382936284       -3.22395039382311        0.57498847982168
C            1.52383547249696       -1.93440205584659        0.06004702652813
O            0.42091926252884       -1.12883177277029       -0.04648139320448
C           -0.64060102902841       -1.88095014638820        0.33934536201741
C           -1.94707104289227       -1.48294831571520        0.34860722375228
P           -2.32068047410894        0.15752257896553       -0.34496769303078
O           -1.84298567141803        0.31294639010941       -1.73081037060739
C           -1.61357685828262        1.36158641069595        0.81959156805543
C           -1.22244386730581        2.58581701322176        0.29581579116227
C           -0.75727991358544        3.58155723561079        1.13578231839035
C           -0.69063661308317        3.35459876475936        2.50125570998559
C           -1.06629740375180        2.12630244652759        3.02381589480321
C           -1.52680821144098        1.12639779007102        2.18569172994271
C           -4.12334180451686        0.35693900153377       -0.19220938251731
C           -4.85626306569401        0.43109164170116       -1.36833845735819
C           -6.23044729086283        0.58888884552814       -1.32028662818622
C           -6.87137038797131        0.67429097267492       -0.09487728088662
C           -6.13934517638387        0.60655807499191        1.08118988999725
C           -4.76591731080906        0.44983551310640        1.03665027852662
C           -2.90550153796480       -2.43073522603875        0.79845231441378
C           -2.51481755012044       -3.71345068117219        1.22010894335935
C           -1.21192033671365       -4.12607660594450        1.20475620993801
C           -0.21314685388152       -3.19907727156229        0.74833788802587
H            2.09422015489851        2.61148387590963       -1.20678743332083
H            0.42970317262260        3.49416777980715       -2.80974046540075
H           -0.58982478836321        1.99239544003583       -4.47811415841273
H            0.06109994962833       -0.38392638768364       -4.56545993415767
H            1.74954174144038       -1.25723581871111       -2.97490749480626
H            5.59358580933370        1.30049674944407        0.12712202493577
H            5.93541611287587        2.71635896601157        2.14340812041572
H            4.02164512794058        3.20498094434959        3.62541467615505
H            1.78566840348038        2.30766744096368        3.09492064505135
H            1.45488188559957        0.91969554678224        1.07939301217308
H            4.81473543907909       -2.39818911384856       -0.37500508279707
H            4.26235223404835       -4.62464440016576        0.54408674449826
H            1.92537027754687       -5.18330004830685        1.17198811161940
H           -1.28344032351570        2.73047262038922       -0.77374246055025
H           -0.45204978504911        4.53420395785195        0.72865973010835
H           -0.33986740811109        4.13615348100095        3.15939878753560
H           -1.00257536564628        1.94719995632942        4.08761269047109
H           -1.81027708377208        0.16225097585602        2.58557153302013
H           -4.32981677451692        0.36599042302981       -2.31053285560307
H           -6.79954215918561        0.64499746096316       -2.23665996132566
H           -7.94366032790356        0.79742991837890       -0.05522731345819
H           -6.64131373809473        0.67721722415469        2.03506351350816
H           -4.19069366938990        0.40223038662582        1.94943274602577
H           -3.94763740551693       -2.15469124684504        0.80166670885168
H           -3.28470954433142       -4.39159976902121        1.55772487731770
H           -0.91890209786062       -5.11401621193798        1.51752918346994

          :  Hamiltonian                  GFN2-xTB          :
         :: gradient norm              0.000097522401 Eh/a0 ::
         :: HOMO-LUMO gap              0.706839462427 eV    ::
         :: SCC energy              -109.462222259693 Eh    ::
         :: -> dispersion             -0.105641361623 Eh    ::
         :: -> Gsolv                  -0.050144957267 Eh    ::
         :: repulsion energy           1.849191272619 Eh    ::

    * Orbital Energies and Occupations

         #    Occupation            Energy/Eh            Energy/eV
      -------------------------------------------------------------
         1        2.0000           -0.7548552             -20.5407
       ...           ...                  ...                  ...
        88        2.0000           -0.4199862             -11.4284
        89        2.0000           -0.4186521             -11.3921
        90        2.0000           -0.4185233             -11.3886
        91        2.0000           -0.4180158             -11.3748
        92        2.0000           -0.4140654             -11.2673
        93        2.0000           -0.4110760             -11.1859
        94        2.0000           -0.4103924             -11.1673
        95        2.0000           -0.4084787             -11.1153
        96        1.9999           -0.4075576             -11.0902
        97        1.9997           -0.4064619             -11.0604
        98        1.9876           -0.4029933             -10.9660
        99        1.0128           -0.3947043             -10.7405
       100        1.0000           -0.2860980              -7.7851 (HOMO)
       101        0.0000           -0.2601218              -7.0783 (LUMO)
       102        0.0000           -0.2580935              -7.0231
       103                         -0.2463355              -6.7031
       104                         -0.2424623              -6.5977
       105                         -0.2398132              -6.5256
       106                         -0.2377939              -6.4707
       107                         -0.2369732              -6.4484
       108                         -0.2365306              -6.4363
       109                         -0.2300319              -6.2595
       110                         -0.2270671              -6.1788
       111                         -0.2186817              -5.9506
       ...                                ...                  ...
       200                          1.1871176              32.3031
      -------------------------------------------------------------
                  HL-Gap            0.0259762 Eh            0.7068 eV

     #   Z          covCN         q      C6AA      α(0)
     1   8 O        0.808    -0.396    21.615     6.232
     2  15 P        4.052     0.057   157.731    22.560
     3   6 C        2.922     0.022    27.520     8.603
     4   6 C        2.986    -0.020    28.502     8.757
     5   6 C        2.921    -0.022    28.548     8.762
     6   6 C        2.921    -0.015    28.378     8.736
     7   6 C        2.920    -0.016    28.421     8.742
     8   6 C        3.019    -0.012    28.294     8.725
     9   6 C        2.922     0.014    27.693     8.630
    10   6 C        3.020    -0.019    28.456     8.750
    11   6 C        2.919    -0.026    28.644     8.776
    12   6 C        2.920    -0.023    28.578     8.766
    13   6 C        2.920    -0.027    28.675     8.781
    14   6 C        2.980    -0.022    28.558     8.766
    15   6 C        2.900    -0.018    28.456     8.746
    16   6 C        2.994    -0.027    28.662     8.782
    17   6 C        2.905    -0.030    28.743     8.791
    18   6 C        2.905    -0.039    28.965     8.825
    19   6 C        3.048    -0.014    28.311     8.727
    20   6 C        3.139     0.138    24.769     8.145
    21   8 O        1.713    -0.222    17.682     5.677
    22   6 C        3.210     0.147    24.231     8.013
    23   6 C        2.900    -0.023    28.575     8.765
    24  15 P        4.072     0.067   157.300    22.530
    25   8 O        0.808    -0.395    21.610     6.231
    26   6 C        2.921     0.012    27.748     8.638
    27   6 C        3.030    -0.018    28.426     8.745
    28   6 C        2.919    -0.025    28.623     8.773
    29   6 C        2.920    -0.023    28.572     8.766
    30   6 C        2.919    -0.026    28.649     8.777
    31   6 C        2.976    -0.024    28.602     8.773
    32   6 C        2.920     0.009    27.816     8.649
    33   6 C        3.024    -0.019    28.457     8.750
    34   6 C        2.919    -0.026    28.654     8.778
    35   6 C        2.920    -0.023    28.586     8.768
    36   6 C        2.919    -0.026    28.661     8.779
    37   6 C        2.976    -0.026    28.651     8.780
    38   6 C        2.952    -0.034    28.835     8.807
    39   6 C        2.909    -0.028    28.709     8.786
    40   6 C        2.903    -0.042    29.040     8.836
    41   6 C        3.050    -0.012    28.269     8.720
    42   1 H        0.925     0.037     2.489     2.467
    43   1 H        0.926     0.044     2.390     2.417
    44   1 H        0.926     0.047     2.358     2.401
    45   1 H        0.926     0.043     2.408     2.427
    46   1 H        0.925     0.030     2.586     2.515
    47   1 H        0.926     0.054     2.274     2.358
    48   1 H        0.926     0.049     2.326     2.385
    49   1 H        0.926     0.052     2.294     2.368
    50   1 H        0.926     0.048     2.339     2.392
    51   1 H        0.926     0.039     2.468     2.457
    52   1 H        0.926     0.061     2.187     2.313
    53   1 H        0.926     0.057     2.229     2.335
    54   1 H        0.926     0.060     2.204     2.322
    55   1 H        0.926     0.046     2.374     2.410
    56   1 H        0.926     0.045     2.389     2.417
    57   1 H        0.926     0.049     2.334     2.389
    58   1 H        0.926     0.047     2.357     2.401
    59   1 H        0.925     0.040     2.452     2.449
    60   1 H        0.925     0.049     2.334     2.389
    61   1 H        0.926     0.045     2.387     2.416
    62   1 H        0.926     0.048     2.347     2.396
    63   1 H        0.926     0.048     2.348     2.396
    64   1 H        0.926     0.048     2.342     2.393
    65   1 H        0.926     0.053     2.284     2.363
    66   1 H        0.926     0.057     2.234     2.337
    67   1 H        0.926     0.056     2.244     2.342

molecular dipole:
                 x           y           z       tot (Debye)
 q only:       -2.136       0.093       2.873
   full:       -2.372       0.072       2.962       9.645

 projected vibrational frequencies (cm⁻¹)
eigval :       -0.00    -0.00    -0.00    -0.00     0.00     0.00
eigval :       14.69    17.25    21.20    27.75    29.76    34.73
eigval :       38.58    44.22    45.75    53.02    61.94    66.54
eigval :       69.34    82.22    87.53   115.10   138.59   151.06
eigval :      152.67   156.47   186.80   190.68   200.82   210.32
eigval :      228.48   229.74   232.58   250.37   254.15   264.78
eigval :      269.66   271.37   285.23   342.11   354.36   360.95
eigval :      363.52   366.43   367.07   383.83   408.20   419.20
eigval :      429.43   434.50   446.02   463.03   467.47   475.55
eigval :      490.48   499.59   503.83   511.29   534.87   561.35
eigval :      583.22   584.07   585.22   586.28   605.40   618.92
eigval :      649.61   650.30   652.12   656.00   658.46   661.32
eigval :      677.04   683.11   690.67   698.30   713.67   716.11
eigval :      738.12   739.99   740.59   745.67   755.91   785.11
eigval :      797.77   813.80   868.91   873.91   874.91   877.12
eigval :      878.54   893.90   894.79   897.94   903.77   903.93
eigval :      904.01   924.22   925.98   926.38   928.41   928.90
eigval :      930.72   933.74   935.12   938.39   966.98   971.54
eigval :      972.34   974.48  1017.28  1062.81  1074.92  1075.77
eigval :     1077.59  1077.86  1078.19  1107.13  1110.19  1111.21
eigval :     1112.70  1114.07  1115.40  1119.55  1123.35  1125.12
eigval :     1125.93  1142.74  1165.33  1174.07  1174.91  1178.50
eigval :     1179.45  1179.78  1185.56  1187.02  1189.25  1192.44
eigval :     1203.14  1214.63  1225.40  1267.06  1268.42  1270.89
eigval :     1272.59  1274.50  1308.97  1320.36  1320.55  1320.99
eigval :     1323.51  1333.64  1355.91  1369.23  1419.86  1421.58
eigval :     1422.55  1423.28  1424.97  1446.61  1450.71  1452.31
eigval :     1454.68  1468.93  1517.55  1550.98  1572.94  1574.71
eigval :     1580.98  1581.95  1582.71  1583.21  1584.45  1585.03
eigval :     1589.21  3038.17  3056.73  3060.20  3069.56  3072.20
eigval :     3072.63  3073.51  3074.85  3075.19  3076.31  3078.02
eigval :     3079.30  3079.59  3082.29  3082.99  3083.62  3086.14
eigval :     3088.99  3090.88  3091.38  3093.37  3099.30  3100.68
eigval :     3103.47  3116.06  3122.53

   temp. (K)  partition function   enthalpy   heat capacity  entropy
                                   cal/mol     cal/K/mol   cal/K/mol   J/K/mol
 298.15  VIB  0.955E+17            21165.184    127.848    132.982
         ROT  0.365E+08              888.752      2.981     37.584
         INT  0.348E+25            22053.936    130.829    170.566
         TR   0.131E+29             1481.254      4.968     44.878
         TOT                       23535.1900   135.7975   215.4435   901.4157

       T/K    H(0)-H(T)+PV         H(T)/Eh          T*S/Eh         G(T)/Eh
   ------------------------------------------------------------------------
    298.15    0.375057E-01    0.533115E+00    0.102364E+00    0.430751E+00
   ------------------------------------------------------------------------

         :::::::::::::::::::::::::::::::::::::::::::::::::::::
         ::                  THERMODYNAMIC                  ::
         :::::::::::::::::::::::::::::::::::::::::::::::::::::
         :: total free energy        -107.182280211003 Eh   ::
         ::.................................................::
         :: total energy             -107.613030988439 Eh   ::
         :: zero point energy           0.495609230323 Eh   ::
         :: G(RRHO) w/o ZPVE           -0.064858452888 Eh   ::
         :: G(RRHO) contrib.            0.430750777436 Eh   ::
         :::::::::::::::::::::::::::::::::::::::::::::::::::::

           -------------------------------------------------
          | TOTAL ENERGY             -107.613030988439 Eh   |
          | TOTAL ENTHALPY           -107.079916045580 Eh   |
          | TOTAL FREE ENERGY        -107.182280211003 Eh   |
          | GRADIENT NORM               0.000098309745 Eh/α |
          | HOMO-LUMO GAP               0.706847289563 eV   |
           -------------------------------------------------

 * finished run on 2025/08/25 at 13:15:11.086
