   * xtb version 6.7.1 (edcfbbe) compiled by 'albert@albert-system' on 2024-07-22

   ID    Z sym.   atoms
    1    8 O      1, 21, 25
    2   15 P      2, 24
    3    6 C      3-20, 22, 23, 26-41
    4    1 H      42-67

          program call               : xtb data2507/toluene/DBFDPO/DBFDPO.xyz --gfn 2 --gbsa toluene --ohess vtight --parallel 40 --molden --ceasefiles --namespace data2507/toluene/DBFDPO/DBFDPO_toluene_S0_preOpt
      * Solvation model:               GBSA
        Solvent                        toluene
        Solvent mass                       9.2140E+01 g/mol
          :  Hamiltonian                  GFN2-xTB          :
 * total energy  :  -107.7158974 Eh     change       -0.4484093E-09 Eh
 * total energy  :  -107.7286282 Eh     change       -0.1273074E-01 Eh
 * total energy  :  -107.7319596 Eh     change       -0.3331455E-02 Eh
 * total energy  :  -107.7323306 Eh     change       -0.3710292E-03 Eh
 * total energy  :  -107.7325474 Eh     change       -0.2167144E-03 Eh
 * total energy  :  -107.7326760 Eh     change       -0.1286790E-03 Eh
 * total energy  :  -107.7328110 Eh     change       -0.1349719E-03 Eh
 * total energy  :  -107.7329537 Eh     change       -0.1426760E-03 Eh
 * total energy  :  -107.7330505 Eh     change       -0.9684830E-04 Eh
 * total energy  :  -107.7331152 Eh     change       -0.6467562E-04 Eh
 * total energy  :  -107.7339331 Eh     change       -0.2407676E-05 Eh
 * total energy  :  -107.7339355 Eh     change       -0.2390703E-05 Eh
 * total energy  :  -107.7339375 Eh     change       -0.1997610E-05 Eh
 * total energy  :  -107.7339390 Eh     change       -0.1502496E-05 Eh
 * total energy  :  -107.7339402 Eh     change       -0.1201657E-05 Eh
 * total energy  :  -107.7339412 Eh     change       -0.1073114E-05 Eh
 * total energy  :  -107.7339423 Eh     change       -0.1111030E-05 Eh
 * total energy  :  -107.7339436 Eh     change       -0.1266676E-05 Eh
 * total energy  :  -107.7339436 Eh     change       -0.5531078E-08 Eh
   *** GEOMETRY OPTIMIZATION CONVERGED AFTER 94 ITERATIONS ***

 final structure:
================
67
 xtb: 6.7.1 (edcfbbe)
O            2.15531564789533        0.80624836661398       -1.85544448594728
P            2.66471909813399        0.29522212978197       -0.56814296759286
C            1.91411017110357        1.07942845703942        0.88798509622061
C            1.49867171771947        2.39457151743371        0.73845476704828
C            0.94741643830005        3.07269975931195        1.81008001877701
C            0.80811909659258        2.43353547309288        3.03087875703745
C            1.22333910974111        1.12031738817285        3.18113835334066
C            1.78257035033599        0.44183029290960        2.11389806297523
C            4.45830383293430        0.51773548671681       -0.36970449569155
C            5.16874671077245        1.05577258957020       -1.43319335960622
C            6.53423065620948        1.25440480211268       -1.32341788892149
C            7.18673956580478        0.91829854186931       -0.14832008637352
C            6.47625649548984        0.38551402399480        0.91734280688810
C            5.11222286182016        0.18597498075061        0.81114975474908
C            2.37366230567350       -1.49423308697356       -0.37610020754053
C            3.33414717938935       -2.48318995983498       -0.53432969493160
C            2.99674246925610       -3.83279537431103       -0.47311521858584
C            1.69340567205378       -4.24388127296829       -0.26174931786428
C            0.71103386218367       -3.27250713659044       -0.10805778423766
C            1.06890376727224       -1.91169356080413       -0.16918907746484
O           -0.00160513576795       -1.09243483619971        0.00405216528715
C           -1.07161372711654       -1.91230733177803        0.17817022274366
C           -2.37718002902996       -1.49625511434440        0.38270301134822
P           -2.67544230735668        0.29225208301931        0.57287236798702
O           -2.18261664475564        0.80303226769365        1.86677797768038
C           -4.46735274558425        0.50924333034818        0.35399161785671
C           -5.19055420698214        1.05221186822377        1.40629315575977
C           -6.55515469752839        1.24734844164783        1.28030868847592
C           -7.19398638078540        0.90291293412966        0.10012877479278
C           -6.47071783550580        0.36523495780748       -0.95442711987529
C           -5.10755871951313        0.16916309098590       -0.83200441128800
C           -1.91150704173628        1.08247512540979       -0.87301149968887
C           -1.76601398902831        0.44952831565315       -2.09974367299836
C           -1.19794694067086        1.13317099228029       -3.15894422065850
C           -0.78837575972084        2.44714792685937       -3.00024113790273
C           -0.94186720037609        3.08178127633991       -1.77881312094816
C           -1.50136637168351        2.39828856183774       -0.71488554342882
C           -3.33642736553880       -2.48624501121389        0.54242038723374
C           -2.99740086980298       -3.83553844943636        0.48463973490835
C           -1.69339093768160       -4.24532093997653        0.27496119951361
C           -0.71227209567585       -3.27296929473305        0.11978394204936
H            1.60223418285528        2.86196166248733       -0.23122360561866
H            0.62199274817847        4.09632196396255        1.69323710182010
H            0.36675609340261        2.95643778312309        3.86643152261736
H            1.10452645017251        0.62175784561228        4.13214203285189
H            2.10013348365258       -0.58603280104124        2.22694975866537
H            4.63250117377072        1.31036407975499       -2.33691135625956
H            7.08766565771803        1.67181336950867       -2.15175486778092
H            8.25205459569667        1.07288930632098       -0.06064095058443
H            6.98787655891811        0.12737309849815        1.83293552599699
H            4.54946037075303       -0.22505823313095        1.63654392918110
H            4.36049784885125       -2.19124865679011       -0.70451945733784
H            3.77458386060028       -4.57104264464837       -0.59644508951837
H            1.44047773827879       -5.29157776005656       -0.21834240445109
H           -4.66485882366467        1.31323840969422        2.31435890735726
H           -7.11847958518384        1.66839396437858        2.10011722376959
H           -8.25860443077307        1.05464453107031       -0.00015990239547
H           -6.97167520404043        0.10034420965478       -1.87398792808092
H           -4.53495063572079       -0.24571140644269       -1.64866728282329
H           -2.07954797560301       -0.57879548008624       -2.21955099370539
H           -1.06769866403750        0.63804188337856       -4.11022902128445
H           -0.34016000958313        2.97419851481720       -3.82951089149420
H           -0.62085537251874        4.10604540757310       -1.65532862544765
H           -1.61556602312518        2.86199944413736        0.25540674714497
H           -4.36329089812485       -2.19508374238596        0.71098421944539
H           -3.77438903303528       -4.57449499230581        0.60907773354031
H           -1.43898911426356       -5.29275536951279        0.23389312326367

          :  Hamiltonian                  GFN2-xTB          :
         :: gradient norm              0.000062843266 Eh/a0 ::
         :: HOMO-LUMO gap              3.507325807636 eV    ::
         :: SCC energy              -109.605273276212 Eh    ::
         :: -> dispersion             -0.105164477666 Eh    ::
         :: -> Gsolv                  -0.051176765705 Eh    ::
         :: repulsion energy           1.871329661718 Eh    ::

    * Orbital Energies and Occupations

         #    Occupation            Energy/Eh            Energy/eV
      -------------------------------------------------------------
         1        2.0000           -0.7527410             -20.4831
       ...           ...                  ...                  ...
        87        2.0000           -0.4235623             -11.5257
        88        2.0000           -0.4174773             -11.3601
        89        2.0000           -0.4174450             -11.3593
        90        2.0000           -0.4153963             -11.3035
        91        2.0000           -0.4145852             -11.2814
        92        2.0000           -0.4143239             -11.2743
        93        2.0000           -0.4104716             -11.1695
        94        2.0000           -0.4069101             -11.0726
        95        2.0000           -0.4064812             -11.0609
        96        2.0000           -0.4051006             -11.0233
        97        2.0000           -0.4048032             -11.0153
        98        2.0000           -0.4036064             -10.9827
        99        2.0000           -0.4023320             -10.9480 (HOMO)
       100                         -0.2734402              -7.4407 (LUMO)
       101                         -0.2558498              -6.9620
       102                         -0.2553907              -6.9495
       103                         -0.2533844              -6.8949
       104                         -0.2392445              -6.5102
       105                         -0.2381694              -6.4809
       106                         -0.2350826              -6.3969
       107                         -0.2349931              -6.3945
       108                         -0.2315605              -6.3011
       109                         -0.2304302              -6.2703
       110                         -0.2279535              -6.2029
       ...                                ...                  ...
       200                          1.1904877              32.3948
      -------------------------------------------------------------
                  HL-Gap            0.1288918 Eh            3.5073 eV

     #   Z          covCN         q      C6AA      α(0)
     1   8 O        0.808    -0.395    21.606     6.231
     2  15 P        4.068     0.068   157.248    22.526
     3   6 C        2.921     0.015    27.672     8.627
     4   6 C        3.036    -0.018    28.417     8.744
     5   6 C        2.919    -0.023    28.579     8.767
     6   6 C        2.921    -0.018    28.453     8.747
     7   6 C        2.920    -0.021    28.541     8.761
     8   6 C        2.975    -0.020    28.495     8.756
     9   6 C        2.921     0.008    27.832     8.651
    10   6 C        3.018    -0.019    28.467     8.752
    11   6 C        2.919    -0.026    28.657     8.779
    12   6 C        2.920    -0.023    28.584     8.767
    13   6 C        2.919    -0.026    28.649     8.777
    14   6 C        2.982    -0.025    28.622     8.776
    15   6 C        2.908    -0.013    28.327     8.727
    16   6 C        2.967    -0.027    28.671     8.783
    17   6 C        2.920    -0.036    28.886     8.814
    18   6 C        2.913    -0.029    28.733     8.790
    19   6 C        3.055    -0.020    28.453     8.748
    20   6 C        3.219     0.138    24.343     8.023
    21   8 O        1.715    -0.219    17.636     5.670
    22   6 C        3.217     0.138    24.359     8.028
    23   6 C        2.908    -0.012    28.325     8.727
    24  15 P        4.067     0.068   157.254    22.526
    25   8 O        0.808    -0.395    21.607     6.231
    26   6 C        2.921     0.008    27.832     8.651
    27   6 C        3.017    -0.019    28.468     8.752
    28   6 C        2.919    -0.026    28.657     8.779
    29   6 C        2.920    -0.023    28.584     8.767
    30   6 C        2.919    -0.026    28.649     8.777
    31   6 C        2.982    -0.025    28.622     8.776
    32   6 C        2.921     0.015    27.670     8.626
    33   6 C        2.974    -0.019    28.489     8.755
    34   6 C        2.920    -0.021    28.532     8.760
    35   6 C        2.921    -0.018    28.448     8.747
    36   6 C        2.919    -0.023    28.580     8.767
    37   6 C        3.036    -0.018    28.417     8.744
    38   6 C        2.968    -0.027    28.669     8.783
    39   6 C        2.920    -0.036    28.885     8.813
    40   6 C        2.913    -0.029    28.733     8.790
    41   6 C        3.055    -0.020    28.452     8.748
    42   1 H        0.925     0.043     2.404     2.425
    43   1 H        0.926     0.043     2.408     2.427
    44   1 H        0.926     0.046     2.366     2.405
    45   1 H        0.926     0.044     2.401     2.423
    46   1 H        0.925     0.034     2.534     2.489
    47   1 H        0.925     0.049     2.328     2.386
    48   1 H        0.926     0.046     2.370     2.407
    49   1 H        0.926     0.049     2.333     2.389
    50   1 H        0.926     0.048     2.344     2.394
    51   1 H        0.926     0.045     2.381     2.413
    52   1 H        0.926     0.052     2.294     2.368
    53   1 H        0.926     0.059     2.216     2.328
    54   1 H        0.926     0.060     2.194     2.316
    55   1 H        0.925     0.049     2.328     2.386
    56   1 H        0.926     0.046     2.370     2.407
    57   1 H        0.926     0.049     2.333     2.389
    58   1 H        0.926     0.048     2.345     2.394
    59   1 H        0.926     0.045     2.382     2.413
    60   1 H        0.925     0.034     2.536     2.490
    61   1 H        0.926     0.044     2.402     2.424
    62   1 H        0.926     0.046     2.367     2.406
    63   1 H        0.926     0.043     2.409     2.427
    64   1 H        0.925     0.043     2.404     2.425
    65   1 H        0.926     0.052     2.294     2.369
    66   1 H        0.926     0.059     2.216     2.328
    67   1 H        0.926     0.060     2.194     2.316

molecular dipole:
                 x           y           z       tot (Debye)
 q only:        0.021      -1.341      -0.012
   full:        0.022      -1.369      -0.012       3.481

 projected vibrational frequencies (cm⁻¹)
eigval :       -0.00    -0.00    -0.00    -0.00     0.00     0.00
eigval :        8.80    18.97    21.23    24.82    30.05    32.05
eigval :       33.57    41.75    44.39    48.59    60.69    61.59
eigval :       83.58    86.93   100.75   109.87   145.46   153.73
eigval :      154.11   167.99   190.55   196.54   221.54   223.23
eigval :      229.43   232.73   247.63   254.29   268.60   284.55
eigval :      285.41   303.56   312.73   361.47   363.51   363.89
eigval :      368.19   369.32   370.14   409.10   413.13   434.10
eigval :      440.39   448.80   481.35   490.28   496.67   509.71
eigval :      516.49   536.67   539.90   542.39   567.27   571.31
eigval :      585.10   585.14   586.06   586.30   655.76   656.07
eigval :      658.86   658.89   662.00   671.97   690.76   693.03
eigval :      713.51   715.40   715.91   723.08   739.48   740.00
eigval :      744.52   746.25   793.99   800.51   841.33   844.12
eigval :      875.81   876.41   879.02   880.24   887.40   889.37
eigval :      889.98   901.66   902.62   904.09   905.16   916.16
eigval :      917.76   925.58   926.09   928.34   929.11   932.82
eigval :      932.95   933.32   934.24   972.33   972.74   975.12
eigval :      975.15  1061.22  1075.70  1075.94  1079.42  1079.62
eigval :     1090.79  1098.89  1110.23  1110.66  1115.66  1116.30
eigval :     1123.44  1123.91  1127.87  1128.10  1163.00  1171.74
eigval :     1176.60  1177.95  1178.33  1178.43  1181.94  1187.54
eigval :     1188.17  1190.99  1192.86  1195.26  1220.42  1220.85
eigval :     1228.80  1230.08  1267.34  1267.96  1274.09  1274.36
eigval :     1285.25  1321.22  1321.23  1325.36  1325.67  1340.50
eigval :     1352.03  1374.52  1392.32  1422.11  1422.18  1424.09
eigval :     1424.40  1450.53  1450.65  1454.57  1455.99  1456.18
eigval :     1477.59  1562.68  1581.40  1581.61  1583.45  1584.63
eigval :     1584.67  1585.27  1585.82  1588.79  1588.91  1589.13
eigval :     1604.29  3056.06  3056.35  3066.59  3068.81  3069.96
eigval :     3070.06  3074.84  3075.14  3075.28  3075.98  3076.90
eigval :     3077.19  3078.66  3078.91  3080.39  3080.56  3084.95
eigval :     3085.23  3090.84  3091.33  3091.63  3091.74  3093.17
eigval :     3093.36  3102.33  3104.09

   temp. (K)  partition function   enthalpy   heat capacity  entropy
                                   cal/mol     cal/K/mol   cal/K/mol   J/K/mol
 298.15  VIB  0.813E+17            20547.657    124.039    129.380
         ROT  0.385E+08              888.752      2.981     37.691
         INT  0.313E+25            21436.409    127.020    167.072
         TR   0.131E+29             1481.254      4.968     44.878
         TOT                       22917.6630   131.9878   211.9494   886.7965

       T/K    H(0)-H(T)+PV         H(T)/Eh          T*S/Eh         G(T)/Eh
   ------------------------------------------------------------------------
    298.15    0.365216E-01    0.538441E+00    0.100704E+00    0.437737E+00
   ------------------------------------------------------------------------

         :::::::::::::::::::::::::::::::::::::::::::::::::::::
         ::                  THERMODYNAMIC                  ::
         :::::::::::::::::::::::::::::::::::::::::::::::::::::
         :: total free energy        -107.296206521347 Eh   ::
         ::.................................................::
         :: total energy             -107.733943614671 Eh   ::
         :: zero point energy           0.501919492632 Eh   ::
         :: G(RRHO) w/o ZPVE           -0.064182399309 Eh   ::
         :: G(RRHO) contrib.            0.437737093324 Eh   ::
         :::::::::::::::::::::::::::::::::::::::::::::::::::::

           -------------------------------------------------
          | TOTAL ENERGY             -107.733943614671 Eh   |
          | TOTAL ENTHALPY           -107.195502501274 Eh   |
          | TOTAL FREE ENERGY        -107.296206521347 Eh   |
          | GRADIENT NORM               0.000062844824 Eh/α |
          | HOMO-LUMO GAP               3.507325581141 eV   |
           -------------------------------------------------

 * finished run on 2025/08/25 at 13:10:31.336
