   * xtb version 6.7.1 (edcfbbe) compiled by 'albert@albert-system' on 2024-07-22

   ID    Z sym.   atoms
    1    6 C      1-23, 25-29, 33, 34
    2    7 N      24
    3    9 F      30-32
    4    1 H      35-68

          program call               : xtb data2507/gas/4-Ac/4-Ac.xyz --gfn 2 --ohess vtight --parallel 40 --molden --ceasefiles --namespace data2507/gas/4-Ac/4-Ac_gas_S0_preOpt
          :  Hamiltonian                  GFN2-xTB          :
 * total energy  :   -98.7639857 Eh     change       -0.7044321E-09 Eh
 * total energy  :   -98.7751382 Eh     change       -0.1115251E-01 Eh
 * total energy  :   -98.7795240 Eh     change       -0.4385817E-02 Eh
 * total energy  :   -98.7809046 Eh     change       -0.1380597E-02 Eh
 * total energy  :   -98.7814166 Eh     change       -0.5119731E-03 Eh
 * total energy  :   -98.7814790 Eh     change       -0.6249224E-04 Eh
 * total energy  :   -98.7814937 Eh     change       -0.1465099E-04 Eh
 * total energy  :   -98.7814986 Eh     change       -0.4867853E-05 Eh
 * total energy  :   -98.7815012 Eh     change       -0.2601999E-05 Eh
 * total energy  :   -98.7815024 Eh     change       -0.1183726E-05 Eh
 * total energy  :   -98.7815030 Eh     change       -0.6533341E-06 Eh
 * total energy  :   -98.7815033 Eh     change       -0.3263008E-06 Eh
 * total energy  :   -98.7815035 Eh     change       -0.1200830E-06 Eh
 * total energy  :   -98.7815035 Eh     change       -0.4563164E-07 Eh
   *** GEOMETRY OPTIMIZATION CONVERGED AFTER 14 ITERATIONS ***

 final structure:
================
68
 xtb: 6.7.1 (edcfbbe)
C            6.25282902706506       -0.55216173246246       -0.00012051507711
C            5.04475235220286       -1.49249936109594       -0.00005609801325
C            5.12432227525433       -2.37188449944270       -1.25600444303640
C            5.12446228269152       -2.37190304398752        1.25586990753662
C            3.72325991298985       -0.74069285272249        0.00002646791616
C            3.63184396966600        0.64381989816051        0.00009330541179
C            2.40313333218121        1.27257180199185        0.00016375942947
C            1.21609150515859        0.54183124877627        0.00015892018770
C            1.28030581882611       -0.85353647852593        0.00009971725703
C            2.52925947584418       -1.45334073872085        0.00004200795846
C            0.03455794165314       -1.72076948854778        0.00009207895026
C            0.04685257281801       -2.60032865865649        1.26349263712096
C            0.04683944618173       -2.60027907720243       -1.26334438392165
C           -1.23414989068677       -0.88722448602194        0.00011087245595
C           -2.46686871268312       -1.52704042729567        0.00006232306433
C           -3.67579276630169       -0.84745167361473        0.00004427270946
C           -5.02434425122805       -1.54959840677905       -0.00004704735417
C           -4.89931216866841       -3.07562280232766        0.00004065771168
C           -5.80403013905169       -1.13488380555753       -1.25577761966009
C           -5.80429052990348       -1.13476953490502        1.25548344103616
C           -3.61987667647694        0.54255820321014        0.00007868622499
C           -2.41412949671158        1.20755274248833        0.00014344695869
C           -1.20653347758195        0.50746376353555        0.00016211793559
N           -0.00479253162139        1.19967624083824        0.00022915794084
C           -0.02444954113014        2.61701204059741        0.00013880970726
C           -0.03398619660695        3.31243701150351        1.20467847642461
C           -0.05223411325365        4.69417367488667        1.20744279791473
C           -0.06536721480140        5.38077479538610       -0.00006706138075
C           -0.05073271176206        6.88238959964347       -0.00016154136550
F           -0.65583314683665        7.41063108500285        1.07469456860269
F           -0.65470018942302        7.41046185949152       -1.07572695608589
F            1.20573589339968        7.37370726384130        0.00047287355879
C           -0.05207814250858        4.69399696921188       -1.20747292563066
C           -0.03383179623354        3.31226222090560       -1.20450198295415
H            6.25729150198658        0.07823837481977        0.88599998637228
H            6.25716924460746        0.07826976417862       -0.88621951442088
H            7.16965411732658       -1.13844171899490       -0.00019307806861
H            4.32525488936395       -3.10775740927873       -1.27701346735941
H            5.04432445917228       -1.75716387256484       -2.15014858770947
H            6.07442132154372       -2.90139289325024       -1.28431583061870
H            6.07454971144671       -2.90143929625978        1.28405115254940
H            4.32537392298784       -3.10775088996093        1.27697178849291
H            5.04459771838173       -1.75719153790081        2.15003214265834
H            4.51480724441876        1.26108460794070        0.00009390343924
H            2.36604885587604        2.35189878222438        0.00022117878524
H            2.57406370951635       -2.53100659589215        0.00000353796510
H            0.93614061427768       -3.22364575624074        1.29533465785600
H            0.03752165533543       -1.97108159763022        2.15146769950139
H           -0.82353423197841       -3.24981205864655        1.29431472480929
H            0.03750811284440       -1.97099622750959       -2.15129427987598
H           -0.82355034642020       -3.24975678917617       -1.29419003314651
H            0.93612181028495       -3.22360207007761       -1.29521772661408
H           -2.47236156398019       -2.60356554839787        0.00003253768706
H           -4.37618656427896       -3.42597038014675       -0.88691064377684
H           -5.89259784097818       -3.52016771986540        0.00000619597515
H           -4.37628680064729       -3.42587220675621        0.88709003868917
H           -6.76935148631068       -1.63627634938869       -1.28170424270459
H           -5.24823058146058       -1.40838168450440       -2.15034743412021
H           -5.97684759026625       -0.06258025773088       -1.27737822327502
H           -5.97716001202761       -0.06247206510810        1.27693311015716
H           -6.76959743276432       -1.63619683257451        1.28127493496717
H           -5.24865710321057       -1.40814764061918        2.15019299139521
H           -4.52606655697639        1.12866656079110        0.00005363970354
H           -2.40617552502143        2.28744399458675        0.00017460753538
H           -0.02621132650400        2.76298612730215        2.13345230291549
H           -0.06163951261941        5.24019494432880        2.13823148222919
H           -0.06136579607035        5.23987391623526       -2.13834638848945
H           -0.02594073031695        2.76267597446346       -2.13319489303863

          :  Hamiltonian                  GFN2-xTB          :
         :: gradient norm              0.000022237268 Eh/a0 ::
         :: HOMO-LUMO gap              2.020172075423 eV    ::
         :: SCC energy              -100.249272533559 Eh    ::
         :: -> dispersion             -0.082089766989 Eh    ::
         :: repulsion energy           1.467769037478 Eh    ::

    * Orbital Energies and Occupations

         #    Occupation            Energy/Eh            Energy/eV
      -------------------------------------------------------------
         1        2.0000           -0.8773884             -23.8750
       ...           ...                  ...                  ...
        78        2.0000           -0.4407282             -11.9928
        79        2.0000           -0.4348698             -11.8334
        80        2.0000           -0.4319663             -11.7544
        81        2.0000           -0.4294277             -11.6853
        82        2.0000           -0.4251011             -11.5676
        83        2.0000           -0.4211953             -11.4613
        84        2.0000           -0.4136304             -11.2555
        85        2.0000           -0.4038231             -10.9886
        86        2.0000           -0.4030834             -10.9685
        87        2.0000           -0.3960295             -10.7765
        88        2.0000           -0.3939246             -10.7192
        89        2.0000           -0.3903805             -10.6228
        90        2.0000           -0.3442729              -9.3681 (HOMO)
        91                         -0.2700329              -7.3480 (LUMO)
        92                         -0.2607055              -7.0942
        93                         -0.2215969              -6.0300
        94                         -0.2168807              -5.9016
        95                         -0.2158887              -5.8746
        96                         -0.1889964              -5.1429
        97                         -0.1391767              -3.7872
        98                         -0.0915300              -2.4907
        99                         -0.0789549              -2.1485
       100                         -0.0021546              -0.0586
       101                          0.0357238               0.9721
       ...                                ...                  ...
       170                          0.6763615              18.4047
      -------------------------------------------------------------
                  HL-Gap            0.0742400 Eh            2.0202 eV

     #   Z          covCN         q      C6AA      α(0)
     1   6 C        3.761    -0.107    22.596     6.776
     2   6 C        3.903     0.026    20.084     6.370
     3   6 C        3.762    -0.105    22.544     6.768
     4   6 C        3.762    -0.105    22.544     6.768
     5   6 C        2.971    -0.005    28.139     8.701
     6   6 C        2.926    -0.042    29.055     8.840
     7   6 C        2.922    -0.063    29.574     8.918
     8   6 C        2.929     0.053    26.809     8.491
     9   6 C        2.978    -0.016    28.399     8.742
    10   6 C        2.937    -0.043    29.059     8.841
    11   6 C        3.909     0.021    20.159     6.382
    12   6 C        3.761    -0.102    22.500     6.762
    13   6 C        3.761    -0.102    22.500     6.762
    14   6 C        2.979    -0.016    28.415     8.744
    15   6 C        2.934    -0.047    29.167     8.857
    16   6 C        2.971    -0.005    28.139     8.701
    17   6 C        3.903     0.026    20.084     6.370
    18   6 C        3.761    -0.106    22.571     6.773
    19   6 C        3.762    -0.105    22.560     6.771
    20   6 C        3.762    -0.105    22.560     6.771
    21   6 C        2.928    -0.038    28.953     8.824
    22   6 C        2.922    -0.062    29.554     8.915
    23   6 C        2.929     0.053    26.808     8.491
    24   7 N        2.754    -0.075    22.690     7.075
    25   6 C        2.928     0.085    26.109     8.380
    26   6 C        2.923    -0.032    28.792     8.799
    27   6 C        2.920    -0.022    28.551     8.762
    28   6 C        2.977    -0.026    28.655     8.781
    29   6 C        3.336     0.486    17.285     6.584
    30   9 F        0.791    -0.206    11.300     3.971
    31   9 F        0.791    -0.206    11.300     3.971
    32   9 F        0.791    -0.211    11.347     3.979
    33   6 C        2.920    -0.022    28.552     8.762
    34   6 C        2.923    -0.032    28.792     8.799
    35   1 H        0.925     0.035     2.513     2.479
    36   1 H        0.925     0.035     2.513     2.479
    37   1 H        0.925     0.035     2.514     2.480
    38   1 H        0.925     0.034     2.525     2.485
    39   1 H        0.925     0.033     2.542     2.493
    40   1 H        0.925     0.036     2.506     2.476
    41   1 H        0.925     0.036     2.506     2.476
    42   1 H        0.925     0.034     2.525     2.485
    43   1 H        0.925     0.033     2.542     2.493
    44   1 H        0.926     0.035     2.522     2.484
    45   1 H        0.926     0.017     2.776     2.606
    46   1 H        0.926     0.032     2.556     2.500
    47   1 H        0.925     0.038     2.479     2.462
    48   1 H        0.925     0.031     2.574     2.509
    49   1 H        0.925     0.038     2.469     2.457
    50   1 H        0.925     0.031     2.574     2.509
    51   1 H        0.925     0.038     2.469     2.457
    52   1 H        0.925     0.038     2.479     2.462
    53   1 H        0.926     0.039     2.461     2.453
    54   1 H        0.925     0.034     2.527     2.486
    55   1 H        0.925     0.035     2.514     2.480
    56   1 H        0.925     0.034     2.527     2.486
    57   1 H        0.925     0.036     2.504     2.475
    58   1 H        0.925     0.033     2.544     2.494
    59   1 H        0.925     0.036     2.506     2.476
    60   1 H        0.925     0.036     2.506     2.476
    61   1 H        0.925     0.036     2.504     2.475
    62   1 H        0.925     0.033     2.544     2.494
    63   1 H        0.926     0.028     2.619     2.531
    64   1 H        0.926     0.017     2.779     2.607
    65   1 H        0.926     0.061     2.184     2.311
    66   1 H        0.926     0.064     2.154     2.295
    67   1 H        0.926     0.064     2.154     2.295
    68   1 H        0.926     0.061     2.184     2.311

molecular dipole:
                 x           y           z       tot (Debye)
 q only:       -0.025      -1.730       0.000
   full:       -0.036      -1.595       0.000       4.055

 projected vibrational frequencies (cm⁻¹)
eigval :       -0.00     0.00     0.00     0.00     0.00     0.00
eigval :      -33.69    13.52    18.66    23.55    24.31    30.15
eigval :       36.84    58.53    83.22    83.87    99.54   105.27
eigval :      112.78   134.78   156.26   159.26   165.22   174.56
eigval :      177.39   185.63   206.79   218.60   222.72   227.76
eigval :      228.03   229.84   248.21   276.05   302.55   310.58
eigval :      314.51   327.23   336.70   339.85   341.62   349.79
eigval :      352.07   357.60   366.48   369.63   395.51   397.10
eigval :      413.19   420.92   427.74   444.07   444.99   451.68
eigval :      470.46   478.60   485.61   488.46   520.83   534.50
eigval :      565.87   578.22   587.52   588.19   608.06   608.38
eigval :      628.18   646.96   675.29   685.66   688.87   693.13
eigval :      711.01   747.71   810.47   817.72   818.15   821.91
eigval :      849.48   871.76   884.38   892.26   897.71   906.77
eigval :      911.52   915.44   916.84   927.10   927.20   941.14
eigval :      951.77   956.47   959.85   959.92   962.40   962.79
eigval :      962.87   963.38  1004.97  1013.42  1029.44  1035.13
eigval :     1035.19  1035.60  1035.95  1067.03  1072.24  1087.44
eigval :     1099.29  1135.07  1155.15  1160.99  1162.64  1176.48
eigval :     1179.03  1190.34  1214.39  1227.97  1228.02  1232.58
eigval :     1235.22  1239.97  1257.78  1258.96  1261.45  1269.22
eigval :     1278.48  1299.23  1299.80  1312.42  1325.35  1333.67
eigval :     1335.76  1366.07  1401.85  1402.29  1403.15  1403.85
eigval :     1405.73  1405.88  1417.44  1421.25  1423.14  1428.96
eigval :     1429.43  1480.45  1489.70  1490.13  1490.37  1492.24
eigval :     1492.73  1495.33  1495.85  1497.49  1500.12  1503.25
eigval :     1504.49  1505.03  1507.64  1511.06  1514.48  1516.02
eigval :     1520.32  1521.00  1566.92  1573.51  1583.19  1593.36
eigval :     1602.00  1609.65  3020.79  3021.58  3022.62  3022.88
eigval :     3025.87  3027.02  3027.45  3029.17  3029.35  3030.20
eigval :     3030.58  3031.59  3034.40  3036.30  3037.03  3038.30
eigval :     3038.60  3041.29  3045.32  3047.52  3048.02  3048.78
eigval :     3051.01  3052.05  3080.07  3083.72  3093.48  3094.04
eigval :     3096.53  3097.66  3106.67  3107.02  3116.76  3123.79

   temp. (K)  partition function   enthalpy   heat capacity  entropy
                                   cal/mol     cal/K/mol   cal/K/mol   J/K/mol
 298.15  VIB  0.157E+15            19179.455    118.988    117.285
         ROT  0.392E+08              888.752      2.981     37.726
         INT  0.615E+22            20068.208    121.969    155.011
         TR   0.972E+28             1481.254      4.968     44.283
         TOT                       21549.4616   126.9369   199.2936   833.8445

       T/K    H(0)-H(T)+PV         H(T)/Eh          T*S/Eh         G(T)/Eh
   ------------------------------------------------------------------------
    298.15    0.343413E-01    0.592571E+00    0.946908E-01    0.497880E+00
   ------------------------------------------------------------------------

         :::::::::::::::::::::::::::::::::::::::::::::::::::::
         ::                  THERMODYNAMIC                  ::
         :::::::::::::::::::::::::::::::::::::::::::::::::::::
         :: total free energy         -98.283623444965 Eh   ::
         ::.................................................::
         :: total energy              -98.781503496076 Eh   ::
         :: zero point energy           0.558229629618 Eh   ::
         :: G(RRHO) w/o ZPVE           -0.060349578506 Eh   ::
         :: G(RRHO) contrib.            0.497880051111 Eh   ::
         :::::::::::::::::::::::::::::::::::::::::::::::::::::

           -------------------------------------------------
          | TOTAL ENERGY              -98.781503496076 Eh   |
          | TOTAL ENTHALPY            -98.188932613467 Eh   |
          | TOTAL FREE ENERGY         -98.283623444965 Eh   |
          | GRADIENT NORM               0.000022253886 Eh/α |
          | HOMO-LUMO GAP               2.020172454660 eV   |
           -------------------------------------------------

 * finished run on 2025/09/12 at 08:29:20.074
