   * xtb version 6.7.1 (edcfbbe) compiled by 'albert@albert-system' on 2024-07-22

   ID    Z sym.   atoms
    1    6 C      1-23, 25-29, 33, 34
    2    7 N      24
    3    9 F      30-32
    4    1 H      35-68

          program call               : xtb data2507/gas/4-Ac/4-Ac_gas_S0_finalOpt.xtbopt.xyz --gfn 2 --spinpol --tblite --uhf 2 --ohess vtight --parallel 40 --molden --ceasefiles --namespace data2507/gas/4-Ac/4-Ac_gas_T1_preOpt
 * total energy  :   -98.6647622 Eh     change       -0.1109333E-07 Eh
 * total energy  :   -98.6701580 Eh     change       -0.5395746E-02 Eh
 * total energy  :   -98.6712452 Eh     change       -0.1087175E-02 Eh
 * total energy  :   -98.6714808 Eh     change       -0.2356751E-03 Eh
 * total energy  :   -98.6716788 Eh     change       -0.1979464E-03 Eh
 * total energy  :   -98.6717875 Eh     change       -0.1086899E-03 Eh
 * total energy  :   -98.6718779 Eh     change       -0.9045379E-04 Eh
 * total energy  :   -98.6719587 Eh     change       -0.8081260E-04 Eh
 * total energy  :   -98.6720373 Eh     change       -0.7852761E-04 Eh
 * total energy  :   -98.6721226 Eh     change       -0.8530265E-04 Eh
 * total energy  :   -98.6729419 Eh     change       -0.6990440E-06 Eh
 * total energy  :   -98.6729428 Eh     change       -0.8643734E-06 Eh
 * total energy  :   -98.6729436 Eh     change       -0.8149749E-06 Eh
 * total energy  :   -98.6729437 Eh     change       -0.1450465E-06 Eh
 * total energy  :   -98.6729440 Eh     change       -0.2679713E-06 Eh
 * total energy  :   -98.6729438 Eh     change        0.1597516E-06 Eh
 * total energy  :   -98.6729440 Eh     change       -0.1893227E-06 Eh
 * total energy  :   -98.6729441 Eh     change       -0.1083931E-06 Eh
 * total energy  :   -98.6729442 Eh     change       -0.4778266E-07 Eh
   *** GEOMETRY OPTIMIZATION CONVERGED AFTER 49 ITERATIONS ***

 final structure:
================
68
 xtb: 6.7.1 (edcfbbe)
C            2.56227341846037        5.74075469672097       -1.22613650320320
C            3.05324626059539        4.64537313614993       -0.27598220852016
C            4.46273262438407        4.22410215540439       -0.71785949746086
C            3.10931491728459        5.23433857540807        1.14197089276396
C            2.14570324363701        3.42936835533188       -0.27024446858976
C            1.00748661384733        3.32166683926634       -1.07075581494246
C            0.19936818578244        2.21039800400084       -1.01513935816852
C            0.49857511712753        1.15653528873350       -0.14045774249296
C            1.68391925470700        1.21173276923729        0.62698847324490
C            2.46343132441921        2.34223629185798        0.55520094006660
C            1.98314476029066        0.00889318318600        1.49887129575320
C            1.01523204506377        0.00408340462276        2.70167787402105
C            3.41161383116476        0.01605739154985        2.04283026747366
C            1.69595861014675       -1.19690403814597        0.62701842450893
C            2.48678702245060       -2.31952900117220        0.55522239580033
C            2.17995625804521       -3.40980177591366       -0.27017191157886
C            3.09973216650001       -4.61656409090384       -0.27603146756791
C            3.16180696117361       -5.20503862822183        1.14187412099488
C            4.50487151327602       -4.18102495017759       -0.71791622422594
C            2.61985968849688       -5.71677576523895       -1.22627254768376
C            1.04061769795831       -3.31361418262718       -1.07052701681472
C            0.22137856204873       -2.21051078828282       -1.01488554426685
C            0.51010147021244       -1.15362786877924       -0.14036559578663
N           -0.27011123698468       -0.00241663113839       -0.09473498168832
C           -1.63908888301695       -0.00922629837567       -0.07689614498759
C           -2.38153639520557       -1.24306821792995       -0.02074796611715
C           -3.72706477911765       -1.24758107963806       -0.18258108298248
C           -4.43451712281470       -0.02315453512734       -0.36720945399313
C           -5.90644491827257       -0.03047303082157       -0.50430545781977
F           -6.37357847395610       -1.11114449821892       -1.15812091350081
F           -6.38426123127532        1.04530422511082       -1.15848078025854
F           -6.56514704918149       -0.03353090846660        0.69250585399928
C           -3.73927912351587        1.20827881576858       -0.18278959072172
C           -2.39377483031240        1.21717803659522       -0.02095148434364
H            1.56893979096104        6.08427638016120       -0.94718536148443
H            2.54292861811336        5.38767380697903       -2.25449945220843
H            3.23793586975337        6.59215919975112       -1.17740190294027
H            4.89372901626426        3.49693960012120       -0.03533496902955
H            4.42801585282496        3.78090109177006       -1.71084805441938
H            5.11884394601554        5.09117399288064       -0.74920082328053
H            2.11141645655633        5.51596161068827        1.47135313076473
H            3.73951567709680        6.12088244842431        1.15338019841075
H            3.51477881932250        4.52091524738634        1.85395036937994
H            0.74586144771749        4.10486702091193       -1.76222647808309
H           -0.64345120210279        2.11775174283362       -1.68305924418809
H            3.35430014090815        2.39884933714000        1.15746838710318
H            1.18067371482584        0.88949664883278        3.31180357634574
H           -0.02321915944636       -0.00111593825750        2.38133525071532
H            1.18952315986743       -0.87960692506127        3.31183270619224
H            4.13685156022778        0.01968202116449        1.23216183118324
H            3.57929833302400       -0.85800293185211        2.66703483774426
H            3.57054053359709        0.89176193285801        2.66702582268858
H            3.37819828505359       -2.36718194854838        1.15746697584169
H            3.55998964961777       -4.48758290229750        1.85391487731848
H            3.80100515220585       -6.08512019703058        1.15320054447556
H            2.16683172288460       -5.49684278228339        1.47123872905126
H            5.16969792784600       -5.04142895352964       -0.74940297329571
H            4.92854777860262       -3.44964740083016       -0.03531175099099
H            4.46564634339689       -3.73806144441406       -1.71084351808433
H            2.59686096022100       -5.36380633854221       -2.25460050158471
H            3.30414074866149       -6.56127889280101       -1.17766427702583
H            1.63008648843961       -6.07040310212484       -0.94729370221484
H            0.78679596979309       -4.09944319158765       -1.76192657908425
H           -0.62240354419262       -2.12637822644984       -1.68272442420577
H           -1.86140796675482       -2.16131793882711        0.19783427040022
H           -4.28698351217570       -2.16869434049521       -0.13973692465469
H           -4.30833106215419        2.12378584663190       -0.14011731210730
H           -1.88281175553762        2.14059835462189        0.19745950877683

 projected vibrational frequencies (cm⁻¹)
eigval :       -0.00     0.00     0.00     0.00     0.00     0.00
eigval :       14.92    20.85    22.89    23.37    29.83    34.76
eigval :       47.39    78.87    97.57    98.00   112.09   126.37
eigval :      136.31   146.47   149.46   152.72   170.92   175.25
eigval :      191.94   199.61   204.02   217.66   217.79   244.80
eigval :      254.78   267.30   276.00   277.70   280.78   312.04
eigval :      313.60   316.85   322.96   329.02   337.73   341.24
eigval :      354.85   361.28   369.23   371.81   380.72   392.30
eigval :      392.96   398.56   427.75   429.60   447.24   450.03
eigval :      467.78   480.07   488.40   498.60   506.41   514.32
eigval :      544.81   560.87   563.92   584.13   586.51   596.05
eigval :      601.55   623.91   629.63   663.26   669.98   685.69
eigval :      698.06   721.78   767.57   777.59   800.25   822.12
eigval :      823.95   839.87   851.01   865.76   871.21   873.19
eigval :      883.50   889.27   900.98   913.41   915.22   925.34
eigval :      929.73   943.01   948.63   958.58   958.59   961.93
eigval :      962.08   962.71   962.76   969.46  1008.06  1023.08
eigval :     1032.79  1032.86  1034.95  1035.14  1035.18  1067.39
eigval :     1069.97  1094.62  1135.16  1143.53  1143.86  1156.11
eigval :     1156.19  1169.22  1185.06  1203.23  1210.99  1222.65
eigval :     1222.79  1229.81  1231.41  1250.26  1250.71  1256.55
eigval :     1259.04  1260.05  1282.78  1287.67  1302.89  1325.81
eigval :     1327.97  1337.87  1358.46  1394.04  1399.09  1401.08
eigval :     1404.23  1404.61  1404.72  1407.18  1411.54  1425.14
eigval :     1426.61  1428.72  1430.97  1436.44  1451.73  1481.60
eigval :     1488.41  1490.63  1490.87  1491.22  1492.87  1493.14
eigval :     1493.48  1498.99  1499.58  1504.10  1504.36  1506.57
eigval :     1513.75  1513.79  1518.71  1518.82  1520.99  1524.56
eigval :     1528.82  1618.88  3024.68  3024.76  3026.40  3026.47
eigval :     3028.27  3028.99  3029.00  3030.20  3031.37  3032.59
eigval :     3032.72  3033.09  3033.33  3034.61  3037.61  3037.70
eigval :     3040.42  3040.78  3045.83  3046.19  3046.46  3049.76
eigval :     3049.83  3050.07  3086.97  3087.71  3093.03  3095.34
eigval :     3107.77  3108.52  3118.57  3119.10  3120.76  3121.27

   temp. (K)  partition function   enthalpy   heat capacity  entropy
                                   cal/mol     cal/K/mol   cal/K/mol   J/K/mol
 298.15  VIB  0.282E+15            19755.494    122.746    120.091
         ROT  0.383E+08              888.752      2.981     37.682
         INT  0.108E+23            20644.247    125.727    157.772
         TR   0.972E+28             1481.254      4.968     44.283
         TOT                       22125.5008   130.6950   202.0552   845.3989

       T/K    H(0)-H(T)+PV         H(T)/Eh          T*S/Eh         G(T)/Eh
   ------------------------------------------------------------------------
    298.15    0.352592E-01    0.589009E+00    0.960029E-01    0.493006E+00
   ------------------------------------------------------------------------

         :::::::::::::::::::::::::::::::::::::::::::::::::::::
         ::                  THERMODYNAMIC                  ::
         :::::::::::::::::::::::::::::::::::::::::::::::::::::
         :: total free energy         -98.179937884280 Eh   ::
         ::.................................................::
         :: total energy              -98.672944170074 Eh   ::
         :: zero point energy           0.553749989549 Eh   ::
         :: G(RRHO) w/o ZPVE           -0.060743703756 Eh   ::
         :: G(RRHO) contrib.            0.493006285794 Eh   ::
         :::::::::::::::::::::::::::::::::::::::::::::::::::::

           -------------------------------------------------
          | TOTAL ENERGY              -98.672944170074 Eh   |
          | TOTAL ENTHALPY            -98.083934950719 Eh   |
          | TOTAL FREE ENERGY         -98.179937884280 Eh   |
          | GRADIENT NORM               0.000080367845 Eh/α |
           -------------------------------------------------

 * finished run on 2025/09/12 at 08:33:11.979
