   * xtb version 6.7.1 (edcfbbe) compiled by 'albert@albert-system' on 2024-07-22

   ID    Z sym.   atoms
    1    6 C      1-23, 25-29, 33, 34
    2    7 N      24
    3    9 F      30-32
    4    1 H      35-68

          program call               : xtb data2507/gas/4-Ac/4-Ac_gas_S0_crest.xyz --gfn 2 --ohess vtight --parallel 40 --molden --ceasefiles --namespace data2507/gas/4-Ac/4-Ac_gas_S0_finalOpt
          :  Hamiltonian                  GFN2-xTB          :
 * total energy  :   -98.7828000 Eh     change       -0.1808900E-09 Eh
 * total energy  :   -98.7828008 Eh     change       -0.8437899E-06 Eh
 * total energy  :   -98.7828017 Eh     change       -0.8520428E-06 Eh
 * total energy  :   -98.7828032 Eh     change       -0.1540066E-05 Eh
 * total energy  :   -98.7828052 Eh     change       -0.1970042E-05 Eh
 * total energy  :   -98.7828070 Eh     change       -0.1756062E-05 Eh
 * total energy  :   -98.7828082 Eh     change       -0.1235752E-05 Eh
 * total energy  :   -98.7828091 Eh     change       -0.8699128E-06 Eh
 * total energy  :   -98.7828098 Eh     change       -0.7391581E-06 Eh
 * total energy  :   -98.7828105 Eh     change       -0.7294827E-06 Eh
 * total energy  :   -98.7828129 Eh     change       -0.4691031E-06 Eh
 * total energy  :   -98.7828133 Eh     change       -0.4078237E-06 Eh
 * total energy  :   -98.7828137 Eh     change       -0.3860626E-06 Eh
 * total energy  :   -98.7828141 Eh     change       -0.3904575E-06 Eh
 * total energy  :   -98.7828145 Eh     change       -0.4188988E-06 Eh
 * total energy  :   -98.7828150 Eh     change       -0.4433852E-06 Eh
 * total energy  :   -98.7828154 Eh     change       -0.4613876E-06 Eh
 * total energy  :   -98.7828159 Eh     change       -0.4579818E-06 Eh
 * total energy  :   -98.7828159 Eh     change       -0.2219195E-08 Eh
   *** GEOMETRY OPTIMIZATION CONVERGED AFTER 22 ITERATIONS ***

 final structure:
================
68
 xtb: 6.7.1 (edcfbbe)
C            2.73298070336981        5.71899993057899       -1.26141824814414
C            3.10756617062313        4.62241637735407       -0.26088660718669
C            4.54380981528106        4.17125751166819       -0.56223905023179
C            3.03468289808106        5.22018005265674        1.15137596528109
C            2.18137751985875        3.41874496059914       -0.33953735466971
C            1.12920332590224        3.33118512424131       -1.24062631436690
C            0.31281028610940        2.21524789739679       -1.27360034082496
C            0.51717066639006        1.17144374238705       -0.38483431510266
C            1.59055951612492        1.21686835918660        0.50875491350230
C            2.39837659995232        2.33944753474467        0.51415127459373
C            1.79516729594034        0.00805516922446        1.40633020587773
C            0.70578652824915        0.00223866281540        2.49754566560400
C            3.15738585815576        0.01495367613940        2.09949041330165
C            1.60292242715679       -1.20257234709165        0.50846835238903
C            2.42202170921982       -2.31695076400845        0.51368046564468
C            2.21567432644116       -3.39838833902656       -0.33993955029609
C            3.15366827564656       -4.59287833759452       -0.26123398052092
C            3.08691907115687       -5.19099592196669        1.15118389762947
C            4.58536686233885       -4.12774338965419       -0.56296473214781
C            2.78958736102282       -5.69330662662401       -1.26142228578582
C            1.16256278842051       -3.32136280733550       -1.24090573182287
C            0.33502182997560       -2.21367173655459       -1.27375521796558
C            0.52902222347688       -1.16790501276170       -0.38497551438549
N           -0.26586265806153       -0.00222650961818       -0.42855088148211
C           -1.63294975071714       -0.00924869981678       -0.29532351979052
C           -2.34546280886564       -1.21371692141143       -0.18579351199860
C           -3.71536169468377       -1.22006005953648       -0.05483580455782
C           -4.42229929456569       -0.02374919534279       -0.01598846503117
C           -5.90776303495962       -0.03096727403647        0.14071103281232
F           -6.49043671057913       -1.11253974715154       -0.40527754541986
F           -6.50173582651649        1.03905331910777       -0.41599823145120
F           -6.29277839360321       -0.02642313254310        1.43856975596433
C           -3.72790188892717        1.17988060797936       -0.05597726229533
C           -2.35801901482336        1.18780730061546       -0.18690149822859
H            1.72534896992372        6.08604804688228       -1.08101217192809
H            2.80396093466959        5.35672544916933       -2.28430802127731
H            3.41927105393123        6.55654367796955       -1.15438888706397
H            4.89366042617743        3.44372322761965        0.16482331294696
H            4.59551734833257        3.71782061229147       -1.54993260889609
H            5.21688978859132        5.02556188723811       -0.53868626172649
H            2.01465735498557        5.52237269904323        1.37936390549774
H            3.67736721183033        6.09512313272999        1.22089838820758
H            3.35405572896503        4.50449626720541        1.90379381969729
H            0.93385790732900        4.12339634810034       -1.94379842868388
H           -0.47635568415000        2.14673066775376       -2.00748719057893
H            3.22515969230166        2.38310801804939        1.20269017580074
H            0.80547326297818        0.88704748192379        3.12294533267392
H           -0.29371489443972       -0.00291659877920        2.07200858728213
H            0.81470183031178       -0.88167559392388        3.12267646688906
H            3.96643234816202        0.01928692126336        1.37224333601384
H            3.25739550630496       -0.85929073556032        2.73813463926984
H            3.24833614783169        0.88992914615103        2.73848719237454
H            3.24938567263997       -2.35226679470348        1.20200292849978
H            3.39948657115017       -4.47206272782000        1.90336461451928
H            3.73808950082868       -6.05963711495141        1.22077348772588
H            2.06992337660372       -5.50302054663689        1.37945866066061
H            5.26662023284471       -4.97557641585796       -0.54043708797559
H            4.92859068172450       -3.39746534579576        0.16451189154927
H            4.63221183558986       -3.67305353354367       -1.55032329790583
H            2.85731612335419       -5.33075558987605       -2.28443566316318
H            3.48371284420676       -6.52430959987638       -1.15396291207482
H            1.78543271782084       -6.06977538310947       -1.08103189350478
H            0.97506600447804       -4.11548489483557       -1.94405622117720
H           -0.45495914642838       -2.15307537079556       -2.00746442831197
H           -1.81735064010584       -2.15289549503808       -0.17718990563120
H           -4.24388620532845       -2.15817389189104        0.01913155169318
H           -4.26630358263014        2.11244359452778        0.01702302778517
H           -1.83978870347716        2.13247444525507       -0.17914562297931

          :  Hamiltonian                  GFN2-xTB          :
         :: gradient norm              0.000036851939 Eh/a0 ::
         :: HOMO-LUMO gap              3.141426131172 eV    ::
         :: SCC energy              -100.249905002046 Eh    ::
         :: -> dispersion             -0.082373062827 Eh    ::
         :: repulsion energy           1.467089096536 Eh    ::

    * Orbital Energies and Occupations

         #    Occupation            Energy/Eh            Energy/eV
      -------------------------------------------------------------
         1        2.0000           -0.8597272             -23.3944
       ...           ...                  ...                  ...
        78        2.0000           -0.4400751             -11.9751
        79        2.0000           -0.4368523             -11.8874
        80        2.0000           -0.4347136             -11.8292
        81        2.0000           -0.4293951             -11.6844
        82        2.0000           -0.4212972             -11.4641
        83        2.0000           -0.4191919             -11.4068
        84        2.0000           -0.4179008             -11.3717
        85        2.0000           -0.4167750             -11.3410
        86        2.0000           -0.4076417             -11.0925
        87        2.0000           -0.4035947             -10.9824
        88        2.0000           -0.4021241             -10.9424
        89        2.0000           -0.3960110             -10.7760
        90        2.0000           -0.3602594              -9.8032 (HOMO)
        91                         -0.2448141              -6.6617 (LUMO)
        92                         -0.2353067              -6.4030
        93                         -0.2308278              -6.2811
        94                         -0.2251451              -6.1265
        95                         -0.2219070              -6.0384
        96                         -0.2146828              -5.8418
        97                         -0.1142508              -3.1089
        98                         -0.0999304              -2.7192
        99                         -0.0964870              -2.6255
       100                         -0.0006817              -0.0185
       101                          0.0456685               1.2427
       ...                                ...                  ...
       170                          0.6748243              18.3629
      -------------------------------------------------------------
                  HL-Gap            0.1154453 Eh            3.1414 eV

     #   Z          covCN         q      C6AA      α(0)
     1   6 C        3.761    -0.109    22.622     6.780
     2   6 C        3.903     0.026    20.083     6.370
     3   6 C        3.762    -0.106    22.572     6.773
     4   6 C        3.762    -0.106    22.569     6.772
     5   6 C        2.972     0.004    27.935     8.670
     6   6 C        2.925    -0.044    29.081     8.844
     7   6 C        2.918    -0.050    29.231     8.866
     8   6 C        2.952     0.050    26.869     8.502
     9   6 C        2.986    -0.009    28.237     8.717
    10   6 C        2.931    -0.045    29.123     8.850
    11   6 C        3.911     0.023    20.133     6.378
    12   6 C        3.762    -0.099    22.440     6.753
    13   6 C        3.759    -0.105    22.548     6.770
    14   6 C        2.986    -0.009    28.237     8.717
    15   6 C        2.931    -0.045    29.123     8.850
    16   6 C        2.972     0.004    27.935     8.670
    17   6 C        3.903     0.026    20.083     6.370
    18   6 C        3.762    -0.106    22.569     6.772
    19   6 C        3.762    -0.106    22.572     6.773
    20   6 C        3.761    -0.109    22.622     6.780
    21   6 C        2.925    -0.044    29.081     8.844
    22   6 C        2.918    -0.050    29.231     8.866
    23   6 C        2.952     0.050    26.869     8.502
    24   7 N        2.753    -0.065    22.500     7.045
    25   6 C        2.911     0.075    26.325     8.413
    26   6 C        2.924    -0.057    29.412     8.894
    27   6 C        2.919    -0.025    28.627     8.774
    28   6 C        2.975    -0.047    29.162     8.858
    29   6 C        3.336     0.484    17.305     6.588
    30   9 F        0.791    -0.213    11.367     3.983
    31   9 F        0.791    -0.213    11.368     3.983
    32   9 F        0.791    -0.220    11.440     3.995
    33   6 C        2.919    -0.025    28.626     8.774
    34   6 C        2.924    -0.057    29.412     8.894
    35   1 H        0.925     0.037     2.492     2.469
    36   1 H        0.925     0.036     2.496     2.471
    37   1 H        0.925     0.038     2.482     2.464
    38   1 H        0.925     0.036     2.499     2.472
    39   1 H        0.925     0.034     2.528     2.486
    40   1 H        0.925     0.039     2.468     2.457
    41   1 H        0.925     0.035     2.522     2.483
    42   1 H        0.925     0.038     2.469     2.457
    43   1 H        0.925     0.036     2.505     2.475
    44   1 H        0.926     0.041     2.433     2.439
    45   1 H        0.926     0.037     2.486     2.466
    46   1 H        0.926     0.041     2.436     2.441
    47   1 H        0.925     0.038     2.470     2.458
    48   1 H        0.925     0.036     2.503     2.474
    49   1 H        0.925     0.038     2.470     2.458
    50   1 H        0.925     0.038     2.481     2.463
    51   1 H        0.925     0.039     2.460     2.453
    52   1 H        0.925     0.039     2.460     2.453
    53   1 H        0.926     0.041     2.436     2.441
    54   1 H        0.925     0.036     2.506     2.475
    55   1 H        0.925     0.038     2.469     2.457
    56   1 H        0.925     0.035     2.522     2.483
    57   1 H        0.925     0.039     2.468     2.457
    58   1 H        0.925     0.036     2.499     2.472
    59   1 H        0.925     0.034     2.528     2.487
    60   1 H        0.925     0.036     2.496     2.471
    61   1 H        0.925     0.038     2.482     2.464
    62   1 H        0.925     0.037     2.492     2.469
    63   1 H        0.926     0.041     2.433     2.439
    64   1 H        0.926     0.037     2.486     2.466
    65   1 H        0.926     0.047     2.359     2.402
    66   1 H        0.926     0.050     2.321     2.382
    67   1 H        0.926     0.050     2.322     2.383
    68   1 H        0.926     0.047     2.359     2.402

molecular dipole:
                 x           y           z       tot (Debye)
 q only:        3.072       0.015       0.014
   full:        2.970       0.014       0.017       7.550

 projected vibrational frequencies (cm⁻¹)
eigval :       -0.00    -0.00     0.00     0.00     0.00     0.00
eigval :       13.55    21.33    26.83    28.22    33.52    36.09
eigval :       46.65    83.63    92.84   103.06   111.09   133.91
eigval :      136.02   147.07   156.62   169.74   172.43   177.43
eigval :      189.09   199.41   202.68   218.01   218.17   248.60
eigval :      262.07   274.51   281.37   285.86   296.20   314.49
eigval :      320.41   325.03   330.01   343.41   343.89   360.93
eigval :      366.51   368.15   373.94   380.33   384.54   392.80
eigval :      416.60   429.55   432.13   443.98   449.79   453.25
eigval :      469.57   480.28   492.33   514.25   518.87   547.10
eigval :      548.26   572.70   573.19   581.70   605.17   620.03
eigval :      635.25   645.36   675.88   678.85   686.00   705.83
eigval :      725.58   747.10   806.02   808.67   830.00   839.38
eigval :      843.26   862.15   886.04   886.22   896.05   898.44
eigval :      906.84   914.01   926.57   935.64   936.15   941.46
eigval :      952.82   960.59   960.59   962.97   963.09   963.35
eigval :      963.37   972.19   994.37  1010.76  1010.79  1035.39
eigval :     1035.42  1036.13  1036.23  1057.37  1077.39  1083.31
eigval :     1091.66  1147.07  1150.08  1160.25  1162.42  1165.93
eigval :     1185.81  1203.04  1218.88  1227.28  1228.04  1228.12
eigval :     1234.56  1240.12  1254.03  1259.49  1264.92  1270.00
eigval :     1274.09  1288.72  1304.42  1307.06  1330.84  1333.62
eigval :     1343.59  1363.89  1398.86  1403.15  1403.63  1406.20
eigval :     1406.23  1414.94  1416.48  1424.43  1429.06  1430.20
eigval :     1430.56  1466.77  1482.28  1491.88  1491.96  1493.37
eigval :     1494.17  1494.95  1496.51  1500.33  1500.67  1502.90
eigval :     1505.61  1506.59  1509.33  1514.63  1514.68  1519.48
eigval :     1519.58  1527.10  1558.26  1569.79  1577.24  1596.03
eigval :     1598.57  1606.68  3024.15  3024.16  3025.74  3026.06
eigval :     3026.08  3028.46  3028.47  3028.52  3029.35  3032.14
eigval :     3032.19  3032.72  3032.85  3033.19  3037.23  3037.32
eigval :     3039.83  3039.96  3044.17  3046.40  3046.50  3050.12
eigval :     3050.23  3056.29  3085.27  3086.16  3096.45  3097.48
eigval :     3118.26  3118.65  3119.13  3119.41  3120.44  3120.66

   temp. (K)  partition function   enthalpy   heat capacity  entropy
                                   cal/mol     cal/K/mol   cal/K/mol   J/K/mol
 298.15  VIB  0.107E+15            19321.485    120.353    117.386
         ROT  0.380E+08              888.752      2.981     37.666
         INT  0.409E+22            20210.238    123.334    155.053
         TR   0.972E+28             1481.254      4.968     44.283
         TOT                       21691.4917   128.3019   199.3354   834.0192

       T/K    H(0)-H(T)+PV         H(T)/Eh          T*S/Eh         G(T)/Eh
   ------------------------------------------------------------------------
    298.15    0.345676E-01    0.594056E+00    0.947107E-01    0.499346E+00
   ------------------------------------------------------------------------

         :::::::::::::::::::::::::::::::::::::::::::::::::::::
         ::                  THERMODYNAMIC                  ::
         :::::::::::::::::::::::::::::::::::::::::::::::::::::
         :: total free energy         -98.283470234699 Eh   ::
         ::.................................................::
         :: total energy              -98.782815905509 Eh   ::
         :: zero point energy           0.559488747118 Eh   ::
         :: G(RRHO) w/o ZPVE           -0.060143076309 Eh   ::
         :: G(RRHO) contrib.            0.499345670810 Eh   ::
         :::::::::::::::::::::::::::::::::::::::::::::::::::::

           -------------------------------------------------
          | TOTAL ENERGY              -98.782815905509 Eh   |
          | TOTAL ENTHALPY            -98.188759566112 Eh   |
          | TOTAL FREE ENERGY         -98.283470234699 Eh   |
          | GRADIENT NORM               0.000036850410 Eh/α |
          | HOMO-LUMO GAP               3.141426320593 eV   |
           -------------------------------------------------

 * finished run on 2025/09/12 at 08:33:05.746
