   * xtb version 6.7.1 (edcfbbe) compiled by 'albert@albert-system' on 2024-07-22

   ID    Z sym.   atoms
    1    6 C      1-23, 25-29, 33, 34
    2    7 N      24
    3    9 F      30-32
    4    1 H      35-68

          program call               : xtb data2507/gas/4-Ac/4-Ac_gas_T1_crest.xyz --gfn 2 --spinpol --tblite --uhf 2 --ohess vtight --parallel 40 --molden --ceasefiles --namespace data2507/gas/4-Ac/4-Ac_gas_T1_finalOpt
 * total energy  :   -98.6785216 Eh     change        0.2286286E-07 Eh
 * total energy  :   -98.6785242 Eh     change       -0.2616660E-05 Eh
 * total energy  :   -98.6785252 Eh     change       -0.1006270E-05 Eh
 * total energy  :   -98.6785261 Eh     change       -0.9468387E-06 Eh
 * total energy  :   -98.6785272 Eh     change       -0.1019059E-05 Eh
 * total energy  :   -98.6785284 Eh     change       -0.1200054E-05 Eh
 * total energy  :   -98.6785294 Eh     change       -0.1046537E-05 Eh
 * total energy  :   -98.6785300 Eh     change       -0.5608275E-06 Eh
 * total energy  :   -98.6785300 Eh     change       -0.2568321E-07 Eh
 * total energy  :   -98.6785303 Eh     change       -0.3349816E-06 Eh
 * total energy  :   -98.6785308 Eh     change       -0.4839933E-06 Eh
 * total energy  :   -98.6785311 Eh     change       -0.3256401E-06 Eh
 * total energy  :   -98.6785314 Eh     change       -0.2785451E-06 Eh
 * total energy  :   -98.6785316 Eh     change       -0.1784193E-06 Eh
 * total energy  :   -98.6785317 Eh     change       -0.1348606E-06 Eh
 * total energy  :   -98.6785319 Eh     change       -0.1253836E-06 Eh
 * total energy  :   -98.6785319 Eh     change       -0.5845442E-07 Eh
   *** GEOMETRY OPTIMIZATION CONVERGED AFTER 17 ITERATIONS ***

 final structure:
================
68
 xtb: 6.7.1 (edcfbbe)
C            3.93506923144743        5.08843624038409       -0.16536773252253
C            2.41422830242493        5.12381053554916        0.00910399009773
C            2.09874064558114        5.85247524334614        1.32522502159367
C            1.81640255113775        5.90875601196656       -1.16940105746083
C            1.79306742902761        3.74451318654799        0.04657594097617
C            0.38927082340645        3.61399842927501        0.18190211262129
C           -0.21054842894053        2.39180460713948        0.19326327609618
C            0.54757436383227        1.20176520817984        0.06097926592013
C            1.97038470262277        1.30833796819529        0.00078303225825
C            2.53658040856956        2.56514669284354       -0.01738587817536
C            2.84808153877447        0.08022838876248       -0.00693485104875
C            3.74311860702307        0.11991955371570        1.24830812728761
C            3.72252862013865        0.09682342205601       -1.27708928803493
C            2.04997301425604       -1.20120983867216       -0.00033147817865
C            2.69683601397575       -2.41934377568954        0.00908187084509
C            2.03063979278260       -3.64377712456883       -0.04193091640538
C            2.74042277786615       -4.98006521027648       -0.01145293289610
C            2.44908159567891       -5.73364480499093       -1.31895904528542
C            2.21588786333095       -5.79619005964186        1.18063415587410
C            4.25868476188639       -4.84564201958448        0.13496146546077
C            0.62006894727406       -3.60465926543093       -0.15449806886295
C           -0.05749295121823       -2.42307517798916       -0.16025784963625
C            0.62354995510538       -1.18716069938287       -0.04112513697080
N           -0.07313075220844       -0.01315241555312        0.00938568962501
C           -1.49043063367601       -0.05655280399586        0.00214559732795
C           -2.18818822608444       -0.57748350546381        1.11041169844940
C           -3.55556142847695       -0.61028543532833        1.10685719442630
C           -4.27076730934439       -0.13934613022133       -0.01307864079836
C           -5.75313929555409       -0.14216452017697       -0.00323918906859
F           -6.28136807560652       -1.13186058668276        0.74211476622632
F           -6.29610415978451       -0.26376425894737       -1.22997612777073
F           -6.28781546405441        1.00419846196871        0.50498367815197
C           -3.57283767373346        0.38498303771915       -1.12038021293764
C           -2.20577572595681        0.42722585454367       -1.11149894669965
H            4.21153870597648        4.58731153406412       -1.09037712526314
H            4.41542934204457        4.58767379551994        0.67226198246705
H            4.31756589784336        6.10600103763559       -0.20860012169347
H            1.02795563295706        5.96333741387796        1.46956709805009
H            2.50093275023107        5.29573600705345        2.16907188255461
H            2.54677621702669        6.84368058384482        1.31930448051483
H            0.74018000213463        6.01551978833787       -1.06987912295496
H            2.02338124616699        5.39551608471074       -2.10614826116569
H            2.25462241596873        6.90328311021007       -1.21579392517808
H           -0.22476637316044        4.49410090453779        0.28627059663872
H           -1.27961358004561        2.31848311938428        0.31381563013305
H            3.60962264917764        2.63565239850300       -0.07525699096214
H            4.41570141158360       -0.73249462846924        1.27103132963034
H            4.34058211813609        1.02668597553425        1.26665786023689
H            3.12511727232148        0.09650722914569        2.14351235704846
H            4.37655647847760       -0.76976531257926       -1.30594281437226
H            4.33849436508846        0.99066717069324       -1.31075438230770
H            3.08933713654135        0.08000435739647       -2.16178089224235
H            3.77292630270494       -2.41982888017371        0.05035972183067
H            2.96071166614633       -6.69358859440099       -1.31794978374363
H            2.79880675495169       -5.15585761504692       -2.17198030954969
H            1.38535729513494       -5.91464948630046       -1.44322087272897
H            2.71830801398669       -6.76006540300566        1.22281786284601
H            1.14719385027375       -5.97272464748508        1.10112470953156
H            2.40598037017858       -5.26602127708105        2.11151335904219
H            4.69017045311063       -4.31731953220721       -0.71229006553899
H            4.51894977565548       -4.32493317992613        1.05382725493712
H            4.70707362793475       -5.83614900230128        0.17302521973108
H            0.06210042976971       -4.52274000235195       -0.24574112012409
H           -1.13079857380483       -2.41991658872112       -0.26387494204725
H           -1.62793584201735       -0.93190392135304        1.96248665459202
H           -4.09768865751072       -0.99941057377937        1.95435957296225
H           -4.12785374790764        0.74351019518907       -1.97299626422677
H           -1.65827018868008        0.81693998354885       -1.95643226513268

 projected vibrational frequencies (cm⁻¹)
eigval :       -0.00    -0.00     0.00     0.00     0.00     0.00
eigval :        8.58    11.61    21.54    22.67    24.41    35.90
eigval :       37.41    57.81    85.54    86.35    98.82   102.95
eigval :      114.94   139.07   145.76   161.09   165.14   174.09
eigval :      174.89   197.65   204.94   214.05   215.38   219.45
eigval :      221.93   226.54   248.40   258.36   305.98   309.34
eigval :      311.01   315.33   319.53   330.05   335.07   339.42
eigval :      341.34   350.69   367.27   370.44   377.26   385.05
eigval :      387.44   412.53   414.08   430.79   438.79   441.23
eigval :      443.23   478.42   480.60   510.34   513.54   527.80
eigval :      549.76   557.70   575.03   576.10   579.31   603.83
eigval :      605.27   630.05   638.09   656.92   659.29   663.51
eigval :      674.32   729.78   775.49   797.62   799.28   804.77
eigval :      825.99   843.49   865.18   877.79   879.13   882.19
eigval :      882.94   892.78   903.69   903.83   904.76   916.41
eigval :      941.51   945.08   956.89   957.13   957.50   961.15
eigval :      961.60   962.69   962.74   973.41  1010.87  1030.05
eigval :     1030.51  1030.74  1032.17  1039.91  1046.93  1059.30
eigval :     1067.71  1095.49  1127.19  1136.12  1137.65  1141.15
eigval :     1152.65  1161.97  1173.01  1177.92  1183.21  1203.60
eigval :     1210.96  1217.34  1217.86  1224.28  1229.70  1245.45
eigval :     1254.86  1272.01  1288.68  1290.93  1293.98  1306.35
eigval :     1321.77  1325.95  1339.64  1360.26  1370.43  1397.68
eigval :     1402.68  1403.24  1403.57  1403.71  1408.58  1413.86
eigval :     1418.80  1426.02  1427.69  1427.77  1438.71  1446.13
eigval :     1453.83  1485.06  1485.21  1486.34  1489.83  1489.92
eigval :     1492.57  1492.60  1496.99  1499.19  1499.80  1501.07
eigval :     1502.77  1503.70  1507.90  1514.80  1514.93  1519.67
eigval :     1519.72  1607.73  3023.61  3023.70  3025.98  3026.04
eigval :     3027.02  3027.06  3031.83  3031.88  3031.98  3032.38
eigval :     3032.50  3033.57  3035.59  3035.69  3039.66  3039.83
eigval :     3043.66  3046.18  3051.20  3051.29  3052.52  3054.63
eigval :     3054.83  3056.43  3083.86  3086.09  3095.89  3096.09
eigval :     3102.72  3102.84  3109.33  3109.83  3119.61  3120.16

   temp. (K)  partition function   enthalpy   heat capacity  entropy
                                   cal/mol     cal/K/mol   cal/K/mol   J/K/mol
 298.15  VIB  0.498E+16            20129.957    122.787    124.629
         ROT  0.392E+08              888.752      2.981     37.726
         INT  0.195E+24            21018.710    125.767    162.355
         TR   0.972E+28             1481.254      4.968     44.283
         TOT                       22499.9635   130.7356   206.6376   864.5718

       T/K    H(0)-H(T)+PV         H(T)/Eh          T*S/Eh         G(T)/Eh
   ------------------------------------------------------------------------
    298.15    0.358560E-01    0.587564E+00    0.981802E-01    0.489384E+00
   ------------------------------------------------------------------------

         :::::::::::::::::::::::::::::::::::::::::::::::::::::
         ::                  THERMODYNAMIC                  ::
         :::::::::::::::::::::::::::::::::::::::::::::::::::::
         :: total free energy         -98.189147666933 Eh   ::
         ::.................................................::
         :: total energy              -98.678531949945 Eh   ::
         :: zero point energy           0.551708504861 Eh   ::
         :: G(RRHO) w/o ZPVE           -0.062324221849 Eh   ::
         :: G(RRHO) contrib.            0.489384283012 Eh   ::
         :::::::::::::::::::::::::::::::::::::::::::::::::::::

           -------------------------------------------------
          | TOTAL ENERGY              -98.678531949945 Eh   |
          | TOTAL ENTHALPY            -98.090967470965 Eh   |
          | TOTAL FREE ENERGY         -98.189147666933 Eh   |
          | GRADIENT NORM               0.000059799728 Eh/α |
           -------------------------------------------------

 * finished run on 2025/09/12 at 08:36:50.591
