   * xtb version 6.7.1 (edcfbbe) compiled by 'albert@albert-system' on 2024-07-22

   ID    Z sym.   atoms
    1    6 C      1-25
    2    1 H      26-45

          program call               : xtb data2507/gas/CMP/CMP_gas_T1_crest.xyz --gfn 2 --spinpol --tblite --uhf 2 --ohess vtight --parallel 40 --molden --ceasefiles --namespace data2507/gas/CMP/CMP_gas_T1_finalOpt
 * total energy  :   -63.5822476 Eh     change        0.1985769E-07 Eh
 * total energy  :   -63.5822653 Eh     change       -0.1771291E-04 Eh
 * total energy  :   -63.5822731 Eh     change       -0.7751911E-05 Eh
 * total energy  :   -63.5822743 Eh     change       -0.1260407E-05 Eh
 * total energy  :   -63.5822753 Eh     change       -0.9854979E-06 Eh
 * total energy  :   -63.5822765 Eh     change       -0.1175770E-05 Eh
 * total energy  :   -63.5822778 Eh     change       -0.1344488E-05 Eh
 * total energy  :   -63.5822788 Eh     change       -0.1015191E-05 Eh
 * total energy  :   -63.5822795 Eh     change       -0.6154711E-06 Eh
 * total energy  :   -63.5822795 Eh     change       -0.2883989E-07 Eh
   *** GEOMETRY OPTIMIZATION CONVERGED AFTER 10 ITERATIONS ***

 final structure:
================
45
 xtb: 6.7.1 (edcfbbe)
C            2.68926882685505       -3.42436983001677        0.06451032927183
C            2.25712603612701       -2.90255238138414       -1.14323592691494
C            1.41911299927311       -1.80289659294510       -1.16605910574014
C            0.99794436598303       -1.21591266217386        0.02256762938746
C            0.13748260685367        0.00071456945561       -0.00105642382678
C           -1.19644001360115       -0.02308505019721       -0.77495758068242
C           -1.58667196187869        1.18569053882898       -1.50537454217480
C           -2.20641449424986        1.12724683243461       -2.71491511767839
C           -2.52895953892764       -0.09539111152225       -3.31679947781570
C           -2.19940842525410       -1.28199502785642       -2.65010295343789
C           -1.57999097997965       -1.27164939840420       -1.43904004594930
C           -1.17850346796043        0.01987479320167        0.80276517039480
C           -1.54836576397044       -1.19028039896427        1.54151604978458
C           -2.14460640610500       -1.13409324358593        2.76290172118882
C           -2.46049249267481        0.08733657772789        3.37069181237916
C           -2.14755992176599        1.27512786706908        2.69816561218486
C           -1.55178785887018        1.26707239224009        1.47527649457780
C            0.99335408982527        1.22001497301521       -0.04425069423836
C            1.43944968966462        1.80830602924590        1.13462372740435
C            2.27406399704838        2.90999068966245        1.09301115433866
C            2.67822698868799        3.43238323632855       -0.12414753827226
C            2.24565513145235        2.84514115119642       -1.30130854048438
C            1.41082979393134        1.74347565477419       -1.26346487584623
C            1.44397616833676       -1.73835224676820        1.23207400065369
C            2.28179580750012       -2.83821782244831        1.25113874344514
H            3.34296744218477       -4.28384897735983        0.08087187004310
H            2.57340465576442       -3.35436815396745       -2.07208201096156
H            1.07998331452505       -1.39853493428427       -2.10861345464530
H           -1.34551809989513        2.14530043740255       -1.07860996860201
H           -2.46234596728336        2.04764333274728       -3.22085929860274
H           -3.02824985579983       -0.12253931121975       -4.27158072272905
H           -2.44931257871975       -2.22978086927114       -3.10603308845777
H           -1.33312259329827       -2.20550133817586       -0.96142702775990
H           -1.31094247333297       -2.14899462947481        1.11066806237660
H           -2.38629739232724       -2.05542605768386        3.27413315681356
H           -2.94163376666835        0.11265309275971        4.33479846606060
H           -2.39131574072324        2.22199875842646        3.15929032070885
H           -1.31645397590370        2.20181002283313        0.99363396860787
H            1.12284443053664        1.40291213622006        2.08454812607952
H            2.61049218607248        3.36223459380988        2.01453972977168
H            3.32951884797447        4.29328437298372       -0.15518753699172
H            2.55961159516723        3.24685567143849       -2.25366914101362
H            1.07175254125735        1.28773552225883       -2.18230577448547
H            1.12482267607193       -1.28315116079908        2.15828747047211
H            2.61836109549679       -3.23887255225818        2.19618531816546

 projected vibrational frequencies (cm⁻¹)
eigval :       -0.00    -0.00    -0.00     0.00     0.00     0.00
eigval :       38.09    39.26    44.29    48.27    55.96    63.59
eigval :       81.14   129.10   147.67   153.73   208.57   246.48
eigval :      261.03   266.66   268.37   269.35   299.18   365.69
eigval :      376.70   379.68   392.07   398.29   420.34   444.37
eigval :      451.55   507.44   555.03   566.28   575.72   584.56
eigval :      587.60   588.82   594.34   635.50   662.45   664.01
eigval :      676.78   687.65   710.22   731.96   743.84   761.91
eigval :      766.52   784.56   790.29   808.12   817.40   871.21
eigval :      877.65   893.71   898.84   905.76   907.09   909.88
eigval :      913.42   916.27   922.30   924.91   928.62   929.05
eigval :      930.03   931.37   935.54   990.23   994.73  1004.86
eigval :     1049.49  1062.80  1083.34  1085.56  1108.34  1117.81
eigval :     1123.66  1126.65  1165.38  1166.30  1172.91  1181.29
eigval :     1182.11  1194.35  1199.32  1202.32  1233.87  1257.01
eigval :     1257.68  1278.19  1279.11  1280.85  1286.84  1314.41
eigval :     1318.23  1324.69  1333.48  1362.33  1365.64  1392.46
eigval :     1411.74  1428.82  1432.83  1470.61  1472.22  1498.85
eigval :     1505.43  1567.03  1571.03  1578.54  1580.96  1593.29
eigval :     1596.90  3068.24  3068.36  3068.92  3069.07  3073.37
eigval :     3073.96  3074.78  3076.53  3082.62  3085.12  3086.45
eigval :     3089.58  3093.70  3094.68  3100.56  3100.85  3104.94
eigval :     3106.92  3112.75  3113.95

   temp. (K)  partition function   enthalpy   heat capacity  entropy
                                   cal/mol     cal/K/mol   cal/K/mol   J/K/mol
 298.15  VIB  0.472E+08            11235.363     75.559     68.137
         ROT  0.395E+07              888.752      2.981     33.167
         INT  0.187E+15            12124.115     78.540    101.304
         TR   0.555E+28             1481.254      4.968     43.169
         TOT                       13605.3693    83.5081   144.4735   604.4770

       T/K    H(0)-H(T)+PV         H(T)/Eh          T*S/Eh         G(T)/Eh
   ------------------------------------------------------------------------
    298.15    0.216815E-01    0.377522E+00    0.686440E-01    0.308878E+00
   ------------------------------------------------------------------------

         :::::::::::::::::::::::::::::::::::::::::::::::::::::
         ::                  THERMODYNAMIC                  ::
         :::::::::::::::::::::::::::::::::::::::::::::::::::::
         :: total free energy         -63.273401463959 Eh   ::
         ::.................................................::
         :: total energy              -63.582279502687 Eh   ::
         :: zero point energy           0.355840515300 Eh   ::
         :: G(RRHO) w/o ZPVE           -0.046962476573 Eh   ::
         :: G(RRHO) contrib.            0.308878038728 Eh   ::
         :::::::::::::::::::::::::::::::::::::::::::::::::::::

           -------------------------------------------------
          | TOTAL ENERGY              -63.582279502687 Eh   |
          | TOTAL ENTHALPY            -63.204757451300 Eh   |
          | TOTAL FREE ENERGY         -63.273401463959 Eh   |
          | GRADIENT NORM               0.000203056746 Eh/α |
           -------------------------------------------------

 * finished run on 2025/09/10 at 05:08:22.991
