   * xtb version 6.7.1 (edcfbbe) compiled by 'albert@albert-system' on 2024-07-22

   ID    Z sym.   atoms
    1    6 C      1-25
    2    1 H      26-45

          program call               : xtb data2507/gas/CMP/CMP_gas_S0_crest.xyz --gfn 2 --ohess vtight --parallel 40 --molden --ceasefiles --namespace data2507/gas/CMP/CMP_gas_S0_finalOpt
          :  Hamiltonian                  GFN2-xTB          :
 * total energy  :   -63.6900585 Eh     change       -0.5367156E-09 Eh
 * total energy  :   -63.6900592 Eh     change       -0.6794075E-06 Eh
 * total energy  :   -63.6900596 Eh     change       -0.4248579E-06 Eh
 * total energy  :   -63.6900600 Eh     change       -0.4167404E-06 Eh
 * total energy  :   -63.6900603 Eh     change       -0.2532437E-06 Eh
 * total energy  :   -63.6900604 Eh     change       -0.1444664E-06 Eh
 * total energy  :   -63.6900605 Eh     change       -0.5774880E-07 Eh
   *** GEOMETRY OPTIMIZATION CONVERGED AFTER 7 ITERATIONS ***

 final structure:
================
45
 xtb: 6.7.1 (edcfbbe)
C            2.88029750431166        2.01190375051329        2.49990626019830
C            2.59634242752551        0.66943289710916        2.68609227607632
C            1.65513313440729        0.04185442949623        1.89227767817706
C            0.96500274481302        0.74692011277242        0.91047608974811
C           -0.00011124720473       -0.00036546224879        0.00029029534419
C           -0.96244215186026       -0.91228126027016        0.74900613620821
C           -1.65256233169148       -1.89428672523178        0.04416060337854
C           -2.59142712039429       -2.69013593027881        0.67260932184704
C           -2.87298372549778       -2.50589037466470        2.01586407541397
C           -2.21722165534168       -1.51025353222136        2.71690833673383
C           -1.27476201254340       -0.71484550442435        2.08756947388839
C           -0.96427882514871        0.91225811082373       -0.74524609503280
C           -1.65136776609587        1.89476292445802       -0.03814375263271
C           -2.59093872110891        2.69201481384918       -0.66375710027486
C           -2.87631357653031        2.50865793534155       -2.00632439065060
C           -2.22392292118272        1.51225353491148       -2.70941828680340
C           -1.28078284310693        0.71542444818859       -2.08291534152084
C            0.96142295463917       -0.74816352192787       -0.91323915928456
C            1.64807567917005       -0.04355700592554       -1.89780340741436
C            2.58572701343408       -0.67175638745706       -2.69532306150674
C            2.86977405449194       -2.01432878433515       -2.51002493225441
C            2.21786841762628       -2.71494279665290       -1.51154387464922
C            1.27646192963157       -2.08595153230035       -0.71465975212606
C            1.27977254327102        2.08464590959428        0.71102739777377
C            2.22456582586077        2.71307480134956        1.50433321494150
H            3.61532096932244        2.50407890549594        3.11949557090847
H            3.11466423460722        0.10659240039639        3.44877168639345
H            1.45372022444713       -1.00999582979560        2.03400423294321
H           -1.45282508265247       -2.03457836082428       -1.00820319602060
H           -3.10978415046448       -3.45288536196602        0.10989361677460
H           -3.60615434723266       -3.12710652878164        2.50874980342107
H           -2.44128391055239       -1.34566245807810        3.76095061811943
H           -0.78128014415488        0.06360283326618        2.65060025626958
H           -1.44859459443219        2.03440954649177        1.01372510314805
H           -3.10680688359700        3.45521170159017       -0.09936333804295
H           -3.60980075389598        3.13118349853879       -2.49708261762157
H           -2.45108092797662        1.34824141046709       -3.75288142501980
H           -0.79005103968347       -0.06361973322787       -2.64751140903347
H            1.44664561950082        1.00837767212535       -2.03885021004999
H            3.10116810361683       -0.10933712510225       -3.46026544755452
H            3.60198561768919       -2.50698491384888       -3.13254707565401
H            2.44410187682349       -3.75835843904048       -1.34595433936465
H            0.78581599820900       -2.64863600896982        0.06582186684229
H            0.78634766272000        2.64772975417353       -0.06740799652963
H            2.45052865803075        3.75644536902113        1.33809125329234

          :  Hamiltonian                  GFN2-xTB          :
         :: gradient norm              0.000027571899 Eh/a0 ::
         :: HOMO-LUMO gap              4.129124983072 eV    ::
         :: SCC energy               -64.936731079323 Eh    ::
         :: -> dispersion             -0.060793944962 Eh    ::
         :: repulsion energy           1.246670617851 Eh    ::

    * Orbital Energies and Occupations

         #    Occupation            Energy/Eh            Energy/eV
      -------------------------------------------------------------
         1        2.0000           -0.6521188             -17.7451
       ...           ...                  ...                  ...
        48        2.0000           -0.4257185             -11.5844
        49        2.0000           -0.4190990             -11.4043
        50        2.0000           -0.4190419             -11.4027
        51        2.0000           -0.4147670             -11.2864
        52        2.0000           -0.4147601             -11.2862
        53        2.0000           -0.4108891             -11.1809
        54        2.0000           -0.4025290             -10.9534
        55        2.0000           -0.4025268             -10.9533
        56        2.0000           -0.4020470             -10.9403
        57        2.0000           -0.3986087             -10.8467
        58        2.0000           -0.3943666             -10.7313
        59        2.0000           -0.3840116             -10.4495
        60        2.0000           -0.3840092             -10.4494 (HOMO)
        61                         -0.2322667              -6.3203 (LUMO)
        62                         -0.2289445              -6.2299
        63                         -0.2221674              -6.0455
        64                         -0.2221494              -6.0450
        65                         -0.2214556              -6.0261
        66                         -0.2149533              -5.8492
        67                         -0.2092396              -5.6937
        68                         -0.2092236              -5.6933
        69                         -0.0968552              -2.6356
        70                         -0.0962829              -2.6200
        71                         -0.0843370              -2.2949
       ...                                ...                  ...
       120                          0.6686181              18.1940
      -------------------------------------------------------------
                  HL-Gap            0.1517426 Eh            4.1291 eV

     #   Z          covCN         q      C6AA      α(0)
     1   6 C        2.920    -0.033    28.820     8.804
     2   6 C        2.919    -0.031    28.773     8.796
     3   6 C        2.925    -0.035    28.866     8.811
     4   6 C        2.996     0.015    27.655     8.626
     5   6 C        3.921     0.005    20.433     6.424
     6   6 C        2.996     0.015    27.655     8.626
     7   6 C        2.925    -0.035    28.865     8.811
     8   6 C        2.919    -0.031    28.773     8.796
     9   6 C        2.920    -0.033    28.821     8.804
    10   6 C        2.920    -0.031    28.770     8.796
    11   6 C        2.923    -0.036    28.890     8.814
    12   6 C        2.996     0.015    27.655     8.626
    13   6 C        2.925    -0.035    28.865     8.811
    14   6 C        2.919    -0.031    28.773     8.796
    15   6 C        2.920    -0.033    28.821     8.804
    16   6 C        2.920    -0.031    28.770     8.796
    17   6 C        2.923    -0.036    28.890     8.814
    18   6 C        2.996     0.015    27.655     8.626
    19   6 C        2.925    -0.035    28.866     8.811
    20   6 C        2.919    -0.031    28.773     8.796
    21   6 C        2.920    -0.033    28.821     8.804
    22   6 C        2.920    -0.031    28.770     8.796
    23   6 C        2.923    -0.036    28.889     8.814
    24   6 C        2.923    -0.036    28.889     8.814
    25   6 C        2.920    -0.031    28.770     8.796
    26   1 H        0.926     0.029     2.605     2.524
    27   1 H        0.926     0.029     2.603     2.523
    28   1 H        0.926     0.031     2.568     2.506
    29   1 H        0.926     0.031     2.569     2.506
    30   1 H        0.926     0.029     2.603     2.523
    31   1 H        0.926     0.029     2.605     2.524
    32   1 H        0.926     0.029     2.602     2.523
    33   1 H        0.926     0.031     2.574     2.509
    34   1 H        0.926     0.031     2.569     2.506
    35   1 H        0.926     0.029     2.603     2.523
    36   1 H        0.926     0.029     2.605     2.524
    37   1 H        0.926     0.029     2.602     2.523
    38   1 H        0.926     0.031     2.574     2.509
    39   1 H        0.926     0.031     2.568     2.506
    40   1 H        0.926     0.029     2.603     2.523
    41   1 H        0.926     0.029     2.604     2.524
    42   1 H        0.926     0.029     2.602     2.523
    43   1 H        0.926     0.031     2.574     2.509
    44   1 H        0.926     0.031     2.574     2.509
    45   1 H        0.926     0.029     2.602     2.523

molecular dipole:
                 x           y           z       tot (Debye)
 q only:        0.000       0.000      -0.000
   full:        0.000       0.000      -0.000       0.000

 projected vibrational frequencies (cm⁻¹)
eigval :       -0.00    -0.00     0.00     0.00     0.00     0.00
eigval :       18.61    49.80    52.58    56.82    76.07    76.13
eigval :       93.04    93.11   116.12   215.97   216.01   244.92
eigval :      248.75   263.39   281.65   292.04   292.06   334.51
eigval :      366.07   383.37   383.44   390.04   453.85   453.93
eigval :      484.86   520.50   587.61   587.62   587.96   590.06
eigval :      594.03   614.71   614.75   666.63   666.66   679.26
eigval :      683.48   696.49   748.33   748.39   760.38   773.22
eigval :      875.45   883.66   883.71   884.73   900.46   900.52
eigval :      901.57   912.71   912.75   915.84   918.01   927.62
eigval :      931.31   931.33   932.84   937.79   938.55   940.17
eigval :      940.30   980.50   999.26   999.30  1003.90  1088.86
eigval :     1088.88  1089.75  1091.90  1122.03  1126.95  1131.47
eigval :     1131.49  1180.64  1182.13  1182.97  1183.00  1183.00
eigval :     1200.15  1200.17  1208.42  1214.78  1215.97  1216.08
eigval :     1265.69  1277.01  1288.20  1294.39  1294.42  1314.43
eigval :     1322.03  1322.04  1324.51  1424.67  1435.96  1435.98
eigval :     1437.35  1472.39  1472.40  1475.17  1481.52  1582.89
eigval :     1588.38  1588.38  1590.53  1599.73  1599.74  1601.02
eigval :     1603.87  3071.58  3071.59  3071.78  3072.18  3073.32
eigval :     3074.45  3074.93  3074.94  3082.60  3082.62  3083.51
eigval :     3084.76  3085.52  3087.36  3089.14  3089.17  3092.67
eigval :     3092.68  3092.88  3094.17

   temp. (K)  partition function   enthalpy   heat capacity  entropy
                                   cal/mol     cal/K/mol   cal/K/mol   J/K/mol
 298.15  VIB  0.343E+08            10934.517     73.884     66.936
         ROT  0.404E+07              888.752      2.981     33.213
         INT  0.139E+15            11823.270     76.865    100.148
         TR   0.555E+28             1481.254      4.968     43.169
         TOT                       13304.5237    81.8331   143.3178   599.6416

       T/K    H(0)-H(T)+PV         H(T)/Eh          T*S/Eh         G(T)/Eh
   ------------------------------------------------------------------------
    298.15    0.212021E-01    0.381569E+00    0.680949E-01    0.313474E+00
   ------------------------------------------------------------------------

         :::::::::::::::::::::::::::::::::::::::::::::::::::::
         ::                  THERMODYNAMIC                  ::
         :::::::::::::::::::::::::::::::::::::::::::::::::::::
         :: total free energy         -63.376586493726 Eh   ::
         ::.................................................::
         :: total energy              -63.690060461471 Eh   ::
         :: zero point energy           0.360366763243 Eh   ::
         :: G(RRHO) w/o ZPVE           -0.046892795498 Eh   ::
         :: G(RRHO) contrib.            0.313473967746 Eh   ::
         :::::::::::::::::::::::::::::::::::::::::::::::::::::

           -------------------------------------------------
          | TOTAL ENERGY              -63.690060461471 Eh   |
          | TOTAL ENTHALPY            -63.308491590170 Eh   |
          | TOTAL FREE ENERGY         -63.376586493726 Eh   |
          | GRADIENT NORM               0.000027567939 Eh/α |
          | HOMO-LUMO GAP               4.129125249321 eV   |
           -------------------------------------------------

 * finished run on 2025/09/10 at 05:05:11.725
