   * xtb version 6.7.1 (edcfbbe) compiled by 'albert@albert-system' on 2024-07-22

   ID    Z sym.   atoms
    1    6 C      1-25
    2    1 H      26-45

          program call               : xtb data2507/gas/CMP/CMP_gas_S0_finalOpt.xtbopt.xyz --gfn 2 --spinpol --tblite --uhf 2 --ohess vtight --parallel 40 --molden --ceasefiles --namespace data2507/gas/CMP/CMP_gas_T1_preOpt
 * total energy  :   -63.5423903 Eh     change       -0.3499920E-08 Eh
 * total energy  :   -63.5494488 Eh     change       -0.7058474E-02 Eh
 * total energy  :   -63.5558875 Eh     change       -0.6438722E-02 Eh
 * total energy  :   -63.5599912 Eh     change       -0.4103724E-02 Eh
 * total energy  :   -63.5642787 Eh     change       -0.4287478E-02 Eh
 * total energy  :   -63.5745086 Eh     change       -0.1022989E-01 Eh
 * total energy  :   -63.5753243 Eh     change       -0.8157532E-03 Eh
 * total energy  :   -63.5782858 Eh     change       -0.2961504E-02 Eh
 * total energy  :   -63.5793029 Eh     change       -0.1017101E-02 Eh
 * total energy  :   -63.5798739 Eh     change       -0.5709327E-03 Eh
 * total energy  :   -63.5822766 Eh     change       -0.4079531E-05 Eh
 * total energy  :   -63.5822778 Eh     change       -0.1250049E-05 Eh
 * total energy  :   -63.5822783 Eh     change       -0.4936311E-06 Eh
 * total energy  :   -63.5822787 Eh     change       -0.3530811E-06 Eh
 * total energy  :   -63.5822790 Eh     change       -0.3107543E-06 Eh
 * total energy  :   -63.5822793 Eh     change       -0.2815550E-06 Eh
 * total energy  :   -63.5822796 Eh     change       -0.3494047E-06 Eh
 * total energy  :   -63.5822798 Eh     change       -0.2134482E-06 Eh
 * total energy  :   -63.5822799 Eh     change       -0.2368004E-07 Eh
   *** GEOMETRY OPTIMIZATION CONVERGED AFTER 37 ITERATIONS ***

 final structure:
================
45
 xtb: 6.7.1 (edcfbbe)
C            2.67712513502140        2.06639547704542        2.73500564822174
C            2.25897574701143        0.77601669006788        3.01389831066812
C            1.42227191451964        0.11086328806557        2.13667302008960
C            0.98827612312640        0.73367897124144        0.97109409091041
C            0.12863456308708       -0.00016793536740       -0.00016648895811
C           -1.19629976117220       -0.62926336174605        0.47743825470585
C           -1.57637626679711       -1.93008105063982       -0.07969304569127
C           -2.18079591787595       -2.88740542761399        0.67443473113153
C           -2.49714631811829       -2.67058308472003        2.02121435208728
C           -2.17708333912236       -1.43523565790438        2.59775227803689
C           -1.57251066257037       -0.44894944298894        1.88204949710395
C           -1.19733952779810        0.63009979193330       -0.47331620659424
C           -1.57438424009220        1.93125643639214        0.08508336461559
C           -2.18048785436160        2.88911597211695       -0.66701124520296
C           -2.50155445277579        2.67257441065394       -2.01272010532222
C           -2.18451009521161        1.43695046161083       -2.59033199353541
C           -1.57841211863711        0.45012760254284       -1.87666113393926
C            0.98435955840308       -0.73476862150633       -0.97431129207117
C            1.41498406755233       -0.11232950303335       -2.14134143710063
C            2.24814928774457       -0.77821496441210       -3.02137498994410
C            2.66609847822424       -2.06896223852029       -2.74388967900871
C            2.24926511689983       -2.69035509694889       -1.57863112528594
C            1.41615181153749       -2.02747293566158       -0.69628924116247
C            1.42027149338484        2.02600185363101        0.69161597708943
C            2.25692705355529        2.68815277909215        1.57115095065530
H            3.32964252380150        2.58514673008810        3.42160003919433
H            2.58573098276056        0.28498470541240        3.91890812340906
H            1.09447181793768       -0.89470340029443        2.35644645187854
H           -1.33933251430567       -2.13765649316076       -1.11015804261689
H           -2.42905781806771       -3.83673356917140        0.22082302052450
H           -2.98454655580159       -3.43728225503146        2.60103470385928
H           -2.42247892050155       -1.25844851470623        3.63561388088723
H           -1.33246746048431        0.48482281984550        2.36328164759505
H           -1.33369368957368        2.13862176977998        1.11474522658356
H           -2.42639308139766        3.83866002392169       -0.21256647970569
H           -2.99023683783653        3.43969772251495       -2.59089632867976
H           -2.43359930140732        1.26035908245776       -3.62734455389129
H           -1.34082452581644       -0.48386059481182       -2.35869236973372
H            1.08733555244927        0.89352782498035       -2.36000768121791
H            2.57229771197354       -0.28746483926280       -3.92747431951097
H            3.31584707348958       -2.58828506587600       -3.43267425468385
H            2.57428579616518       -3.69611082491595       -1.35559316570463
H            1.08940327012214       -2.51402930717547        0.21113428168704
H            1.09090653590291        2.51284311425328       -0.21470819924332
H            2.58208608901218        3.69361982322120        1.34701448128127

 projected vibrational frequencies (cm⁻¹)
eigval :       -0.00    -0.00    -0.00    -0.00     0.00     0.00
eigval :       37.93    39.24    44.26    48.09    55.94    63.41
eigval :       81.19   129.10   147.64   153.61   208.66   246.32
eigval :      261.00   266.69   268.31   269.27   299.08   365.70
eigval :      376.66   379.59   391.95   398.29   420.24   444.49
eigval :      451.58   507.39   554.93   566.38   575.81   584.54
eigval :      587.49   588.74   594.24   635.32   662.47   664.09
eigval :      676.72   687.71   710.25   731.95   743.73   761.75
eigval :      766.41   784.33   790.22   808.03   817.31   871.09
eigval :      877.52   893.58   898.75   905.69   906.97   909.96
eigval :      913.35   916.22   922.31   924.81   928.61   929.06
eigval :      929.85   931.19   935.50   990.30   994.30  1004.86
eigval :     1049.51  1062.55  1083.41  1085.48  1108.38  1117.85
eigval :     1123.59  1126.70  1165.19  1166.10  1173.10  1181.02
eigval :     1181.84  1194.10  1199.14  1202.07  1233.74  1257.02
eigval :     1257.77  1278.02  1278.71  1280.93  1286.69  1314.42
eigval :     1318.19  1324.95  1333.77  1362.29  1365.28  1392.04
eigval :     1411.57  1428.53  1432.70  1470.24  1471.77  1498.84
eigval :     1505.42  1566.90  1570.97  1578.47  1580.90  1593.20
eigval :     1596.81  3068.01  3068.14  3068.73  3068.94  3073.08
eigval :     3073.69  3074.61  3076.36  3082.45  3085.08  3086.17
eigval :     3089.53  3093.67  3094.78  3100.35  3100.54  3105.09
eigval :     3106.65  3112.81  3114.00

   temp. (K)  partition function   enthalpy   heat capacity  entropy
                                   cal/mol     cal/K/mol   cal/K/mol   J/K/mol
 298.15  VIB  0.478E+08            11237.270     75.557     68.147
         ROT  0.395E+07              888.752      2.981     33.167
         INT  0.189E+15            12126.022     78.537    101.314
         TR   0.555E+28             1481.254      4.968     43.169
         TOT                       13607.2764    83.5056   144.4833   604.5182

       T/K    H(0)-H(T)+PV         H(T)/Eh          T*S/Eh         G(T)/Eh
   ------------------------------------------------------------------------
    298.15    0.216846E-01    0.377500E+00    0.686487E-01    0.308851E+00
   ------------------------------------------------------------------------

         :::::::::::::::::::::::::::::::::::::::::::::::::::::
         ::                  THERMODYNAMIC                  ::
         :::::::::::::::::::::::::::::::::::::::::::::::::::::
         :: total free energy         -63.273428916656 Eh   ::
         ::.................................................::
         :: total energy              -63.582279874619 Eh   ::
         :: zero point energy           0.355815070444 Eh   ::
         :: G(RRHO) w/o ZPVE           -0.046964112482 Eh   ::
         :: G(RRHO) contrib.            0.308850957963 Eh   ::
         :::::::::::::::::::::::::::::::::::::::::::::::::::::

           -------------------------------------------------
          | TOTAL ENERGY              -63.582279874619 Eh   |
          | TOTAL ENTHALPY            -63.204780228976 Eh   |
          | TOTAL FREE ENERGY         -63.273428916656 Eh   |
          | GRADIENT NORM               0.000019556963 Eh/α |
           -------------------------------------------------

 * finished run on 2025/09/10 at 05:05:14.728
