   * xtb version 6.7.1 (edcfbbe) compiled by 'albert@albert-system' on 2024-07-22

   ID    Z sym.   atoms
    1    6 C      1-25
    2    1 H      26-45

          program call               : xtb data2507/gas/CMP/CMP.xyz --gfn 2 --ohess vtight --parallel 40 --molden --ceasefiles --namespace data2507/gas/CMP/CMP_gas_S0_preOpt
          :  Hamiltonian                  GFN2-xTB          :
 * total energy  :   -63.6718332 Eh     change       -0.9096084E-09 Eh
 * total energy  :   -63.6843635 Eh     change       -0.1253030E-01 Eh
 * total energy  :   -63.6891817 Eh     change       -0.4818189E-02 Eh
 * total energy  :   -63.6897875 Eh     change       -0.6057593E-03 Eh
 * total energy  :   -63.6898653 Eh     change       -0.7789155E-04 Eh
 * total energy  :   -63.6898827 Eh     change       -0.1734368E-04 Eh
 * total energy  :   -63.6898906 Eh     change       -0.7950466E-05 Eh
 * total energy  :   -63.6898969 Eh     change       -0.6248175E-05 Eh
 * total energy  :   -63.6899030 Eh     change       -0.6136216E-05 Eh
 * total energy  :   -63.6899079 Eh     change       -0.4866522E-05 Eh
 * total energy  :   -63.6899193 Eh     change       -0.2098186E-05 Eh
 * total energy  :   -63.6899210 Eh     change       -0.1726097E-05 Eh
 * total energy  :   -63.6899225 Eh     change       -0.1493471E-05 Eh
 * total energy  :   -63.6899238 Eh     change       -0.1292177E-05 Eh
 * total energy  :   -63.6899249 Eh     change       -0.1097451E-05 Eh
 * total energy  :   -63.6899258 Eh     change       -0.9140261E-06 Eh
 * total energy  :   -63.6899266 Eh     change       -0.7587118E-06 Eh
 * total energy  :   -63.6899272 Eh     change       -0.6404050E-06 Eh
 * total energy  :   -63.6899272 Eh     change       -0.6613554E-08 Eh
   *** GEOMETRY OPTIMIZATION CONVERGED AFTER 22 ITERATIONS ***

 final structure:
================
45
 xtb: 6.7.1 (edcfbbe)
C            2.87666960173390       -3.04854376943536       -1.01475001167182
C            2.40859086912815       -2.17954577425309       -1.98472528603434
C            1.46861188905985       -1.21689537155816       -1.66397476163753
C            0.96569644358761       -1.11669384853919       -0.37170171831545
C           -0.00000125594210        0.00000289843435       -0.00000218987909
C           -0.96586399291197        0.37167198946812       -1.11656526044626
C           -1.46876610686275        1.66395041735256       -1.21677489184815
C           -2.40878069341962        1.98468576371024       -2.17940011343492
C           -2.87691984443536        1.01468945790999       -3.04834098534044
C           -2.40899998463228       -0.28263874581260       -2.93389559098749
C           -1.46898672766380       -0.60280912310831       -1.97108185681299
C           -0.96574066788221       -0.37159619950032        1.11668147619812
C           -1.46877908384676       -1.66382171929831        1.21690691824086
C           -2.40875774524519       -1.98447098260466        2.17959492675491
C           -2.87672896971438       -1.01443853978483        3.04858726316341
C           -2.40868306041643        0.28284259585389        2.93411772306890
C           -1.46870023977432        0.60292126706568        1.97124791105815
C            0.96585222658450        1.11659952390247        0.37160690777818
C            1.46890837327269        1.21674547500062        1.66383425032707
C            2.40898191174261        2.17933498121817        1.98450092887540
C            2.87702299151667        3.04830838266462        1.01448563395820
C            2.40896332210465        2.93391362200599       -0.28279648492668
C            1.46888870864256        1.97113785864059       -0.60289528060187
C            1.46878097607913       -1.97125049200518        0.60276469451808
C            2.40875315699120       -2.93409865593113        0.28257987664901
H            3.60844521818214       -3.80216318320279       -1.26560455041775
H            2.77957497411432       -2.24714868280280       -2.99715271033041
H            1.12265931191710       -0.53895449049715       -2.43019102337576
H           -1.12272183139885        2.43020076819692       -0.53892139576755
H           -2.77979016517809        2.99710401731377       -2.24698302488648
H           -3.60880317789643        1.26550984311866       -3.80186618238514
H           -2.78017238230760       -1.05262876211552       -3.59461705258834
H           -1.12309581144618       -1.62249169030123       -1.88754548633752
H           -1.12285918006858       -2.43010153829982        0.53902138509307
H           -2.77982021067538       -2.99686698434572        2.24723838804222
H           -3.60853777038929       -1.26520560922321        3.80220372708701
H           -2.77972928723409        1.05286211020828        3.59487754769787
H           -1.12277515647791        1.62258795872834        1.88763838980074
H            1.12293570834138        0.53886595956102        2.43009437513723
H            2.78006368008710        2.24690868918153        2.99689419936934
H            3.60890079161401        3.80185256030405        1.26526663040674
H            2.78004324409223        3.59467379553375       -1.05279845395031
H            1.12292861689659        1.88760286803602       -1.62255522747125
H            1.12291006378914       -1.88769718464937        1.62245365914471
H            2.77983026634217       -3.59490945614086        1.05254072707855

          :  Hamiltonian                  GFN2-xTB          :
         :: gradient norm              0.000064252320 Eh/a0 ::
         :: HOMO-LUMO gap              4.076286091474 eV    ::
         :: SCC energy               -64.936992651541 Eh    ::
         :: -> dispersion             -0.060726929576 Eh    ::
         :: repulsion energy           1.247065431296 Eh    ::

    * Orbital Energies and Occupations

         #    Occupation            Energy/Eh            Energy/eV
      -------------------------------------------------------------
         1        2.0000           -0.6520993             -17.7445
       ...           ...                  ...                  ...
        48        2.0000           -0.4255503             -11.5798
        49        2.0000           -0.4193916             -11.4122
        50        2.0000           -0.4183751             -11.3846
        51        2.0000           -0.4148400             -11.2884
        52        2.0000           -0.4148386             -11.2883
        53        2.0000           -0.4117010             -11.2030
        54        2.0000           -0.4027787             -10.9602
        55        2.0000           -0.4027783             -10.9602
        56        2.0000           -0.4018308             -10.9344
        57        2.0000           -0.3980386             -10.8312
        58        2.0000           -0.3937952             -10.7157
        59        2.0000           -0.3836378             -10.4393
        60        2.0000           -0.3836341             -10.4392 (HOMO)
        61                         -0.2338333              -6.3629 (LUMO)
        62                         -0.2297420              -6.2516
        63                         -0.2221331              -6.0445
        64                         -0.2221325              -6.0445
        65                         -0.2211173              -6.0169
        66                         -0.2142802              -5.8309
        67                         -0.2079563              -5.6588
        68                         -0.2079539              -5.6587
        69                         -0.0981618              -2.6711
        70                         -0.0970280              -2.6403
        71                         -0.0820218              -2.2319
       ...                                ...                  ...
       120                          0.6695445              18.2192
      -------------------------------------------------------------
                  HL-Gap            0.1498008 Eh            4.0763 eV

     #   Z          covCN         q      C6AA      α(0)
     1   6 C        2.920    -0.033    28.823     8.804
     2   6 C        2.920    -0.031    28.773     8.796
     3   6 C        2.924    -0.035    28.876     8.812
     4   6 C        2.998     0.015    27.657     8.627
     5   6 C        3.920     0.005    20.426     6.423
     6   6 C        2.998     0.015    27.657     8.627
     7   6 C        2.924    -0.035    28.876     8.812
     8   6 C        2.920    -0.031    28.773     8.796
     9   6 C        2.920    -0.033    28.823     8.804
    10   6 C        2.920    -0.031    28.773     8.796
    11   6 C        2.924    -0.035    28.876     8.812
    12   6 C        2.998     0.015    27.657     8.627
    13   6 C        2.924    -0.035    28.876     8.812
    14   6 C        2.920    -0.031    28.773     8.796
    15   6 C        2.920    -0.033    28.823     8.804
    16   6 C        2.920    -0.031    28.773     8.796
    17   6 C        2.924    -0.035    28.876     8.812
    18   6 C        2.998     0.015    27.657     8.627
    19   6 C        2.924    -0.035    28.876     8.812
    20   6 C        2.920    -0.031    28.773     8.796
    21   6 C        2.920    -0.033    28.823     8.804
    22   6 C        2.920    -0.031    28.773     8.796
    23   6 C        2.924    -0.035    28.876     8.812
    24   6 C        2.924    -0.035    28.876     8.812
    25   6 C        2.920    -0.031    28.773     8.796
    26   1 H        0.926     0.029     2.605     2.524
    27   1 H        0.926     0.029     2.602     2.523
    28   1 H        0.926     0.031     2.570     2.507
    29   1 H        0.926     0.031     2.570     2.507
    30   1 H        0.926     0.029     2.602     2.523
    31   1 H        0.926     0.029     2.605     2.524
    32   1 H        0.926     0.029     2.602     2.523
    33   1 H        0.926     0.031     2.570     2.507
    34   1 H        0.926     0.031     2.570     2.507
    35   1 H        0.926     0.029     2.602     2.523
    36   1 H        0.926     0.029     2.605     2.524
    37   1 H        0.926     0.029     2.602     2.523
    38   1 H        0.926     0.031     2.570     2.507
    39   1 H        0.926     0.031     2.570     2.507
    40   1 H        0.926     0.029     2.602     2.523
    41   1 H        0.926     0.029     2.605     2.524
    42   1 H        0.926     0.029     2.602     2.523
    43   1 H        0.926     0.031     2.570     2.507
    44   1 H        0.926     0.031     2.570     2.507
    45   1 H        0.926     0.029     2.602     2.523

molecular dipole:
                 x           y           z       tot (Debye)
 q only:        0.000       0.000      -0.000
   full:        0.000       0.000      -0.000       0.000

 projected vibrational frequencies (cm⁻¹)
eigval :       -0.00    -0.00    -0.00     0.00     0.00     0.00
eigval :      -16.36    48.66    51.93    56.14    81.17    81.17
eigval :       95.58    95.59   118.63   216.50   216.50   242.87
eigval :      247.95   262.60   283.89   293.24   293.24   335.22
eigval :      364.73   386.52   386.52   390.92   451.73   451.73
eigval :      481.36   521.30   587.53   587.53   587.53   590.41
eigval :      592.45   615.11   615.11   665.25   665.26   679.61
eigval :      684.67   698.13   746.75   746.75   760.01   774.09
eigval :      873.16   883.02   884.61   884.61   899.41   899.41
eigval :      903.27   911.89   911.89   916.59   916.81   926.24
eigval :      931.05   931.05   933.40   935.77   940.02   941.53
eigval :      941.53   980.90   999.12   999.12  1003.83  1088.34
eigval :     1088.34  1090.32  1092.32  1120.72  1125.79  1132.35
eigval :     1132.35  1181.69  1181.94  1182.26  1183.19  1183.19
eigval :     1198.64  1198.64  1209.13  1215.35  1216.14  1216.14
eigval :     1268.83  1275.14  1286.66  1294.64  1294.64  1313.05
eigval :     1322.63  1322.63  1323.34  1424.26  1436.39  1436.39
eigval :     1437.35  1471.59  1471.59  1475.20  1482.36  1582.18
eigval :     1588.59  1588.60  1590.23  1599.65  1599.65  1601.05
eigval :     1603.46  3071.68  3071.68  3072.03  3072.40  3073.33
eigval :     3074.51  3075.43  3075.43  3082.79  3082.79  3084.92
eigval :     3085.17  3086.44  3087.52  3090.94  3090.94  3092.80
eigval :     3092.80  3093.71  3095.07

   temp. (K)  partition function   enthalpy   heat capacity  entropy
                                   cal/mol     cal/K/mol   cal/K/mol   J/K/mol
 298.15  VIB  0.342E+08            10918.876     73.910     66.741
         ROT  0.202E+07              888.752      2.981     31.836
         INT  0.693E+14            11807.628     76.891     98.577
         TR   0.555E+28             1481.254      4.968     43.169
         TOT                       13288.8818    81.8589   141.7464   593.0668

       T/K    H(0)-H(T)+PV         H(T)/Eh          T*S/Eh         G(T)/Eh
   ------------------------------------------------------------------------
    298.15    0.211772E-01    0.381574E+00    0.673483E-01    0.314225E+00
   ------------------------------------------------------------------------

         :::::::::::::::::::::::::::::::::::::::::::::::::::::
         ::                  THERMODYNAMIC                  ::
         :::::::::::::::::::::::::::::::::::::::::::::::::::::
         :: total free energy         -63.375701795965 Eh   ::
         ::.................................................::
         :: total energy              -63.689927220244 Eh   ::
         :: zero point energy           0.360396515225 Eh   ::
         :: G(RRHO) w/o ZPVE           -0.046171090946 Eh   ::
         :: G(RRHO) contrib.            0.314225424279 Eh   ::
         :::::::::::::::::::::::::::::::::::::::::::::::::::::

           -------------------------------------------------
          | TOTAL ENERGY              -63.689927220244 Eh   |
          | TOTAL ENTHALPY            -63.308353523836 Eh   |
          | TOTAL FREE ENERGY         -63.375701795965 Eh   |
          | GRADIENT NORM               0.000064252187 Eh/α |
          | HOMO-LUMO GAP               4.076286039498 eV   |
           -------------------------------------------------

 * finished run on 2025/09/10 at 05:04:25.430
