   * xtb version 6.7.1 (edcfbbe) compiled by 'albert@albert-system' on 2024-07-22

   ID    Z sym.   atoms
    1    7 N      1, 5, 19, 34, 36, 57
    2    6 C      2-4, 6-18, 20-33, 35, 37-44, 46-56, 58-69
    3   16 S      45
    4    1 H      70-103

          program call               : xtb data2507/gas/BTCz3CzTPN/BTCz3CzTPN_gas_T1_crest.xyz --gfn 2 --spinpol --tblite --uhf 2 --ohess vtight --parallel 40 --molden --ceasefiles --namespace data2507/gas/BTCz3CzTPN/BTCz3CzTPN_gas_T1_finalOpt
 * total energy  :  -170.9418276 Eh     change        0.6547367E-08 Eh
 * total energy  :  -170.9418371 Eh     change       -0.9479462E-05 Eh
 * total energy  :  -170.9418414 Eh     change       -0.4390769E-05 Eh
 * total energy  :  -170.9418444 Eh     change       -0.2985933E-05 Eh
 * total energy  :  -170.9418463 Eh     change       -0.1857256E-05 Eh
 * total energy  :  -170.9418474 Eh     change       -0.1093034E-05 Eh
 * total energy  :  -170.9418491 Eh     change       -0.1760271E-05 Eh
 * total energy  :  -170.9418503 Eh     change       -0.1120780E-05 Eh
 * total energy  :  -170.9418512 Eh     change       -0.9698656E-06 Eh
 * total energy  :  -170.9418514 Eh     change       -0.1578747E-06 Eh
 * total energy  :  -170.9418522 Eh     change       -0.7992136E-06 Eh
 * total energy  :  -170.9418527 Eh     change       -0.5298962E-06 Eh
 * total energy  :  -170.9418535 Eh     change       -0.8069836E-06 Eh
 * total energy  :  -170.9418542 Eh     change       -0.6285487E-06 Eh
 * total energy  :  -170.9418545 Eh     change       -0.3792019E-06 Eh
 * total energy  :  -170.9418551 Eh     change       -0.5306977E-06 Eh
 * total energy  :  -170.9418553 Eh     change       -0.2004515E-06 Eh
 * total energy  :  -170.9418555 Eh     change       -0.2715720E-06 Eh
 * total energy  :  -170.9418555 Eh     change       -0.6010680E-08 Eh
   *** GEOMETRY OPTIMIZATION CONVERGED AFTER 19 ITERATIONS ***

 final structure:
================
103
 xtb: 6.7.1 (edcfbbe)
N           -2.15037518011453       -3.31134476661404       -2.31831519215754
C           -1.81716527816540       -2.46553427757030       -1.60313299874827
C           -1.42303270462192       -1.46486487333607       -0.72717858515752
C           -2.33438064828296       -0.42550310628938       -0.34992230969668
N           -3.66440744414377       -0.50307111588678       -0.78277006685070
C           -4.56608103201071       -1.49056180427493       -0.44212005417702
C           -4.35483325116339       -2.68559916194763        0.23084535605112
C           -5.45174588308514       -3.48629948239087        0.48388671822439
C           -6.73218192197127       -3.10634580665526        0.09150573832942
C           -6.95154763720069       -1.90728179464787       -0.56281438236454
C           -5.86519412384420       -1.09137351099112       -0.83357070503864
C           -5.72713939090101        0.19804472658373       -1.45669656125521
C           -6.62114428377686        1.08808604964123       -2.02921071980030
C           -6.13034101215026        2.26409533093272       -2.56975222981822
C           -4.76605650461777        2.53684154496964       -2.57874684859000
C           -3.85579737296441        1.66140342042181       -2.01696760326294
C           -4.35028133270463        0.51214224332576       -1.41816308312947
C           -1.90624311469885        0.65884945387976        0.38892080866941
N           -2.81760160249908        1.64440657731413        0.78860231822277
C           -2.76909267306148        2.97757692041609        0.43546573584986
C           -1.76959845580383        3.68188250735102       -0.22065907309461
C           -1.99345242074417        5.01766526183715       -0.49274235482555
C           -3.18639568252126        5.63989793723266       -0.13583515661369
C           -4.19445079347589        4.93797494100055        0.50061764060399
C           -3.98913978912301        3.59886405627392        0.79005754968121
C           -4.80318711503674        2.58305755339654        1.40281152470263
C           -6.07873626237905        2.57186874508834        1.94321119940327
C           -6.55868697013508        1.39115751835827        2.48327069708838
C           -5.76962484727669        0.24595490816141        2.52365651004317
C           -4.49278187429604        0.23552043380410        1.99436459757983
C           -4.03272751725685        1.39896304180266        1.39550449114636
C           -0.53765737992102        0.77590309905630        0.79686183597397
C           -0.13961312858624        1.78133864451283        1.66489244031008
N            0.20320615805391        2.63129509854229        2.37093226627598
C            0.37015730191662       -0.26677369896467        0.42552096123727
N            1.70040120304805       -0.20565482999678        0.86645175385685
C            2.36220826498758       -1.24780781163842        1.48632315922058
C            1.83924908296986       -2.37528104918306        2.10117474007240
C            2.73026220275085       -3.28388200234606        2.64072779805579
C            4.10447970993768       -3.06728257113561        2.59056164216996
C            4.62860624404261       -1.91655178447766        2.02990711212065
C            3.75149762445714       -0.99316692107075        1.48213918960823
C            3.91898174468448        0.28224071827214        0.84876009858643
C            5.01316468834747        1.05844838590498        0.50477052356812
S            6.69087242068070        0.68312586761823        0.78338164906262
C            7.17548581896518        2.18188043777096        0.01589073552279
C            8.47673197471337        2.62227132161545       -0.14935190887850
C            8.68616156085037        3.83588639772811       -0.77766058093680
C            7.61192993335258        4.59499118473830       -1.23237804294290
C            6.31539674548822        4.15401707158413       -1.06737536449555
C            6.07718219920751        2.93418312988001       -0.43736240397213
C            4.82546921282520        2.28432227880325       -0.16099953872779
C            3.53372828692629        2.71548443249186       -0.48316863400339
C            2.43366877699886        1.95248040164226       -0.16714883031338
C            2.62789168898476        0.74262696704907        0.49908715482588
C           -0.05516758396102       -1.34651532035708       -0.32267190877713
N            0.86483262984457       -2.32086155364313       -0.73242123274822
C            2.08381203883129       -2.04818968590099       -1.32150139168491
C            2.52141991559083       -0.87760054880436       -1.92316071694955
C            3.81142657066266       -0.85281002135312       -2.42056227690864
C            4.63512039369167       -1.97109079385088       -2.34559655874076
C            4.17649710400743       -3.16243716739484       -1.80958375846707
C            2.88786047130234       -3.20931268311322       -1.30333071963271
C            2.08883421373369       -4.24329586508757       -0.70106847596211
C            2.32484320731265       -5.57463138743596       -0.39986010235350
C            1.32362156771640       -6.30055846668331        0.22013065315915
C            0.10646587828261       -5.70986344652468        0.54810005902606
C           -0.14837190819172       -4.38214906911209        0.26422944603780
C            0.84553622069387       -3.65341546358222       -0.37326232414659
H           -3.36827514800183       -2.98721942317760        0.54587994049713
H           -5.31243530931052       -4.42521557279037        0.99814408612376
H           -7.56517796606287       -3.75850312857555        0.30686027004855
H           -7.94659519943542       -1.60856304527616       -0.85497434229492
H           -7.67668237918586        0.86501326170863       -2.05432040006533
H           -6.81268896713595        2.97486669630930       -3.01075496323721
H           -4.40813300418003        3.44758463276407       -3.03448410089259
H           -2.79607225380808        1.86220918563447       -2.05685532170227
H           -0.84411721146862        3.20868360575655       -0.50896233441716
H           -1.22756101331388        5.58973295406251       -0.99438035382249
H           -3.32511653574997        6.68571636605711       -0.36518202145516
H           -5.12387643575897        5.41868373152145        0.76473750318582
H           -6.68159649376100        3.46691466651664        1.94425352502014
H           -7.55427210496774        1.36000977963096        2.89931981897457
H           -6.15815211115511       -0.65261573247473        2.97843174079013
H           -3.87306999423943       -0.64578242847993        2.05876834941328
H            0.77368985933497       -2.53428814895626        2.16752387361278
H            2.34983972458524       -4.17834518950398        3.11004898541085
H            4.76910137184061       -3.80441978135334        3.01463145730392
H            5.69205711737505       -1.73383153004205        2.01792920719793
H            9.30347743365306        2.02802661191943        0.20747955836303
H            9.69374990909133        4.19771986036189       -0.91537249782082
H            7.79797227619284        5.54054269482327       -1.71911977016269
H            5.48515180417822        4.74694827092239       -1.41961026956699
H            3.40575778536876        3.65728513125231       -0.99339586218915
H            1.44285229536307        2.28732530175667       -0.42794187932556
H            1.87420686038393       -0.01829853380244       -2.01336768428084
H            4.18324507260565        0.05314906797404       -2.87536356501384
H            5.64138283493419       -1.91117995735383       -2.73159255468864
H            4.80701579772258       -4.03777171410159       -1.78621353277783
H            3.27221289135241       -6.03081411506275       -0.64277802387190
H            1.48619529815837       -7.34098200300646        0.45813201544733
H           -0.65431406936666       -6.30067310092826        1.03548408474176
H           -1.09373939601286       -3.93441938232905        0.52673564949200

 projected vibrational frequencies (cm⁻¹)
eigval :       -0.00    -0.00    -0.00     0.00     0.00     0.00
eigval :       11.21    11.89    16.77    21.09    26.50    29.41
eigval :       33.85    33.90    44.31    51.00    53.84    59.90
eigval :       60.65    73.40    76.94    87.74    99.76   102.35
eigval :      107.39   110.74   112.40   115.67   118.80   124.65
eigval :      129.32   130.50   138.93   141.12   145.54   161.18
eigval :      165.18   192.53   194.91   196.46   211.27   213.36
eigval :      226.74   234.39   249.48   262.54   268.39   272.95
eigval :      275.36   278.17   283.03   293.71   313.82   330.95
eigval :      357.91   369.29   376.94   383.51   391.99   392.82
eigval :      397.54   399.11   401.80   403.18   411.04   416.55
eigval :      419.79   421.21   424.41   431.29   433.97   437.31
eigval :      438.86   443.69   452.89   462.90   480.05   489.57
eigval :      493.02   502.58   508.37   515.31   516.01   517.05
eigval :      519.93   534.78   536.82   538.06   538.59   539.71
eigval :      543.35   548.22   557.86   564.33   577.00   581.53
eigval :      585.13   587.53   593.81   597.42   600.70   618.71
eigval :      628.28   641.01   645.85   652.94   660.84   665.48
eigval :      671.86   672.78   673.68   687.56   689.36   702.25
eigval :      706.89   707.13   707.87   712.71   725.28   740.72
eigval :      752.09   754.63   757.65   763.58   764.98   766.67
eigval :      771.13   774.65   776.84   776.91   778.04   782.49
eigval :      806.88   810.37   837.04   857.02   860.72   862.46
eigval :      864.15   869.44   873.89   874.15   874.80   875.03
eigval :      888.29   889.97   894.05   898.58   898.99   900.02
eigval :      900.92   903.91   904.20   904.40   904.98   905.68
eigval :      918.05   918.34   918.94   920.56   920.62   920.91
eigval :      921.32   921.81   923.59   974.43  1001.20  1010.69
eigval :     1011.90  1013.93  1023.44  1046.57  1063.18  1067.01
eigval :     1067.79  1068.90  1069.58  1070.40  1071.18  1072.44
eigval :     1075.92  1083.63  1111.64  1120.42  1140.64  1140.94
eigval :     1141.38  1143.91  1146.10  1146.64  1156.26  1158.76
eigval :     1174.64  1175.41  1175.95  1178.22  1178.63  1178.73
eigval :     1179.91  1181.28  1191.68  1193.78  1214.64  1221.04
eigval :     1227.99  1229.96  1230.61  1232.48  1235.81  1242.72
eigval :     1258.72  1274.51  1276.25  1281.45  1283.23  1285.26
eigval :     1285.77  1292.89  1295.17  1299.28  1311.57  1322.25
eigval :     1332.11  1342.65  1343.08  1344.42  1345.78  1346.98
eigval :     1352.94  1360.51  1362.26  1365.45  1366.63  1374.67
eigval :     1385.46  1395.77  1398.55  1412.14  1412.78  1414.88
eigval :     1415.70  1418.75  1423.76  1427.65  1446.08  1456.23
eigval :     1462.88  1462.93  1463.54  1472.24  1477.90  1483.38
eigval :     1483.64  1484.05  1523.91  1541.97  1555.72  1565.50
eigval :     1568.91  1569.12  1569.69  1581.15  1582.09  1582.29
eigval :     1582.44  1583.41  1583.73  1584.44  1585.52  1597.86
eigval :     1602.40  1604.30  1607.28  2253.56  2292.97  3081.37
eigval :     3083.18  3083.21  3083.30  3083.60  3083.83  3083.91
eigval :     3084.59  3087.32  3087.55  3087.66  3089.06  3089.16
eigval :     3089.36  3089.38  3090.33  3093.69  3094.60  3094.82
eigval :     3095.96  3096.56  3096.65  3096.82  3097.87  3098.11
eigval :     3101.00  3101.35  3101.42  3101.82  3102.14  3102.93
eigval :     3103.24  3103.69  3109.40

   temp. (K)  partition function   enthalpy   heat capacity  entropy
                                   cal/mol     cal/K/mol   cal/K/mol   J/K/mol
 298.15  VIB  0.463E+24            31569.944    200.735    195.022
         ROT  0.151E+09              888.752      2.981     40.411
         INT  0.701E+32            32458.696    203.716    235.433
         TR   0.259E+29             1481.254      4.968     46.230
         TOT                       33939.9504   208.6840   281.6629  1178.4777

       T/K    H(0)-H(T)+PV         H(T)/Eh          T*S/Eh         G(T)/Eh
   ------------------------------------------------------------------------
    298.15    0.540868E-01    0.810519E+00    0.133827E+00    0.676692E+00
   ------------------------------------------------------------------------

         :::::::::::::::::::::::::::::::::::::::::::::::::::::
         ::                  THERMODYNAMIC                  ::
         :::::::::::::::::::::::::::::::::::::::::::::::::::::
         :: total free energy        -170.265163853624 Eh   ::
         ::.................................................::
         :: total energy             -170.941855556665 Eh   ::
         :: zero point energy           0.756432101644 Eh   ::
         :: G(RRHO) w/o ZPVE           -0.079740398603 Eh   ::
         :: G(RRHO) contrib.            0.676691703041 Eh   ::
         :::::::::::::::::::::::::::::::::::::::::::::::::::::

           -------------------------------------------------
          | TOTAL ENERGY             -170.941855556665 Eh   |
          | TOTAL ENTHALPY           -170.131336701360 Eh   |
          | TOTAL FREE ENERGY        -170.265163853624 Eh   |
          | GRADIENT NORM               0.000064120395 Eh/α |
           -------------------------------------------------

 * finished run on 2025/07/16 at 20:06:44.958
