   * xtb version 6.7.1 (edcfbbe) compiled by 'albert@albert-system' on 2024-07-22

   ID    Z sym.   atoms
    1    7 N      1, 5, 19, 34, 36, 57
    2    6 C      2-4, 6-18, 20-33, 35, 37-44, 46-56, 58-69
    3   16 S      45
    4    1 H      70-103

          program call               : xtb data2507/gas/BTCz3CzTPN/BTCz3CzTPN.xyz --gfn 2 --ohess vtight --parallel 40 --molden --ceasefiles --namespace data2507/gas/BTCz3CzTPN/BTCz3CzTPN_gas_S0_preOpt
          :  Hamiltonian                  GFN2-xTB          :
 * total energy  :  -170.9599590 Eh     change       -0.1096871E-07 Eh
 * total energy  :  -170.9880801 Eh     change       -0.2812102E-01 Eh
 * total energy  :  -170.9964752 Eh     change       -0.8395180E-02 Eh
 * total energy  :  -170.9990960 Eh     change       -0.2620742E-02 Eh
 * total energy  :  -171.0012466 Eh     change       -0.2150586E-02 Eh
 * total energy  :  -171.0027499 Eh     change       -0.1503369E-02 Eh
 * total energy  :  -171.0038186 Eh     change       -0.1068682E-02 Eh
 * total energy  :  -171.0047310 Eh     change       -0.9124112E-03 Eh
 * total energy  :  -171.0053581 Eh     change       -0.6270318E-03 Eh
 * total energy  :  -171.0059032 Eh     change       -0.5451044E-03 Eh
 * total energy  :  -171.0122256 Eh     change       -0.5777150E-06 Eh
 * total energy  :  -171.0122261 Eh     change       -0.5365355E-06 Eh
 * total energy  :  -171.0122267 Eh     change       -0.5837280E-06 Eh
 * total energy  :  -171.0122273 Eh     change       -0.6304694E-06 Eh
 * total energy  :  -171.0122279 Eh     change       -0.5675558E-06 Eh
 * total energy  :  -171.0122284 Eh     change       -0.4755446E-06 Eh
 * total energy  :  -171.0122288 Eh     change       -0.4375203E-06 Eh
 * total energy  :  -171.0122293 Eh     change       -0.4449179E-06 Eh
 * total energy  :  -171.0122293 Eh     change       -0.4390756E-08 Eh
   *** GEOMETRY OPTIMIZATION CONVERGED AFTER 68 ITERATIONS ***

 final structure:
================
103
 xtb: 6.7.1 (edcfbbe)
N           -2.02252914456019       -3.06883705018880       -2.53231071914990
C           -1.68228901339182       -2.31781956695795       -1.73698105680489
C           -1.25098440402634       -1.35750117913952       -0.79039726325387
C           -2.14966565313201       -0.36004891865700       -0.37893889766255
N           -3.47270575124141       -0.39325967601199       -0.81347644012503
C           -4.39513929607913       -1.38818893303157       -0.51609216940212
C           -4.19923457532975       -2.62425696630349        0.07600733405014
C           -5.30913446029691       -3.41799897662776        0.29712276911601
C           -6.58642230501097       -2.98928676598804       -0.05013382519493
C           -6.78855775458094       -1.74799257330403       -0.62071649048166
C           -5.68798134933130       -0.93645823705783       -0.85536557930678
C           -5.53731019620154        0.38879136084506       -1.39190101220502
C           -6.42902834805220        1.32773035807792       -1.88955209642505
C           -5.93155284456244        2.52837773159883       -2.35814655474284
C           -4.56353503184430        2.78197972735603       -2.37357915890099
C           -3.65679265406867        1.85837027678305       -1.88869733654946
C           -4.15878330450571        0.68232206607541       -1.35693814399811
C           -1.69041362046740        0.67489901871960        0.45459024097996
N           -2.55116099785595        1.68200338030786        0.88533313571658
C           -2.42721022855208        3.03236430116060        0.58470878285842
C           -1.37527289308226        3.71196301828709       -0.00558441490782
C           -1.52687279703747        5.06725774910971       -0.23145618804835
C           -2.70116375413764        5.73103344156005        0.10941024598657
C           -3.76092327016589        5.05271948544114        0.67861596689060
C           -3.62876674112657        3.69253698651952        0.91806684766515
C           -4.51518811641455        2.69579641633137        1.45426463557863
C           -5.81131461945148        2.73246196362875        1.94735076390457
C           -6.37325416494223        1.56091549230997        2.41665771337204
C           -5.64747235675097        0.37393144409562        2.43696203614000
C           -4.35274835616635        0.31587678788010        1.95671663843354
C           -3.81168284806027        1.47435954466657        1.42472041153363
C           -0.34851744276837        0.67415322705206        0.86792292872769
C            0.07932115647782        1.63896553970997        1.81160065132307
N            0.41592621254731        2.39675788433814        2.60202438832161
C            0.54600729890811       -0.32824720908881        0.46524301674607
N            1.86241472556244       -0.32428817584494        0.92645847441902
C            2.50498945897816       -1.43599385716173        1.45178137699735
C            1.95650136389657       -2.59519066713715        1.97412206921324
C            2.82667807246533       -3.56129300776650        2.44308256541581
C            4.20487452871791       -3.36806181258481        2.41700636265282
C            4.75260862179627       -2.18787742615755        1.95368181616625
C            3.89568462990180       -1.20694469791518        1.47490689916863
C            4.09481273701210        0.11152556710212        0.94850293057063
C            5.21253723911785        0.88863551643580        0.68082248060229
S            6.87729557172518        0.45250123227263        0.95123911885680
C            7.40668083710468        1.99754780544449        0.31791548300670
C            8.72045720385209        2.42033416154290        0.20928862524829
C            8.96641887491750        3.67616841489962       -0.31161815612419
C            7.91640993136068        4.49447368388042       -0.71704434785686
C            6.60811620210580        4.07059342591423       -0.60880351055494
C            6.33368705319230        2.80924351100211       -0.08703855888176
C            5.06230166316077        2.16578742033934        0.11731606674595
C            3.78695204444708        2.64962114505596       -0.18556597604246
C            2.66451989452018        1.88994884786719        0.05984622771432
C            2.82309798573409        0.63190977330289        0.63149115963598
C            0.09322380409432       -1.35160923455946       -0.38741688270259
N            0.97108514276418       -2.33118163042259       -0.84667364832248
C            2.23229171194883       -2.06899724339937       -1.36337966202852
C            2.73390068493427       -0.88398107768552       -1.87519373869287
C            4.04031636140112       -0.88158354173987       -2.32736456485121
C            4.81622862493104       -2.03598311258934       -2.29851996654130
C            4.29269705355022       -3.23605661209216       -1.85707018624062
C            2.98489871380888       -3.26019339519357       -1.39481257148525
C            2.12722374048706       -4.29835345746287       -0.89095615136899
C            2.30806336330183       -5.65630673361026       -0.67295126593652
C            1.26477630031403       -6.38557977667507       -0.13728030296150
C            0.05880949614358       -5.77424765549745        0.19035692586713
C           -0.14141598779353       -4.42174144976312       -0.01419943953762
C            0.89489946420938       -3.69073014066835       -0.56905483137748
H           -3.21688150313337       -2.96630531236996        0.36584312490131
H           -5.18011113036488       -4.38894041141659        0.75125921389552
H           -7.42903290555698       -3.63757629422759        0.13733279187580
H           -7.78039795638866       -1.40847765079376       -0.87654887615735
H           -7.48738004672337        1.11842923999183       -1.91131972067054
H           -6.60988190483322        3.27685304486155       -2.73884394307113
H           -4.19909771488580        3.71610297140663       -2.77350299119745
H           -2.59540249012089        2.05159108950146       -1.93311139735598
H           -0.46286933199348        3.20978811713676       -0.29087673777549
H           -0.71726979488997        5.61943513823997       -0.68455989818117
H           -2.78240003782128        6.79036797038316       -0.08202893871626
H           -4.67768946298283        5.56361040343267        0.92955939836204
H           -6.36321792137075        3.65955062328304        1.96503365354823
H           -7.38463533352775        1.56589140293685        2.79394165785334
H           -6.10005199545687       -0.52070738314881        2.83707978459895
H           -3.78725287044116       -0.60269329945137        2.00473553916813
H            0.88780094569586       -2.74260772746745        2.02244235647998
H            2.42552857247819       -4.48267782659289        2.83718409581559
H            4.85220333755671       -4.14953045896979        2.78473531182533
H            5.81877016978368       -2.02236852716515        1.96338968446272
H            9.52778982907544        1.77926250526233        0.52768442252699
H            9.98365222277748        4.02564488472230       -0.40337220637949
H            8.13050963456531        5.47308416655741       -1.12002163675433
H            5.79679544290969        4.70977593757122       -0.92272066288227
H            3.68480649253118        3.63005972885301       -0.62398310285080
H            1.68761544971292        2.27045446955782       -0.19481754774302
H            2.12881023670359        0.00905296677069       -1.92819563513518
H            4.46293408666025        0.03542494386804       -2.70990194279531
H            5.83672234555024       -1.99273200048451       -2.64752160817572
H            4.88406376179960       -4.13841034959807       -1.87151093023191
H            3.24866909840321       -6.12629286688725       -0.91540306070747
H            1.38351807471859       -7.44444075287399        0.03632604406983
H           -0.73820206067890       -6.36587543353573        0.61501730147815
H           -1.08010172819021       -3.96251025793150        0.25675247491616

          :  Hamiltonian                  GFN2-xTB          :
         :: gradient norm              0.000126631227 Eh/a0 ::
         :: HOMO-LUMO gap              1.585942895590 eV    ::
         :: SCC energy              -174.253540496590 Eh    ::
         :: -> dispersion             -0.198562000790 Eh    ::
         :: repulsion energy           3.241311228897 Eh    ::

    * Orbital Energies and Occupations

         #    Occupation            Energy/Eh            Energy/eV
      -------------------------------------------------------------
         1        2.0000           -0.7268615             -19.7789
       ...           ...                  ...                  ...
       147        2.0000           -0.4161277             -11.3234
       148        2.0000           -0.4151465             -11.2967
       149        2.0000           -0.4143599             -11.2753
       150        2.0000           -0.4058957             -11.0450
       151        2.0000           -0.3978098             -10.8250
       152        2.0000           -0.3929278             -10.6921
       153        2.0000           -0.3887017             -10.5771
       154        2.0000           -0.3863962             -10.5144
       155        2.0000           -0.3834554             -10.4344
       156        2.0000           -0.3805679             -10.3558
       157        2.0000           -0.3779016             -10.2832
       158        2.0000           -0.3727236             -10.1423
       159        2.0000           -0.3715834             -10.1113 (HOMO)
       160                         -0.3133011              -8.5254 (LUMO)
       161                         -0.2800785              -7.6213
       162                         -0.2599732              -7.0742
       163                         -0.2557062              -6.9581
       164                         -0.2552695              -6.9462
       165                         -0.2545044              -6.9254
       166                         -0.2530999              -6.8872
       167                         -0.2396247              -6.5205
       168                         -0.2369127              -6.4467
       169                         -0.2333576              -6.3500
       170                         -0.2310467              -6.2871
       ...                                ...                  ...
       315                          1.1587182              31.5303
      -------------------------------------------------------------
                  HL-Gap            0.0582824 Eh            1.5859 eV

     #   Z          covCN         q      C6AA      α(0)
     1   7 N        0.911    -0.216    25.714     7.334
     2   6 C        1.913     0.123    28.076     8.557
     3   6 C        2.973    -0.009    28.228     8.715
     4   6 C        2.917     0.057    26.724     8.477
     5   7 N        2.800    -0.050    22.197     6.997
     6   6 C        3.068     0.052    26.768     8.484
     7   6 C        2.911    -0.043    29.078     8.842
     8   6 C        2.925    -0.029    28.732     8.790
     9   6 C        2.921    -0.037    28.910     8.817
    10   6 C        2.914    -0.030    28.738     8.791
    11   6 C        3.069    -0.012    28.232     8.712
    12   6 C        3.066    -0.013    28.260     8.717
    13   6 C        2.914    -0.030    28.760     8.794
    14   6 C        2.921    -0.037    28.913     8.818
    15   6 C        2.925    -0.030    28.756     8.794
    16   6 C        2.911    -0.046    29.146     8.853
    17   6 C        3.073     0.050    26.814     8.490
    18   6 C        2.917     0.057    26.732     8.478
    19   7 N        2.800    -0.050    22.199     6.998
    20   6 C        3.068     0.052    26.768     8.484
    21   6 C        2.911    -0.043    29.079     8.842
    22   6 C        2.925    -0.029    28.734     8.791
    23   6 C        2.921    -0.037    28.911     8.817
    24   6 C        2.914    -0.030    28.737     8.790
    25   6 C        3.069    -0.011    28.231     8.712
    26   6 C        3.066    -0.013    28.261     8.717
    27   6 C        2.914    -0.030    28.760     8.794
    28   6 C        2.921    -0.037    28.912     8.818
    29   6 C        2.925    -0.030    28.755     8.794
    30   6 C        2.911    -0.046    29.145     8.852
    31   6 C        3.073     0.050    26.814     8.490
    32   6 C        2.973    -0.008    28.224     8.714
    33   6 C        1.913     0.123    28.082     8.558
    34   7 N        0.911    -0.216    25.713     7.334
    35   6 C        2.918     0.056    26.740     8.480
    36   7 N        2.802    -0.048    22.174     6.994
    37   6 C        3.079     0.049    26.818     8.490
    38   6 C        2.911    -0.045    29.125     8.849
    39   6 C        2.925    -0.030    28.747     8.793
    40   6 C        2.921    -0.035    28.876     8.812
    41   6 C        2.913    -0.030    28.744     8.792
    42   6 C        3.064    -0.010    28.197     8.708
    43   6 C        3.089    -0.022    28.456     8.744
    44   6 C        2.998     0.036    27.186     8.553
    45  16 S        2.211    -0.083   144.498    20.232
    46   6 C        3.004     0.037    27.150     8.547
    47   6 C        2.935    -0.038    28.946     8.824
    48   6 C        2.923    -0.031    28.771     8.796
    49   6 C        2.918    -0.034    28.849     8.808
    50   6 C        2.918    -0.033    28.811     8.802
    51   6 C        3.107    -0.002    27.924     8.658
    52   6 C        3.104    -0.011    28.156     8.694
    53   6 C        2.921    -0.033    28.827     8.805
    54   6 C        2.910    -0.049    29.223     8.864
    55   6 C        3.067     0.051    26.797     8.488
    56   6 C        2.917     0.057    26.713     8.476
    57   7 N        2.799    -0.051    22.231     7.003
    58   6 C        3.075     0.049    26.819     8.491
    59   6 C        2.911    -0.046    29.154     8.854
    60   6 C        2.925    -0.030    28.743     8.792
    61   6 C        2.921    -0.035    28.880     8.813
    62   6 C        2.914    -0.030    28.748     8.792
    63   6 C        3.064    -0.012    28.256     8.717
    64   6 C        3.069    -0.012    28.232     8.712
    65   6 C        2.914    -0.030    28.739     8.791
    66   6 C        2.921    -0.037    28.908     8.817
    67   6 C        2.925    -0.029    28.733     8.790
    68   6 C        2.911    -0.043    29.076     8.842
    69   6 C        3.067     0.052    26.769     8.484
    70   1 H        0.926     0.017     2.772     2.604
    71   1 H        0.926     0.036     2.501     2.473
    72   1 H        0.926     0.035     2.512     2.479
    73   1 H        0.926     0.037     2.489     2.467
    74   1 H        0.926     0.037     2.490     2.468
    75   1 H        0.926     0.035     2.521     2.483
    76   1 H        0.926     0.033     2.537     2.491
    77   1 H        0.926     0.020     2.728     2.583
    78   1 H        0.926     0.017     2.781     2.608
    79   1 H        0.926     0.036     2.507     2.476
    80   1 H        0.926     0.035     2.514     2.479
    81   1 H        0.926     0.037     2.488     2.467
    82   1 H        0.926     0.037     2.490     2.468
    83   1 H        0.926     0.035     2.520     2.482
    84   1 H        0.926     0.034     2.535     2.490
    85   1 H        0.926     0.021     2.724     2.581
    86   1 H        0.926     0.021     2.723     2.581
    87   1 H        0.926     0.034     2.524     2.485
    88   1 H        0.926     0.037     2.495     2.470
    89   1 H        0.926     0.045     2.386     2.415
    90   1 H        0.926     0.040     2.447     2.446
    91   1 H        0.926     0.037     2.495     2.470
    92   1 H        0.926     0.035     2.521     2.483
    93   1 H        0.926     0.036     2.508     2.477
    94   1 H        0.926     0.041     2.430     2.438
    95   1 H        0.926     0.022     2.698     2.569
    96   1 H        0.926     0.019     2.748     2.593
    97   1 H        0.926     0.032     2.558     2.501
    98   1 H        0.926     0.036     2.503     2.474
    99   1 H        0.926     0.038     2.482     2.464
   100   1 H        0.926     0.037     2.485     2.465
   101   1 H        0.926     0.035     2.511     2.478
   102   1 H        0.926     0.036     2.498     2.472
   103   1 H        0.926     0.019     2.751     2.594

molecular dipole:
                 x           y           z       tot (Debye)
 q only:       -0.179       0.093      -0.092
   full:       -0.298       0.291      -0.170       1.144

 projected vibrational frequencies (cm⁻¹)
eigval :       -0.00     0.00     0.00     0.00     0.00     0.00
eigval :       11.39    12.34    20.66    23.45    28.13    31.01
eigval :       35.04    36.24    44.46    51.54    55.96    61.65
eigval :       61.89    74.04    81.76    89.86   101.13   104.09
eigval :      107.86   113.32   113.85   118.55   119.56   128.32
eigval :      130.80   132.69   141.12   142.57   149.04   163.70
eigval :      166.58   195.44   198.36   200.75   212.58   214.35
eigval :      230.12   241.45   257.70   264.87   271.29   275.27
eigval :      276.25   279.15   285.36   295.68   317.19   334.39
eigval :      353.62   366.02   378.57   386.33   397.52   397.95
eigval :      398.52   400.47   403.68   407.99   412.94   418.52
eigval :      420.05   422.58   426.72   434.16   435.82   440.63
eigval :      443.85   445.02   461.51   481.41   491.39   495.40
eigval :      507.61   512.99   517.47   518.50   521.60   525.46
eigval :      530.90   536.11   539.63   541.65   542.36   542.63
eigval :      546.11   564.14   569.93   576.04   579.52   587.13
eigval :      591.45   594.55   594.91   600.36   618.88   631.55
eigval :      645.37   650.17   657.87   661.01   669.36   671.24
eigval :      672.87   673.78   687.04   689.11   697.37   701.74
eigval :      705.50   705.73   707.28   715.12   728.24   742.12
eigval :      753.50   755.94   758.84   765.35   766.93   769.00
eigval :      772.40   777.31   780.30   780.68   781.85   783.49
eigval :      806.99   813.40   838.25   859.52   863.57   867.58
eigval :      870.46   873.25   876.85   877.20   877.42   878.05
eigval :      887.57   891.59   894.11   899.54   899.82   900.75
eigval :      901.61   905.26   905.30   905.53   905.77   905.98
eigval :      920.62   921.00   921.61   922.40   923.45   923.59
eigval :      923.88   924.57   926.80   975.96  1003.78  1011.22
eigval :     1013.19  1014.86  1028.98  1049.18  1070.14  1070.87
eigval :     1071.27  1072.04  1072.81  1074.29  1075.20  1077.02
eigval :     1078.05  1084.95  1119.50  1124.90  1145.51  1148.57
eigval :     1149.67  1150.33  1152.90  1154.60  1161.32  1166.95
eigval :     1177.94  1178.51  1179.66  1180.15  1180.64  1180.83
eigval :     1181.69  1183.24  1197.80  1215.99  1219.63  1230.91
eigval :     1232.10  1234.03  1235.75  1237.42  1247.19  1259.76
eigval :     1267.12  1269.63  1286.60  1291.48  1294.14  1295.50
eigval :     1295.69  1297.88  1300.06  1305.94  1318.21  1339.93
eigval :     1347.55  1352.10  1359.41  1359.56  1360.05  1360.73
eigval :     1361.62  1362.04  1362.27  1379.92  1392.51  1406.13
eigval :     1410.46  1414.41  1417.87  1423.66  1424.85  1427.96
eigval :     1428.49  1429.35  1444.41  1448.16  1456.92  1461.45
eigval :     1472.84  1473.29  1474.71  1482.65  1486.94  1487.08
eigval :     1487.53  1494.42  1505.26  1561.66  1571.07  1579.22
eigval :     1579.43  1579.62  1579.83  1588.13  1593.70  1593.89
eigval :     1594.45  1597.00  1601.70  1601.97  1602.33  1610.85
eigval :     1614.64  1614.79  1616.28  2369.38  2370.03  3076.00
eigval :     3076.23  3076.75  3078.89  3079.78  3080.07  3080.17
eigval :     3080.82  3084.39  3084.51  3085.11  3085.46  3085.79
eigval :     3085.96  3086.98  3087.47  3089.11  3092.15  3092.39
eigval :     3092.57  3094.21  3094.43  3094.60  3094.66  3096.05
eigval :     3100.32  3100.46  3100.64  3101.59  3101.95  3102.22
eigval :     3102.41  3102.62  3103.62

   temp. (K)  partition function   enthalpy   heat capacity  entropy
                                   cal/mol     cal/K/mol   cal/K/mol   J/K/mol
 298.15  VIB  0.147E+24            31277.130    199.614    192.757
         ROT  0.151E+09              888.752      2.981     40.411
         INT  0.223E+32            32165.882    202.595    233.168
         TR   0.259E+29             1481.254      4.968     46.230
         TOT                       33647.1361   207.5630   279.3980  1169.0013

       T/K    H(0)-H(T)+PV         H(T)/Eh          T*S/Eh         G(T)/Eh
   ------------------------------------------------------------------------
    298.15    0.536201E-01    0.813697E+00    0.132751E+00    0.680946E+00
   ------------------------------------------------------------------------

         :::::::::::::::::::::::::::::::::::::::::::::::::::::
         ::                  THERMODYNAMIC                  ::
         :::::::::::::::::::::::::::::::::::::::::::::::::::::
         :: total free energy        -170.331283231520 Eh   ::
         ::.................................................::
         :: total energy             -171.012229267692 Eh   ::
         :: zero point energy           0.760076920013 Eh   ::
         :: G(RRHO) w/o ZPVE           -0.079130883841 Eh   ::
         :: G(RRHO) contrib.            0.680946036171 Eh   ::
         :::::::::::::::::::::::::::::::::::::::::::::::::::::

           -------------------------------------------------
          | TOTAL ENERGY             -171.012229267692 Eh   |
          | TOTAL ENTHALPY           -170.198532223188 Eh   |
          | TOTAL FREE ENERGY        -170.331283231520 Eh   |
          | GRADIENT NORM               0.000126658414 Eh/α |
          | HOMO-LUMO GAP               1.585943935489 eV   |
           -------------------------------------------------

 * finished run on 2025/07/16 at 19:49:46.227
