   * xtb version 6.7.1 (edcfbbe) compiled by 'albert@albert-system' on 2024-07-22

   ID    Z sym.   atoms
    1    7 N      1, 5, 19, 34, 36, 57
    2    6 C      2-4, 6-18, 20-33, 35, 37-44, 46-56, 58-69
    3   16 S      45
    4    1 H      70-103

          program call               : xtb data2507/gas/BTCz3CzTPN/BTCz3CzTPN_gas_S0_crest.xyz --gfn 2 --ohess vtight --parallel 40 --molden --ceasefiles --namespace data2507/gas/BTCz3CzTPN/BTCz3CzTPN_gas_S0_finalOpt
          :  Hamiltonian                  GFN2-xTB          :
 * total energy  :  -171.0122480 Eh     change       -0.1126918E-07 Eh
 * total energy  :  -171.0122489 Eh     change       -0.9038145E-06 Eh
 * total energy  :  -171.0122503 Eh     change       -0.1366595E-05 Eh
 * total energy  :  -171.0122514 Eh     change       -0.1125257E-05 Eh
 * total energy  :  -171.0122524 Eh     change       -0.9665997E-06 Eh
 * total energy  :  -171.0122524 Eh     change        0.7568588E-08 Eh
 * total energy  :  -171.0122534 Eh     change       -0.1054604E-05 Eh
 * total energy  :  -171.0122542 Eh     change       -0.7344283E-06 Eh
 * total energy  :  -171.0122540 Eh     change        0.1524836E-06 Eh
 * total energy  :  -171.0122545 Eh     change       -0.5216013E-06 Eh
 * total energy  :  -171.0122554 Eh     change       -0.3020347E-06 Eh
 * total energy  :  -171.0122557 Eh     change       -0.2558731E-06 Eh
 * total energy  :  -171.0122559 Eh     change       -0.2289584E-06 Eh
 * total energy  :  -171.0122561 Eh     change       -0.1904783E-06 Eh
 * total energy  :  -171.0122562 Eh     change       -0.1627008E-06 Eh
 * total energy  :  -171.0122564 Eh     change       -0.1212563E-06 Eh
 * total energy  :  -171.0122565 Eh     change       -0.1090208E-06 Eh
 * total energy  :  -171.0122565 Eh     change        0.2848992E-08 Eh
 * total energy  :  -171.0122565 Eh     change       -0.3818269E-07 Eh
   *** GEOMETRY OPTIMIZATION CONVERGED AFTER 23 ITERATIONS ***

 final structure:
================
103
 xtb: 6.7.1 (edcfbbe)
N           -2.16285499277556       -3.25717116968008       -2.35258340954600
C           -1.83460714586434       -2.45075041957105       -1.60804913268371
C           -1.41725867944218       -1.42487291949536       -0.72623433036995
C           -2.33292113524853       -0.42315736182113       -0.36661927533429
N           -3.65746007465125       -0.50374513198213       -0.79008644794833
C           -4.56333995699031       -1.49533074548525       -0.43567331004168
C           -4.34626178386624       -2.69646456464639        0.21775016959084
C           -5.44327023367037       -3.49347668883610        0.48647337154123
C           -6.72865757108416       -3.10153934713941        0.12600824278082
C           -6.95198055537374       -1.89446685304024       -0.50668032858415
C           -5.86463808381915       -1.08067818558708       -0.78992925301323
C           -5.73685143798570        0.21664927368991       -1.39612446399089
C           -6.64501919781154        1.11493323200174       -1.93724446214464
C           -6.16786797135615        2.29606498423527       -2.47196000962217
C           -4.80384238588209        2.56811901173543       -2.50955178530020
C           -3.88107243966077        1.68472709515227       -1.98187265865292
C           -4.36276102139407        0.53150890007658       -1.38527736882245
C           -1.88887510263488        0.66728640674884        0.40263042763793
N           -2.77096273537542        1.67260062305616        0.79188641799846
C           -2.68856056463645        3.00956672330311        0.42458832423381
C           -1.66299191029377        3.68869546409168       -0.21091094735939
C           -1.85512619474901        5.02692153607835       -0.49906658581720
C           -3.04350642669039        5.67385867545468       -0.17515534480702
C           -4.07729990934156        4.99476561013433        0.43907052319167
C           -3.90430608804426        3.65180145015686        0.74128991455902
C           -4.75612010353863        2.65845455762622        1.33668961153242
C           -6.04683717925367        2.68323718916567        1.84457503137271
C           -6.56958912166765        1.52109875032270        2.37823051339348
C           -5.80998724412814        0.35737110153441        2.44753851567424
C           -4.51998052976063        0.31188266375410        1.95346146532026
C           -4.01868648447110        1.45711492164442        1.35762971604335
C           -0.54214781331323        0.72260015890229        0.79533272803615
C           -0.12291437542767        1.75101961647508        1.67340876296213
N            0.20961036351598        2.56082984002319        2.41231613923831
C            0.37084224589673       -0.28130332912706        0.44013707988464
N            1.69413028342683       -0.21454591116000        0.87674356654721
C            2.37459175485798       -1.27114946896228        1.46401604182947
C            1.86575416483403       -2.40499879447059        2.07462581413070
C            2.76905332858509       -3.31481320437497        2.59109640944391
C            4.14108176074026       -3.08969913441037        2.52505536355999
C            4.64964153774549       -1.93098890469195        1.97165588037519
C            3.75911670434027       -1.00673295126340        1.44398140981722
C            3.91453302494410        0.27644845831327        0.82400104149554
C            5.00670858704448        1.05934929221804        0.47882393795613
S            6.68695315925727        0.68268993668004        0.74263471061751
C            7.16473152382967        2.19004145260757       -0.01110098503335
C            8.46519758812913        2.63375464556248       -0.17980535259217
C            8.66938337663970        3.85385164224467       -0.79512168095311
C            7.59133158888764        4.61645730638339       -1.23415740283624
C            6.29634821156776        4.17184096199615       -1.06570083066871
C            6.06383875518212        2.94561880566026       -0.44852035176724
C            4.81323023689502        2.28919452412115       -0.17027686046509
C            3.52027396426598        2.72002964725164       -0.47867665534720
C            2.42247132243125        1.95291607960142       -0.15673550034243
C            2.62417506105505        0.74222391550443        0.49759941460915
C           -0.06960143880849       -1.36671222999663       -0.33841120370102
N            0.82109437433534       -2.36002749358690       -0.74012552752880
C            2.07229280950471       -2.11540300019428       -1.28841997238209
C            2.54878596170161       -0.96220579464420       -1.88915537476343
C            3.85040559992526       -0.97141100437047       -2.35485951956549
C            4.64572769744907       -2.10829571181978       -2.25236926327955
C            4.14683722758234       -3.28187980559184       -1.72045135271222
C            2.84435601594958       -3.29374062198606       -1.24301116156236
C            2.00957859628970       -4.30656657484471       -0.65595190869917
C            2.21525552307440       -5.64201245143195       -0.34188343343209
C            1.18998029152682       -6.34679033386814        0.25760891942051
C           -0.02259708604037       -5.73259206290198        0.55406440032841
C           -0.24742392597162       -4.40194253147004        0.25407811942871
C            0.77070073901818       -3.69701648034059       -0.36450871223250
H           -3.35750783731772       -3.00979750073573        0.51784851873444
H           -5.29744740154226       -4.43790925867614        0.98884596778347
H           -7.56070709865857       -3.75117713823603        0.35201542827320
H           -7.95000835754008       -1.58278416310165       -0.77363254094301
H           -7.70027877689661        0.88957172110174       -1.94135417039121
H           -6.85920125070877        3.01343150654380       -2.88755049207363
H           -4.45534156744848        3.48475531473273       -2.96083846376647
H           -2.82284583407381        1.89030239510912       -2.04341019204772
H           -0.73990264807927        3.19903698996333       -0.48310398878485
H           -1.06642547304077        5.57875391704414       -0.98801080095474
H           -3.15645831748453        6.72026782385760       -0.41535072790331
H           -5.00498160691962        5.49180334107493        0.67738813944269
H           -6.62474915157460        3.59427770121228        1.82419813886474
H           -7.57620873196612        1.51646976914983        2.76804988664874
H           -6.23195869466741       -0.52862503625108        2.89726786884997
H           -3.92767521315783       -0.58680215214705        2.03964460385401
H            0.80226969553150       -2.57524896808834        2.15335552228753
H            2.39911726911802       -4.21668797325084        3.05473336274048
H            4.81502629820828       -3.82778457884001        2.93247140908137
H            5.71116935749098       -1.73904320185566        1.94906764929286
H            9.29448823422757        2.03589864788068        0.16512385724960
H            9.67562580906360        4.21876630536275       -0.93521837600673
H            7.77288623763716        5.56784074649012       -1.71145421336257
H            5.46328363212377        4.76797671056299       -1.40624396618024
H            3.38481465148166        3.66427107847439       -0.98264755593312
H            1.43126163307826        2.29054327954044       -0.41681580190832
H            1.92839059281326       -0.08496178240020       -1.99867396606777
H            4.25385042005031       -0.07752232398572       -2.80658579554687
H            5.66181750352075       -2.07388410415479       -2.61493811294600
H            4.75309804254515       -4.17335486809480       -1.67692316035974
H            3.16101393743885       -6.11347188308331       -0.56020710818579
H            1.32832088269831       -7.38808841686776        0.50658654969134
H           -0.80499903365697       -6.30426612054870        1.03013693713430
H           -1.19040219779444       -3.93861310310180        0.50240825978333

          :  Hamiltonian                  GFN2-xTB          :
         :: gradient norm              0.000035950739 Eh/a0 ::
         :: HOMO-LUMO gap              1.584799455180 eV    ::
         :: SCC energy              -174.253506091476 Eh    ::
         :: -> dispersion             -0.198626898182 Eh    ::
         :: repulsion energy           3.241249591228 Eh    ::

    * Orbital Energies and Occupations

         #    Occupation            Energy/Eh            Energy/eV
      -------------------------------------------------------------
         1        2.0000           -0.7268435             -19.7784
       ...           ...                  ...                  ...
       147        2.0000           -0.4163122             -11.3284
       148        2.0000           -0.4150611             -11.2944
       149        2.0000           -0.4142850             -11.2733
       150        2.0000           -0.4058751             -11.0444
       151        2.0000           -0.3977636             -10.8237
       152        2.0000           -0.3930436             -10.6953
       153        2.0000           -0.3886518             -10.5758
       154        2.0000           -0.3864286             -10.5153
       155        2.0000           -0.3834573             -10.4344
       156        2.0000           -0.3805921             -10.3564
       157        2.0000           -0.3778748             -10.2825
       158        2.0000           -0.3727202             -10.1422
       159        2.0000           -0.3715538             -10.1105 (HOMO)
       160                         -0.3133135              -8.5257 (LUMO)
       161                         -0.2800650              -7.6210
       162                         -0.2599410              -7.0734
       163                         -0.2557175              -6.9584
       164                         -0.2552901              -6.9468
       165                         -0.2545368              -6.9263
       166                         -0.2530908              -6.8870
       167                         -0.2396239              -6.5205
       168                         -0.2370172              -6.4496
       169                         -0.2333325              -6.3493
       170                         -0.2310391              -6.2869
       ...                                ...                  ...
       315                          1.1586434              31.5283
      -------------------------------------------------------------
                  HL-Gap            0.0582403 Eh            1.5848 eV

     #   Z          covCN         q      C6AA      α(0)
     1   7 N        0.911    -0.216    25.713     7.334
     2   6 C        1.913     0.123    28.076     8.557
     3   6 C        2.973    -0.009    28.228     8.715
     4   6 C        2.917     0.057    26.723     8.477
     5   7 N        2.800    -0.050    22.197     6.997
     6   6 C        3.068     0.052    26.769     8.484
     7   6 C        2.911    -0.043    29.076     8.842
     8   6 C        2.925    -0.029    28.731     8.790
     9   6 C        2.921    -0.037    28.909     8.817
    10   6 C        2.914    -0.030    28.738     8.791
    11   6 C        3.069    -0.012    28.232     8.712
    12   6 C        3.065    -0.013    28.260     8.717
    13   6 C        2.914    -0.030    28.760     8.794
    14   6 C        2.921    -0.037    28.912     8.818
    15   6 C        2.925    -0.030    28.757     8.794
    16   6 C        2.911    -0.046    29.145     8.852
    17   6 C        3.073     0.049    26.815     8.490
    18   6 C        2.917     0.057    26.732     8.479
    19   7 N        2.800    -0.050    22.196     6.997
    20   6 C        3.068     0.052    26.770     8.484
    21   6 C        2.911    -0.043    29.076     8.842
    22   6 C        2.925    -0.029    28.733     8.790
    23   6 C        2.921    -0.037    28.910     8.817
    24   6 C        2.914    -0.030    28.738     8.791
    25   6 C        3.069    -0.012    28.231     8.712
    26   6 C        3.065    -0.013    28.261     8.717
    27   6 C        2.914    -0.030    28.760     8.794
    28   6 C        2.921    -0.037    28.912     8.818
    29   6 C        2.925    -0.030    28.755     8.794
    30   6 C        2.911    -0.046    29.145     8.852
    31   6 C        3.073     0.049    26.815     8.490
    32   6 C        2.973    -0.008    28.224     8.714
    33   6 C        1.913     0.123    28.082     8.558
    34   7 N        0.911    -0.216    25.712     7.334
    35   6 C        2.918     0.056    26.739     8.480
    36   7 N        2.802    -0.049    22.178     6.994
    37   6 C        3.079     0.049    26.817     8.490
    38   6 C        2.910    -0.045    29.126     8.850
    39   6 C        2.925    -0.030    28.747     8.793
    40   6 C        2.921    -0.035    28.876     8.812
    41   6 C        2.913    -0.030    28.744     8.791
    42   6 C        3.064    -0.010    28.197     8.708
    43   6 C        3.089    -0.022    28.455     8.744
    44   6 C        2.998     0.036    27.186     8.553
    45  16 S        2.211    -0.083   144.495    20.232
    46   6 C        3.004     0.037    27.150     8.547
    47   6 C        2.936    -0.038    28.946     8.824
    48   6 C        2.923    -0.031    28.771     8.796
    49   6 C        2.918    -0.034    28.849     8.808
    50   6 C        2.918    -0.033    28.811     8.802
    51   6 C        3.107    -0.002    27.925     8.658
    52   6 C        3.104    -0.011    28.157     8.695
    53   6 C        2.921    -0.033    28.828     8.805
    54   6 C        2.910    -0.049    29.225     8.865
    55   6 C        3.067     0.051    26.796     8.488
    56   6 C        2.917     0.057    26.713     8.475
    57   7 N        2.799    -0.052    22.234     7.003
    58   6 C        3.075     0.049    26.818     8.491
    59   6 C        2.911    -0.046    29.154     8.854
    60   6 C        2.925    -0.030    28.741     8.792
    61   6 C        2.921    -0.035    28.880     8.813
    62   6 C        2.914    -0.030    28.748     8.792
    63   6 C        3.064    -0.012    28.257     8.717
    64   6 C        3.069    -0.012    28.231     8.712
    65   6 C        2.914    -0.030    28.739     8.791
    66   6 C        2.921    -0.037    28.909     8.817
    67   6 C        2.925    -0.029    28.734     8.791
    68   6 C        2.911    -0.043    29.077     8.842
    69   6 C        3.067     0.052    26.768     8.484
    70   1 H        0.926     0.018     2.766     2.601
    71   1 H        0.926     0.036     2.499     2.472
    72   1 H        0.926     0.035     2.512     2.479
    73   1 H        0.926     0.037     2.489     2.467
    74   1 H        0.926     0.037     2.490     2.468
    75   1 H        0.926     0.035     2.520     2.483
    76   1 H        0.926     0.033     2.537     2.491
    77   1 H        0.926     0.020     2.729     2.583
    78   1 H        0.926     0.017     2.776     2.606
    79   1 H        0.926     0.036     2.505     2.475
    80   1 H        0.926     0.035     2.513     2.479
    81   1 H        0.926     0.037     2.488     2.467
    82   1 H        0.926     0.037     2.490     2.468
    83   1 H        0.926     0.035     2.519     2.482
    84   1 H        0.926     0.034     2.535     2.490
    85   1 H        0.926     0.021     2.725     2.582
    86   1 H        0.926     0.021     2.723     2.580
    87   1 H        0.926     0.034     2.524     2.485
    88   1 H        0.926     0.037     2.495     2.470
    89   1 H        0.926     0.045     2.386     2.416
    90   1 H        0.926     0.040     2.447     2.446
    91   1 H        0.926     0.037     2.495     2.470
    92   1 H        0.926     0.035     2.521     2.483
    93   1 H        0.926     0.036     2.509     2.477
    94   1 H        0.926     0.041     2.431     2.438
    95   1 H        0.926     0.022     2.703     2.571
    96   1 H        0.926     0.019     2.748     2.592
    97   1 H        0.926     0.032     2.558     2.501
    98   1 H        0.926     0.036     2.502     2.474
    99   1 H        0.926     0.037     2.482     2.464
   100   1 H        0.926     0.037     2.485     2.465
   101   1 H        0.926     0.035     2.511     2.478
   102   1 H        0.926     0.036     2.499     2.472
   103   1 H        0.926     0.018     2.756     2.596

molecular dipole:
                 x           y           z       tot (Debye)
 q only:       -0.198       0.087      -0.094
   full:       -0.326       0.276      -0.184       1.183

 projected vibrational frequencies (cm⁻¹)
eigval :       -0.00    -0.00    -0.00    -0.00     0.00     0.00
eigval :       11.44    12.35    20.61    23.50    28.22    31.11
eigval :       35.04    36.33    44.67    51.66    55.97    61.60
eigval :       61.87    73.97    81.68    89.81   101.43   104.04
eigval :      107.80   113.36   113.97   118.84   119.58   128.31
eigval :      130.77   132.63   140.98   142.49   149.25   163.54
eigval :      166.97   195.60   198.34   200.73   212.52   214.23
eigval :      230.29   241.44   257.64   264.92   271.26   275.27
eigval :      276.33   279.16   285.40   295.71   317.12   334.33
eigval :      353.74   365.96   378.73   386.18   397.56   397.93
eigval :      398.64   400.49   403.65   407.93   412.89   418.51
eigval :      420.21   422.74   426.72   434.15   435.90   440.63
eigval :      443.88   445.05   461.49   481.40   491.28   495.41
eigval :      507.58   513.12   517.42   518.51   521.62   525.42
eigval :      531.05   536.11   539.66   541.64   542.37   542.64
eigval :      546.07   564.16   569.88   576.00   579.51   587.15
eigval :      591.48   594.57   594.91   600.37   618.88   631.47
eigval :      645.47   650.19   657.82   660.98   669.39   671.28
eigval :      672.85   673.77   687.05   689.16   697.32   701.73
eigval :      705.53   705.74   707.28   715.04   728.26   742.20
eigval :      753.48   755.95   758.81   765.25   766.95   769.01
eigval :      772.38   777.27   780.33   780.69   781.85   783.32
eigval :      806.91   813.45   838.22   859.34   863.63   867.54
eigval :      870.44   873.27   876.92   877.28   877.37   878.03
eigval :      887.49   891.60   894.15   899.49   899.82   900.76
eigval :      901.59   905.33   905.38   905.51   905.71   905.93
eigval :      920.59   921.00   921.60   922.38   923.44   923.61
eigval :      923.90   924.60   926.86   975.96  1003.76  1011.20
eigval :     1013.18  1014.88  1028.98  1049.16  1070.13  1070.89
eigval :     1071.29  1072.03  1072.75  1074.28  1075.22  1077.03
eigval :     1078.05  1084.91  1119.50  1124.87  1145.55  1148.54
eigval :     1149.65  1150.31  1152.88  1154.55  1161.33  1166.94
eigval :     1177.95  1178.49  1179.65  1180.15  1180.62  1180.82
eigval :     1181.67  1183.23  1197.80  1216.03  1219.57  1230.89
eigval :     1232.09  1234.07  1235.70  1237.43  1247.20  1259.95
eigval :     1267.01  1269.68  1286.59  1291.56  1294.27  1295.38
eigval :     1295.57  1297.91  1300.02  1306.00  1318.18  1339.92
eigval :     1347.55  1352.02  1359.44  1359.57  1360.07  1360.73
eigval :     1361.59  1362.05  1362.27  1379.87  1392.50  1406.16
eigval :     1410.53  1414.45  1417.87  1423.63  1424.85  1427.97
eigval :     1428.49  1429.35  1444.16  1448.36  1456.95  1461.42
eigval :     1472.85  1473.19  1474.67  1482.72  1486.93  1487.05
eigval :     1487.50  1494.31  1505.29  1561.59  1571.01  1579.18
eigval :     1579.42  1579.66  1579.82  1588.11  1593.70  1593.89
eigval :     1594.46  1597.00  1601.70  1601.97  1602.31  1610.91
eigval :     1614.61  1614.79  1616.25  2369.23  2369.92  3076.46
eigval :     3076.78  3076.90  3078.95  3079.45  3079.90  3080.03
eigval :     3080.82  3084.49  3084.59  3085.02  3085.47  3085.78
eigval :     3085.94  3086.90  3087.44  3088.49  3092.17  3092.43
eigval :     3092.64  3094.13  3094.48  3094.63  3094.67  3096.03
eigval :     3100.36  3100.49  3100.61  3101.48  3102.00  3102.13
eigval :     3102.38  3102.57  3103.58

   temp. (K)  partition function   enthalpy   heat capacity  entropy
                                   cal/mol     cal/K/mol   cal/K/mol   J/K/mol
 298.15  VIB  0.144E+24            31275.361    199.623    192.740
         ROT  0.151E+09              888.752      2.981     40.411
         INT  0.219E+32            32164.114    202.603    233.151
         TR   0.259E+29             1481.254      4.968     46.230
         TOT                       33645.3676   207.5716   279.3806  1168.9286

       T/K    H(0)-H(T)+PV         H(T)/Eh          T*S/Eh         G(T)/Eh
   ------------------------------------------------------------------------
    298.15    0.536173E-01    0.813695E+00    0.132743E+00    0.680952E+00
   ------------------------------------------------------------------------

         :::::::::::::::::::::::::::::::::::::::::::::::::::::
         ::                  THERMODYNAMIC                  ::
         :::::::::::::::::::::::::::::::::::::::::::::::::::::
         :: total free energy        -170.331304442511 Eh   ::
         ::.................................................::
         :: total energy             -171.012256500249 Eh   ::
         :: zero point energy           0.760077511641 Eh   ::
         :: G(RRHO) w/o ZPVE           -0.079125453903 Eh   ::
         :: G(RRHO) contrib.            0.680952057738 Eh   ::
         :::::::::::::::::::::::::::::::::::::::::::::::::::::

           -------------------------------------------------
          | TOTAL ENERGY             -171.012256500249 Eh   |
          | TOTAL ENTHALPY           -170.198561682488 Eh   |
          | TOTAL FREE ENERGY        -170.331304442511 Eh   |
          | GRADIENT NORM               0.000035935790 Eh/α |
          | HOMO-LUMO GAP               1.584798710149 eV   |
           -------------------------------------------------

 * finished run on 2025/07/16 at 19:56:46.425
