   * xtb version 6.7.1 (edcfbbe) compiled by 'albert@albert-system' on 2024-07-22

   ID    Z sym.   atoms
    1    7 N      1, 5, 19, 34, 36, 57
    2    6 C      2-4, 6-18, 20-33, 35, 37-44, 46-56, 58-69
    3   16 S      45
    4    1 H      70-103

          program call               : xtb data2507/gas/BTCz3CzTPN/BTCz3CzTPN_gas_S0_finalOpt.xtbopt.xyz --gfn 2 --spinpol --tblite --uhf 2 --ohess vtight --parallel 40 --molden --ceasefiles --namespace data2507/gas/BTCz3CzTPN/BTCz3CzTPN_gas_T1_preOpt
 * total energy  :  -170.9357286 Eh     change       -0.1480143E-07 Eh
 * total energy  :  -170.9402855 Eh     change       -0.4556913E-02 Eh
 * total energy  :  -170.9415378 Eh     change       -0.1252270E-02 Eh
 * total energy  :  -170.9416188 Eh     change       -0.8106311E-04 Eh
 * total energy  :  -170.9416891 Eh     change       -0.7022140E-04 Eh
 * total energy  :  -170.9417123 Eh     change       -0.2324848E-04 Eh
 * total energy  :  -170.9417395 Eh     change       -0.2722039E-04 Eh
 * total energy  :  -170.9417520 Eh     change       -0.1247810E-04 Eh
 * total energy  :  -170.9417621 Eh     change       -0.1009324E-04 Eh
 * total energy  :  -170.9417626 Eh     change       -0.4622380E-06 Eh
 * total energy  :  -170.9418536 Eh     change       -0.2979398E-06 Eh
 * total energy  :  -170.9418538 Eh     change       -0.1492593E-06 Eh
 * total energy  :  -170.9418539 Eh     change       -0.1190104E-06 Eh
 * total energy  :  -170.9418540 Eh     change       -0.1384656E-06 Eh
 * total energy  :  -170.9418540 Eh     change        0.2736436E-07 Eh
 * total energy  :  -170.9418542 Eh     change       -0.1978781E-06 Eh
 * total energy  :  -170.9418542 Eh     change        0.4952483E-07 Eh
 * total energy  :  -170.9418543 Eh     change       -0.1224273E-06 Eh
 * total energy  :  -170.9418543 Eh     change       -0.4521607E-07 Eh
   *** GEOMETRY OPTIMIZATION CONVERGED AFTER 45 ITERATIONS ***

 final structure:
================
103
 xtb: 6.7.1 (edcfbbe)
N           -2.18423915680077       -3.30684311205314       -2.30674633008420
C           -1.84178636611309       -2.46194847809885       -1.59486978026318
C           -1.43694904331631       -1.46203816359022       -0.72293963030560
C           -2.33797670952999       -0.41289762793348       -0.34810017446629
N           -3.66940918991347       -0.47887193097046       -0.77869273468277
C           -4.58097162863144       -1.45514066915474       -0.43205510469968
C           -4.38097351430137       -2.65020723075890        0.24428089966670
C           -5.48595263786570       -3.43780486360252        0.50329360367813
C           -6.76325543468293       -3.04496811761109        0.11339178013450
C           -6.97122943590998       -1.84587272410100       -0.54457077852555
C           -5.87670302213596       -1.04303803851954       -0.82137165610634
C           -5.72620013130816        0.24249677055654       -1.44959958980579
C           -6.61188980119949        1.14025372496521       -2.02298845455915
C           -6.10961678535570        2.30874020981852       -2.56928203943272
C           -4.74244078980926        2.56638372373939       -2.58296171838706
C           -3.84038205389975        1.68305267165100       -2.02030621836243
C           -4.34587161567407        0.54150813058380       -1.41594375466454
C           -1.89866925148314        0.66985513362884        0.38649627289948
N           -2.80036988055874        1.66487877404246        0.78475057411602
C           -2.74127186428404        2.99617392312670        0.42620150390687
C           -1.73712523947641        3.68926986178533       -0.23471234130601
C           -1.95031168566521        5.02569268348390       -0.51213180068747
C           -3.13734007093617        5.65938345168644       -0.15566417118870
C           -4.14989575299824        4.96874180241639        0.48596505434457
C           -3.95523568341435        3.62922510769737        0.78084907856906
C           -4.77645128815483        2.62291185501144        1.39968680646684
C           -6.05062351143870        2.62486913998399        1.94344890541610
C           -6.53926683125523        1.45052990953960        2.48957494341428
C           -5.76005208466793        0.29869583496218        2.53240489354581
C           -4.48475934391143        0.27511490543843        1.99978812572730
C           -4.01619071299043        1.43222636536562        1.39529746947779
C           -0.52832259461285        0.77588456222272        0.79132506868343
C           -0.11955644344558        1.78059778776264        1.65522787326746
N            0.23194853572039        2.62991928600412        2.35776350412491
C            0.36937299685008       -0.27625923073134        0.42183913813929
N            1.70105163989451       -0.22378883998106        0.85930025093280
C            2.35720327553038       -1.26663758719613        1.48374585571278
C            1.82848816555674       -2.38914316762974        2.10280011294451
C            2.71481389261642       -3.29982483794970        2.64651552143457
C            4.09008343645924       -3.08986417110679        2.59666568727200
C            4.62003417117639       -1.94376154085952        2.03201672701545
C            3.74773569841206       -1.01848956610393        1.47979297103031
C            3.92186743308261        0.25377537513808        0.84184464001050
C            5.01975148028716        1.02496655331202        0.49819462325395
S            6.69539469636465        0.64563177724396        0.78374064866243
C            7.18707507969667        2.14127016909634        0.01453264954577
C            8.49004732286944        2.57825410585473       -0.14603071441859
C            8.70503489593764        3.78998028780508       -0.77614675789466
C            7.63460888199564        4.55049862810638       -1.23740746303305
C            6.33634756551207        4.11290019438596       -1.07708448145114
C            6.09257506813323        2.89514312552864       -0.44519928997597
C            4.83805760581314        2.24946448768874       -0.17183558439838
C            3.54884116659439        2.68376630036935       -0.49967944520531
C            2.44523291827806        1.92601616663934       -0.18347624515284
C            2.63333571912395        0.71841069534653        0.48855911861203
C           -0.06730131537857       -1.35517096559960       -0.32089310607101
N            0.84238383952339       -2.34053869288019       -0.72713201507747
C            2.06410232713586       -2.08349275913138       -1.31755986679180
C            2.51435174093740       -0.92022582742986       -1.92410902542106
C            3.80449226871935       -0.91150723295502       -2.42165089682357
C            4.61596274987508       -2.03841096318661       -2.34233090471582
C            4.14444743734894       -3.22250498303526       -1.80150056648952
C            2.85548546161633       -3.25322767423739       -1.29484700934239
C            2.04545466279047       -4.27605634532305       -0.68825497091995
C            2.26698872375969       -5.60873735145869       -0.38199277915593
C            1.25809807034194       -6.32127969332422        0.24109759851737
C            0.04771062978522       -5.71595173823070        0.56739951644149
C           -0.19262111550416       -4.38659393408404        0.27856414722775
C            0.80879900880929       -3.67136108043824       -0.36243156907280
H           -3.39685538285122       -2.96172972153037        0.55728557309111
H           -5.35554778654446       -4.37649046952425        1.02029941666893
H           -7.60281329483006       -3.68704059688893        0.33354036047575
H           -7.96376338138551       -1.53711014167225       -0.83485019937821
H           -7.66989227850036        0.92876134259197       -2.04442558896032
H           -6.78527369346373        3.02534067765444       -3.01115897453121
H           -4.37575100296578        3.47143702027697       -3.04304418399551
H           -2.77861107930419        1.87201555279116       -2.06364074696051
H           -0.81618589337267        3.20708649781157       -0.52263877052386
H           -1.18062982807902        5.58915174347464       -1.01769536109685
H           -3.26782376470562        6.70528914543000       -0.38939061109445
H           -5.07468298803733        5.45841064814777        0.74988619642600
H           -6.64576092829400        3.52506731737630        1.94244099030030
H           -7.53393981823043        1.42966976521457        2.90843992157994
H           -6.15511773226428       -0.59466709386657        2.99178339286105
H           -3.87250672873017       -0.61125507593721        2.06603252808279
H            0.76217040404938       -2.54286642978373        2.16926886888695
H            2.32979659506710       -4.19059790746429        3.11910828689490
H            4.75090448340270       -3.82837983476497        3.02426930860439
H            5.68432537653618       -1.76595260679956        2.02042885179219
H            9.31387541785708        1.98298542365706        0.21580872928612
H            9.71404562232036        4.14924898762582       -0.91011507275955
H            7.82497503160482        5.49454874286580       -1.72539293443119
H            5.50900418768035        4.70695983596902       -1.43421025188541
H            3.42564500556360        3.62393977586586       -1.01405484429713
H            1.45635498798804        2.26325628464341       -0.44851431380218
H            1.87658926514193       -0.05426548201792       -2.01780509265132
H            4.18610560508930       -0.01150122091376       -2.88014117436089
H            5.62275118846541       -1.99103940737399       -2.72869483187256
H            4.76535157968543       -4.10459260772933       -1.77469136312885
H            3.20920934760849       -6.07621184679827       -0.62346585058158
H            1.40930285513681       -7.36252738691479        0.48294988824811
H           -0.71928470281716       -6.29642967352195        1.05744849335592
H           -1.13277587913456       -3.92745136288425        0.54007348460607

 projected vibrational frequencies (cm⁻¹)
eigval :       -0.00    -0.00    -0.00    -0.00     0.00     0.00
eigval :       11.14    11.83    16.68    21.08    26.72    29.57
eigval :       33.35    33.68    44.27    51.04    54.03    59.72
eigval :       60.58    73.05    77.09    87.81    99.85   102.37
eigval :      107.40   110.50   112.34   115.62   118.87   124.70
eigval :      129.08   130.34   138.84   141.06   145.54   160.66
eigval :      165.01   192.52   194.81   196.36   211.22   213.29
eigval :      226.87   234.43   249.76   262.64   268.25   273.12
eigval :      275.43   278.18   283.10   293.64   313.72   331.10
eigval :      358.00   369.39   377.15   383.51   391.89   392.67
eigval :      397.52   399.08   401.79   403.29   411.28   416.83
eigval :      419.54   421.36   424.59   431.34   433.60   437.25
eigval :      439.13   443.71   453.00   462.97   480.02   489.55
eigval :      492.91   502.58   508.39   515.38   515.99   517.06
eigval :      520.16   535.24   536.84   538.03   538.58   539.76
eigval :      543.57   548.11   557.80   564.39   577.06   581.50
eigval :      585.16   587.54   593.80   597.40   600.79   618.64
eigval :      628.32   641.05   645.81   652.83   660.81   665.49
eigval :      671.85   672.82   673.66   687.59   689.32   702.30
eigval :      706.97   707.17   707.76   712.74   725.17   740.92
eigval :      752.65   754.71   757.67   763.65   764.93   766.65
eigval :      771.16   774.69   776.77   776.91   777.99   782.38
eigval :      806.70   810.30   837.04   856.94   860.64   862.39
eigval :      864.15   869.48   873.94   874.14   874.91   875.11
eigval :      888.24   889.94   894.04   898.58   899.04   900.08
eigval :      900.91   903.94   904.23   904.49   905.04   905.72
eigval :      918.08   918.33   918.98   920.56   920.67   920.91
eigval :      921.31   921.84   923.74   974.55  1001.20  1010.68
eigval :     1011.90  1013.82  1023.56  1046.65  1062.96  1066.90
eigval :     1067.80  1068.87  1069.56  1070.36  1071.18  1072.67
eigval :     1075.98  1083.57  1111.71  1120.53  1140.64  1140.95
eigval :     1141.62  1143.90  1146.14  1146.79  1156.22  1159.13
eigval :     1174.84  1175.54  1176.02  1178.17  1178.65  1178.75
eigval :     1180.04  1181.36  1191.04  1193.98  1214.67  1221.02
eigval :     1227.91  1229.75  1230.74  1232.12  1235.61  1242.95
eigval :     1258.52  1274.00  1276.14  1281.41  1283.23  1285.12
eigval :     1285.85  1292.35  1295.02  1299.20  1311.52  1322.18
eigval :     1331.95  1342.71  1343.08  1344.39  1346.09  1347.02
eigval :     1352.97  1361.31  1362.56  1365.44  1366.63  1374.67
eigval :     1385.42  1395.84  1398.49  1412.09  1412.73  1414.90
eigval :     1415.69  1418.64  1423.81  1427.68  1446.13  1456.40
eigval :     1462.76  1462.93  1463.49  1472.35  1477.87  1483.29
eigval :     1483.64  1483.83  1524.03  1542.26  1556.10  1565.52
eigval :     1568.89  1569.09  1569.66  1581.17  1582.31  1582.39
eigval :     1582.49  1583.78  1583.85  1584.40  1585.48  1598.15
eigval :     1602.59  1604.36  1607.29  2253.64  2293.11  3081.30
eigval :     3083.07  3083.11  3083.14  3083.49  3083.72  3083.81
eigval :     3084.47  3087.23  3087.41  3087.53  3088.93  3089.07
eigval :     3089.22  3089.26  3090.21  3093.54  3094.41  3094.66
eigval :     3095.80  3096.37  3096.55  3096.68  3097.74  3097.96
eigval :     3100.82  3101.17  3101.21  3101.32  3101.72  3102.75
eigval :     3103.06  3103.56  3109.29

   temp. (K)  partition function   enthalpy   heat capacity  entropy
                                   cal/mol     cal/K/mol   cal/K/mol   J/K/mol
 298.15  VIB  0.477E+24            31571.053    200.720    195.048
         ROT  0.151E+09              888.752      2.981     40.413
         INT  0.722E+32            32459.805    203.701    235.461
         TR   0.259E+29             1481.254      4.968     46.230
         TOT                       33941.0592   208.6693   281.6909  1178.5948

       T/K    H(0)-H(T)+PV         H(T)/Eh          T*S/Eh         G(T)/Eh
   ------------------------------------------------------------------------
    298.15    0.540885E-01    0.810515E+00    0.133840E+00    0.676675E+00
   ------------------------------------------------------------------------

         :::::::::::::::::::::::::::::::::::::::::::::::::::::
         ::                  THERMODYNAMIC                  ::
         :::::::::::::::::::::::::::::::::::::::::::::::::::::
         :: total free energy        -170.265179271113 Eh   ::
         ::.................................................::
         :: total energy             -170.941854324549 Eh   ::
         :: zero point energy           0.756426978780 Eh   ::
         :: G(RRHO) w/o ZPVE           -0.079751925344 Eh   ::
         :: G(RRHO) contrib.            0.676675053436 Eh   ::
         :::::::::::::::::::::::::::::::::::::::::::::::::::::

           -------------------------------------------------
          | TOTAL ENERGY             -170.941854324549 Eh   |
          | TOTAL ENTHALPY           -170.131338825079 Eh   |
          | TOTAL FREE ENERGY        -170.265179271113 Eh   |
          | GRADIENT NORM               0.000064651474 Eh/α |
           -------------------------------------------------

 * finished run on 2025/07/16 at 19:57:10.452
