   * xtb version 6.7.1 (edcfbbe) compiled by 'albert@albert-system' on 2024-07-22

   ID    Z sym.   atoms
    1    6 C      1-4, 6-12, 14, 16-23, 25, 27-29
    2    7 N      5, 13, 15, 24, 26
    3    1 H      30-46

          program call               : xtb data2507/toluene/CBM/CBM_toluene_T1_crest.xyz --gfn 2 --uhf 2 --gbsa toluene --ohess vtight --parallel 40 --molden --ceasefiles --namespace data2507/toluene/CBM/CBM_toluene_T1_finalOpt
      * Solvation model:               GBSA
        Solvent                        toluene
        Solvent mass                       9.2140E+01 g/mol
          :  Hamiltonian                  GFN2-xTB          :
 * total energy  :   -74.5070615 Eh     change       -0.3672156E-08 Eh
 * total energy  :   -74.5071511 Eh     change       -0.8954052E-04 Eh
 * total energy  :   -74.5071396 Eh     change        0.1147231E-04 Eh
 * total energy  :   -74.5071812 Eh     change       -0.4162667E-04 Eh
 * total energy  :   -74.5071846 Eh     change       -0.3382861E-05 Eh
 * total energy  :   -74.5071697 Eh     change        0.1484478E-04 Eh
 * total energy  :   -74.5071913 Eh     change       -0.2153498E-04 Eh
 * total energy  :   -74.5071823 Eh     change        0.8936991E-05 Eh
 * total energy  :   -74.5071959 Eh     change       -0.1351540E-04 Eh
 * total energy  :   -74.5071601 Eh     change        0.3572123E-04 Eh
 * total energy  :   -74.5072139 Eh     change       -0.8773893E-06 Eh
 * total energy  :   -74.5072134 Eh     change        0.4397262E-06 Eh
 * total energy  :   -74.5072146 Eh     change       -0.1190549E-05 Eh
 * total energy  :   -74.5072142 Eh     change        0.3660153E-06 Eh
 * total energy  :   -74.5072151 Eh     change       -0.8515824E-06 Eh
 * total energy  :   -74.5072151 Eh     change       -0.3485999E-07 Eh
 * total energy  :   -74.5072149 Eh     change        0.2096579E-06 Eh
 * total energy  :   -74.5072155 Eh     change       -0.5704230E-06 Eh
 * total energy  :   -74.5072155 Eh     change       -0.4390026E-07 Eh
   *** GEOMETRY OPTIMIZATION CONVERGED AFTER 29 ITERATIONS ***

 final structure:
================
46
 xtb: 6.7.1 (edcfbbe)
C           -0.36924863382589       -5.25886683838717       -2.51278943310656
C           -0.72568868013368       -4.49559976144702       -1.24159109053519
C            0.45190174689518       -4.46418654478388       -0.27032931975752
C            0.13393397974932       -3.70829406034441        1.03043825017322
N           -0.05741314977177       -2.30391421222935        0.79595288429844
C            0.95473683113079       -1.41225428847752        0.60474631604431
C            2.34240092455781       -1.59759811123238        0.64973182986767
C            3.15374246041877       -0.51731264942069        0.41733929561789
C            2.63589298424774        0.77551630640653        0.13627068685223
C            3.44092880125085        1.90547955896208       -0.11096799572882
C            4.83183453710556        2.00324857332130       -0.13088832419950
C            5.42626652458139        3.24416761913041       -0.40701278030714
N            5.91530733261408        4.26236926622799       -0.63258960531447
C            5.77347022640956        0.99469351700111        0.09559547348313
N            6.61236681703055        0.22181845445707        0.27010823566613
C            1.21985440886307        0.94980305122866        0.10217442086008
C            0.40741011222603       -0.12287137300027        0.33369670029158
C           -1.03433427832244       -0.29166878331957        0.37397859939818
C           -2.07642795692096        0.57358608745417        0.19651480647648
C           -3.41118792913405        0.08506237974496        0.30476971411278
C           -4.54838273974147        0.89822973722161        0.14900480030230
C           -4.61158180926308        2.26949438051098       -0.11725798846735
C           -5.86669511890388        2.88387902582305       -0.23165153030477
N           -6.90028939836615        3.38476598787366       -0.32504575123494
C           -3.55321329802122        3.16443301422458       -0.29126449925500
N           -2.73432337568544        3.96326476565393       -0.44723340856397
C           -3.60428507571048       -1.29688484931901        0.59055593480183
C           -2.56365909295715       -2.16750947417939        0.77047884241662
C           -1.25582079770398       -1.67179342353174        0.66245548724951
H            0.46857454827732       -4.78724846782690       -3.02216602597651
H           -0.09479214837168       -6.28564727978383       -2.28051879194648
H           -1.21624634392189       -5.27697228460632       -3.19462758779306
H           -1.58105787086230       -4.97821470760020       -0.76431068237844
H           -1.01797808422408       -3.47742847620042       -1.50835101302637
H            0.72787491831683       -5.48543115983243       -0.00383796389275
H            1.31100741604587       -3.99873716842523       -0.75673110065226
H            0.96317680906604       -3.83202881683419        1.73191374421835
H           -0.77100734112475       -4.11618033105778        1.48321123823111
H            2.77555100861857       -2.56193258839883        0.86217868772390
H            4.22234818601152       -0.65002887934217        0.44916173386360
H            2.91918665353151        2.83266956779717       -0.31467117251281
H            0.80805351724583        1.92541385957793       -0.10623521321548
H           -1.89673651750700        1.61202541765579       -0.02335926868209
H           -5.51137111493136        0.41299402743461        0.24850843474442
H           -4.61774735408597       -1.65966659336574        0.66945252789739
H           -2.75618226070584       -3.20584999706177        0.98697158165828

          :  Hamiltonian                  GFN2-xTB          :
         :: gradient norm              0.000158099282 Eh/a0 ::
         :: HOMO-LUMO gap              0.340813825335 eV    ::
         :: SCC energy               -75.936523529168 Eh    ::
         :: -> dispersion             -0.054301236891 Eh    ::
         :: -> Gsolv                  -0.056224892438 Eh    ::
         :: repulsion energy           1.429308001371 Eh    ::

    * Orbital Energies and Occupations

         #    Occupation            Energy/Eh            Energy/eV
      -------------------------------------------------------------
         1        2.0000           -0.7189403             -19.5634
       ...           ...                  ...                  ...
        58        2.0000           -0.4517063             -12.2916
        59        2.0000           -0.4472651             -12.1707
        60        2.0000           -0.4471513             -12.1676
        61        2.0000           -0.4405255             -11.9873
        62        2.0000           -0.4397216             -11.9654
        63        2.0000           -0.4376570             -11.9093
        64        2.0000           -0.4359348             -11.8624
        65        2.0000           -0.4308808             -11.7249
        66        2.0000           -0.4305849             -11.7168
        67        2.0000           -0.4245334             -11.5521
        68        1.9995           -0.4080341             -11.1032
        69        1.0005           -0.3936649             -10.7122
        70        0.9986           -0.3243763              -8.8267 (HOMO)
        71        0.0014           -0.3118516              -8.4859 (LUMO)
        72                         -0.2755212              -7.4973
        73                         -0.2408014              -6.5525
        74                         -0.2403522              -6.5403
        75                         -0.2400154              -6.5312
        76                         -0.2183575              -5.9418
        77                         -0.2176784              -5.9233
        78                         -0.2133498              -5.8055
        79                         -0.2087522              -5.6804
        80                         -0.1989952              -5.4149
        81                         -0.1981799              -5.3928
       ...                                ...                  ...
       133                          1.1529152              31.3724
      -------------------------------------------------------------
                  HL-Gap            0.0125247 Eh            0.3408 eV

     #   Z          covCN         q      C6AA      α(0)
     1   6 C        3.752    -0.106    22.587     6.777
     2   6 C        3.800    -0.055    21.566     6.612
     3   6 C        3.803    -0.065    21.747     6.639
     4   6 C        3.742    -0.020    21.007     6.539
     5   7 N        2.798     0.054    20.295     6.691
     6   6 C        3.078     0.039    27.039     8.525
     7   6 C        2.904    -0.029    28.728     8.788
     8   6 C        2.920    -0.033    28.812     8.802
     9   6 C        2.965     0.027    27.397     8.585
    10   6 C        2.918    -0.023    28.589     8.768
    11   6 C        2.944     0.005    27.920     8.666
    12   6 C        1.943     0.120    28.131     8.565
    13   7 N        0.911    -0.280    27.234     7.548
    14   6 C        1.933     0.124    28.036     8.551
    15   7 N        0.911    -0.288    27.424     7.574
    16   6 C        2.918    -0.025    28.621     8.773
    17   6 C        3.052    -0.001    27.996     8.678
    18   6 C        3.054     0.000    27.973     8.674
    19   6 C        2.910    -0.027    28.687     8.783
    20   6 C        2.965     0.027    27.397     8.586
    21   6 C        2.918    -0.027    28.671     8.781
    22   6 C        2.944     0.003    27.958     8.672
    23   6 C        1.943     0.119    28.147     8.568
    24   7 N        0.911    -0.284    27.326     7.560
    25   6 C        1.933     0.124    28.049     8.553
    26   7 N        0.911    -0.296    27.612     7.600
    27   6 C        2.927    -0.033    28.817     8.803
    28   6 C        2.904    -0.029    28.729     8.789
    29   6 C        3.076     0.039    27.039     8.526
    30   1 H        0.925     0.037     2.489     2.467
    31   1 H        0.925     0.040     2.446     2.446
    32   1 H        0.925     0.039     2.467     2.456
    33   1 H        0.924     0.042     2.422     2.434
    34   1 H        0.924     0.034     2.526     2.486
    35   1 H        0.924     0.065     2.146     2.291
    36   1 H        0.924     0.055     2.259     2.351
    37   1 H        0.924     0.080     1.978     2.199
    38   1 H        0.924     0.081     1.969     2.194
    39   1 H        0.926     0.068     2.111     2.272
    40   1 H        0.926     0.055     2.263     2.352
    41   1 H        0.925     0.053     2.287     2.365
    42   1 H        0.926     0.058     2.222     2.331
    43   1 H        0.926     0.053     2.280     2.361
    44   1 H        0.925     0.052     2.293     2.368
    45   1 H        0.926     0.059     2.206     2.323
    46   1 H        0.926     0.068     2.104     2.268

molecular dipole:
                 x           y           z       tot (Debye)
 q only:       -1.301      -6.523       1.059
   full:       -1.677      -6.870       1.165      18.217

 projected vibrational frequencies (cm⁻¹)
eigval :        0.00     0.00     0.00     0.00     0.00     0.00
eigval :       10.98    20.28    23.81    29.21    42.94    43.93
eigval :       54.24    63.14    82.22   101.52   112.57   119.51
eigval :      120.99   127.00   137.56   160.59   184.32   194.68
eigval :      199.95   220.19   229.78   252.10   264.33   285.45
eigval :      299.91   310.37   318.22   371.04   379.80   388.90
eigval :      392.48   410.23   416.13   420.46   431.95   491.46
eigval :      496.42   538.21   556.06   563.63   567.51   569.92
eigval :      580.94   586.60   591.09   607.37   613.45   683.20
eigval :      697.79   699.53   730.15   772.14   785.11   793.21
eigval :      810.16   816.59   819.15   825.88   830.13   839.39
eigval :      859.57   872.98   890.19   898.51   901.35   903.41
eigval :      960.77   966.09  1006.23  1013.29  1062.68  1089.53
eigval :     1093.37  1121.51  1133.53  1159.33  1161.35  1178.08
eigval :     1182.40  1199.72  1202.54  1220.91  1229.59  1238.35
eigval :     1251.46  1277.38  1282.29  1298.46  1302.39  1305.74
eigval :     1335.74  1339.00  1352.03  1358.06  1365.34  1378.32
eigval :     1398.71  1409.87  1416.25  1446.75  1457.08  1468.48
eigval :     1481.13  1488.32  1491.18  1497.75  1499.36  1504.43
eigval :     1521.44  1578.79  1598.07  2257.99  2265.16  2290.79
eigval :     2326.42  2968.58  2971.86  2981.86  2989.74  2999.61
eigval :     3004.32  3029.88  3032.49  3039.69  3058.52  3061.07
eigval :     3092.79  3095.17  3104.40  3107.24  3136.72  3141.54

   temp. (K)  partition function   enthalpy   heat capacity  entropy
                                   cal/mol     cal/K/mol   cal/K/mol   J/K/mol
 298.15  VIB  0.431E+13            15463.190     89.479     98.497
         ROT  0.257E+08              888.752      2.981     36.886
         INT  0.111E+21            16351.942     92.460    135.382
         TR   0.704E+28             1481.254      4.968     43.641
         TOT                       17833.1958    97.4283   179.0239   749.0359

       T/K    H(0)-H(T)+PV         H(T)/Eh          T*S/Eh         G(T)/Eh
   ------------------------------------------------------------------------
    298.15    0.284190E-01    0.367162E+00    0.850600E-01    0.282102E+00
   ------------------------------------------------------------------------

         :::::::::::::::::::::::::::::::::::::::::::::::::::::
         ::                  THERMODYNAMIC                  ::
         :::::::::::::::::::::::::::::::::::::::::::::::::::::
         :: total free energy         -74.225114015437 Eh   ::
         ::.................................................::
         :: total energy              -74.507215529948 Eh   ::
         :: zero point energy           0.338742533559 Eh   ::
         :: G(RRHO) w/o ZPVE           -0.056641019048 Eh   ::
         :: G(RRHO) contrib.            0.282101514511 Eh   ::
         :::::::::::::::::::::::::::::::::::::::::::::::::::::

           -------------------------------------------------
          | TOTAL ENERGY              -74.507215529948 Eh   |
          | TOTAL ENTHALPY            -74.140053989972 Eh   |
          | TOTAL FREE ENERGY         -74.225114015437 Eh   |
          | GRADIENT NORM               0.000158069733 Eh/α |
          | HOMO-LUMO GAP               0.340814117360 eV   |
           -------------------------------------------------

 * finished run on 2025/08/24 at 06:14:16.718
