   * xtb version 6.7.1 (edcfbbe) compiled by 'albert@albert-system' on 2024-07-22

   ID    Z sym.   atoms
    1    6 C      1-4, 6-12, 14, 16-23, 25, 27-29
    2    7 N      5, 13, 15, 24, 26
    3    1 H      30-46

          program call               : xtb data2507/toluene/CBM/CBM_toluene_S0_crest.xyz --gfn 2 --gbsa toluene --ohess vtight --parallel 40 --molden --ceasefiles --namespace data2507/toluene/CBM/CBM_toluene_S0_finalOpt
      * Solvation model:               GBSA
        Solvent                        toluene
        Solvent mass                       9.2140E+01 g/mol
          :  Hamiltonian                  GFN2-xTB          :
 * total energy  :   -74.5763816 Eh     change       -0.1362309E-08 Eh
 * total energy  :   -74.5764822 Eh     change       -0.1006020E-03 Eh
 * total energy  :   -74.5763210 Eh     change        0.1612326E-03 Eh
 * total energy  :   -74.5765240 Eh     change       -0.2030501E-03 Eh
 * total energy  :   -74.5764640 Eh     change        0.6005388E-04 Eh
 * total energy  :   -74.5765232 Eh     change       -0.5925902E-04 Eh
 * total energy  :   -74.5765305 Eh     change       -0.7245117E-05 Eh
 * total energy  :   -74.5765206 Eh     change        0.9919527E-05 Eh
 * total energy  :   -74.5765339 Eh     change       -0.1334176E-04 Eh
 * total energy  :   -74.5765315 Eh     change        0.2371032E-05 Eh
 * total energy  :   -74.5765454 Eh     change       -0.8938746E-06 Eh
 * total energy  :   -74.5765456 Eh     change       -0.2765445E-06 Eh
 * total energy  :   -74.5765439 Eh     change        0.1709470E-05 Eh
 * total energy  :   -74.5765463 Eh     change       -0.2388715E-05 Eh
 * total energy  :   -74.5765446 Eh     change        0.1711214E-05 Eh
 * total energy  :   -74.5765465 Eh     change       -0.1854014E-05 Eh
 * total energy  :   -74.5765463 Eh     change        0.1646899E-06 Eh
 * total energy  :   -74.5765465 Eh     change       -0.2559240E-06 Eh
 * total energy  :   -74.5765466 Eh     change       -0.9614932E-07 Eh
   *** GEOMETRY OPTIMIZATION CONVERGED AFTER 29 ITERATIONS ***

 final structure:
================
46
 xtb: 6.7.1 (edcfbbe)
C           -0.35786428255691       -5.31231489894876       -2.48473549671519
C           -0.71498278263059       -4.53644235285739       -1.22200724647053
C            0.45434711378721       -4.50206507820380       -0.23981358848252
C            0.13225834146865       -3.72499408237740        1.04259251845837
N           -0.05788507923473       -2.31770676478059        0.79209034726277
C            0.95524912116244       -1.41898278799856        0.59725997388558
C            2.33553784979798       -1.60406741276230        0.64298307245379
C            3.14689410983483       -0.51822869886060        0.41317671850357
C            2.62494460069327        0.76378142237306        0.13402024275019
C            3.44571304825865        1.90985054155192       -0.11503176511367
C            4.80488362333638        2.01800254154018       -0.13551036562603
C            5.39929496229185        3.27144751814722       -0.40970098119662
N            5.88341274999048        4.28822356394267       -0.63180053635196
C            5.76492563066433        1.01080717541336        0.08812000056764
N            6.61285124482433        0.25311035330696        0.25621392602133
C            1.23338384389296        0.94340112183090        0.09530919408298
C            0.40881046669126       -0.13680087019796        0.32610322812321
C           -1.02099393636460       -0.29939485686621        0.36326344370103
C           -2.07011246384247        0.57671840618905        0.18449393207180
C           -3.38249649376991        0.09765101925245        0.28951029771718
C           -4.53726541789271        0.92690368421540        0.12884651060498
C           -4.61163466209980        2.26609671617654       -0.12136788875156
C           -5.87825672672213        2.88265904951087       -0.23871521567578
N           -6.90815640832223        3.38075276925649       -0.33359341547334
C           -3.55141104367058        3.17946004954985       -0.28519569237645
N           -2.74471808368938        3.98561339256050       -0.42981798996776
C           -3.59362298059882       -1.27227696533408        0.57301476836329
C           -2.55761158753106       -2.15568050967648        0.75453904872911
C           -1.25430294106423       -1.67200875311509        0.65096350783862
H            0.48747718542308       -4.85162190507320       -2.99193477297895
H           -0.09271687046632       -6.33926182670071       -2.24196262623256
H           -1.20024373973526       -5.32967577388476       -3.17250610153394
H           -1.57747384996378       -5.00714090753366       -0.74500751898142
H           -0.99707548245649       -3.51740110632292       -1.49657037469051
H            0.72184025161808       -5.52258957634920        0.03934665683671
H            1.32030521143513       -4.04968043962808       -0.72709190349720
H            0.95274747483880       -3.83825322559866        1.75686777663800
H           -0.77622401865796       -4.12041806954269        1.50017456694470
H            2.76988936532297       -2.56839634277791        0.85239027951232
H            4.21587738486417       -0.65140927266503        0.44609597807320
H            2.90548343520955        2.82838595167450       -0.31701351237419
H            0.81529929280619        1.91689759658589       -0.11282725767853
H           -1.87740533261622        1.61382692434048       -0.03377540770019
H           -5.49165700747572        0.42060673002576        0.22272657636185
H           -4.60929010632312       -1.63063264836275        0.64982099063424
H           -2.75996047282782       -3.19288484292630        0.96725375663089

          :  Hamiltonian                  GFN2-xTB          :
         :: gradient norm              0.000200215494 Eh/a0 ::
         :: HOMO-LUMO gap              1.817058863720 eV    ::
         :: SCC energy               -76.024167321708 Eh    ::
         :: -> dispersion             -0.054456695976 Eh    ::
         :: -> Gsolv                  -0.049389053516 Eh    ::
         :: repulsion energy           1.447620675971 Eh    ::

    * Orbital Energies and Occupations

         #    Occupation            Energy/Eh            Energy/eV
      -------------------------------------------------------------
         1        2.0000           -0.7069661             -19.2375
       ...           ...                  ...                  ...
        57        2.0000           -0.4528910             -12.3238
        58        2.0000           -0.4508997             -12.2696
        59        2.0000           -0.4478191             -12.1858
        60        2.0000           -0.4454862             -12.1223
        61        2.0000           -0.4428583             -12.0508
        62        2.0000           -0.4410470             -12.0015
        63        2.0000           -0.4377104             -11.9107
        64        2.0000           -0.4368200             -11.8865
        65        2.0000           -0.4356793             -11.8554
        66        2.0000           -0.4345786             -11.8255
        67        2.0000           -0.4229833             -11.5100
        68        2.0000           -0.4072483             -11.0818
        69        2.0000           -0.3903717             -10.6226 (HOMO)
        70                         -0.3235960              -8.8055 (LUMO)
        71                         -0.3127239              -8.5096
        72                         -0.2723445              -7.4109
        73                         -0.2461366              -6.6977
        74                         -0.2449248              -6.6647
        75                         -0.2358806              -6.4186
        76                         -0.2244537              -6.1077
        77                         -0.2228114              -6.0630
        78                         -0.2085391              -5.6746
        79                         -0.2058635              -5.6018
        80                         -0.2056291              -5.5955
       ...                                ...                  ...
       133                          1.1530447              31.3759
      -------------------------------------------------------------
                  HL-Gap            0.0667757 Eh            1.8171 eV

     #   Z          covCN         q      C6AA      α(0)
     1   6 C        3.752    -0.105    22.566     6.774
     2   6 C        3.800    -0.054    21.539     6.608
     3   6 C        3.803    -0.066    21.770     6.643
     4   6 C        3.740    -0.013    20.889     6.521
     5   7 N        2.796     0.000    21.254     6.847
     6   6 C        3.088     0.054    26.702     8.470
     7   6 C        2.907    -0.042    29.038     8.836
     8   6 C        2.924    -0.027    28.680     8.782
     9   6 C        2.969     0.010    27.797     8.648
    10   6 C        2.922     0.002    27.992     8.676
    11   6 C        2.944     0.005    27.901     8.663
    12   6 C        1.941     0.123    28.057     8.554
    13   7 N        0.911    -0.264    26.834     7.492
    14   6 C        1.928     0.130    27.908     8.531
    15   7 N        0.911    -0.270    26.992     7.514
    16   6 C        2.921    -0.024    28.611     8.772
    17   6 C        3.062    -0.010    28.208     8.709
    18   6 C        3.065    -0.010    28.188     8.706
    19   6 C        2.913    -0.025    28.622     8.773
    20   6 C        2.969     0.009    27.821     8.652
    21   6 C        2.921     0.001    28.001     8.678
    22   6 C        2.944     0.004    27.929     8.668
    23   6 C        1.940     0.123    28.062     8.555
    24   7 N        0.911    -0.265    26.867     7.497
    25   6 C        1.927     0.130    27.906     8.531
    26   7 N        0.911    -0.274    27.078     7.526
    27   6 C        2.931    -0.028    28.694     8.785
    28   6 C        2.906    -0.042    29.050     8.838
    29   6 C        3.084     0.054    26.699     8.471
    30   1 H        0.925     0.035     2.513     2.479
    31   1 H        0.925     0.038     2.475     2.460
    32   1 H        0.925     0.036     2.497     2.471
    33   1 H        0.924     0.038     2.481     2.463
    34   1 H        0.924     0.032     2.557     2.501
    35   1 H        0.924     0.055     2.260     2.351
    36   1 H        0.924     0.048     2.340     2.392
    37   1 H        0.924     0.065     2.139     2.287
    38   1 H        0.924     0.069     2.096     2.264
    39   1 H        0.926     0.059     2.216     2.328
    40   1 H        0.926     0.051     2.311     2.377
    41   1 H        0.925     0.064     2.154     2.295
    42   1 H        0.926     0.054     2.267     2.354
    43   1 H        0.926     0.050     2.324     2.384
    44   1 H        0.925     0.065     2.145     2.290
    45   1 H        0.926     0.056     2.246     2.344
    46   1 H        0.926     0.059     2.213     2.326

molecular dipole:
                 x           y           z       tot (Debye)
 q only:       -1.355      -5.113       0.854
   full:       -1.738      -5.513       0.956      14.892

 projected vibrational frequencies (cm⁻¹)
eigval :       -0.00    -0.00    -0.00     0.00     0.00     0.00
eigval :       16.11    18.16    24.94    28.39    44.02    46.30
eigval :       57.64    67.71    82.09   101.26   112.29   120.82
eigval :      125.17   127.62   136.81   162.51   187.23   197.10
eigval :      208.73   220.96   231.15   253.57   267.55   287.98
eigval :      300.33   325.32   337.56   370.23   384.95   393.34
eigval :      410.49   415.51   430.66   448.29   451.27   495.11
eigval :      500.74   544.54   561.13   572.47   579.88   584.54
eigval :      591.03   597.51   600.98   614.49   617.24   691.79
eigval :      702.15   714.73   739.26   780.01   787.51   813.26
eigval :      817.35   821.59   836.05   858.48   860.63   872.22
eigval :      877.93   890.44   901.22   906.29   909.84   917.97
eigval :      973.78   980.44  1013.21  1026.62  1068.63  1096.18
eigval :     1125.78  1134.25  1153.40  1157.61  1162.72  1179.09
eigval :     1186.81  1202.89  1219.36  1233.34  1240.82  1248.22
eigval :     1279.51  1283.73  1303.20  1311.27  1319.37  1335.28
eigval :     1343.69  1365.80  1368.39  1374.16  1378.74  1416.62
eigval :     1429.87  1443.25  1454.85  1462.17  1472.39  1481.00
eigval :     1491.63  1499.03  1500.47  1527.65  1542.57  1551.32
eigval :     1562.59  1597.27  1616.79  2325.63  2326.30  2358.61
eigval :     2361.71  2962.32  2966.68  2980.51  2983.91  2994.40
eigval :     2998.04  3027.05  3030.19  3037.65  3046.53  3047.73
eigval :     3088.28  3089.13  3104.88  3107.21  3131.31  3134.13

   temp. (K)  partition function   enthalpy   heat capacity  entropy
                                   cal/mol     cal/K/mol   cal/K/mol   J/K/mol
 298.15  VIB  0.206E+13            15231.329     88.355     96.855
         ROT  0.258E+08              888.752      2.981     36.892
         INT  0.531E+20            16120.081     91.336    133.748
         TR   0.704E+28             1481.254      4.968     43.641
         TOT                       17601.3352    96.3042   177.3890   742.1954

       T/K    H(0)-H(T)+PV         H(T)/Eh          T*S/Eh         G(T)/Eh
   ------------------------------------------------------------------------
    298.15    0.280495E-01    0.370163E+00    0.842832E-01    0.285880E+00
   ------------------------------------------------------------------------

         :::::::::::::::::::::::::::::::::::::::::::::::::::::
         ::                  THERMODYNAMIC                  ::
         :::::::::::::::::::::::::::::::::::::::::::::::::::::
         :: total free energy         -74.290667110621 Eh   ::
         ::.................................................::
         :: total energy              -74.576546647390 Eh   ::
         :: zero point energy           0.342113243005 Eh   ::
         :: G(RRHO) w/o ZPVE           -0.056233706236 Eh   ::
         :: G(RRHO) contrib.            0.285879536769 Eh   ::
         :::::::::::::::::::::::::::::::::::::::::::::::::::::

           -------------------------------------------------
          | TOTAL ENERGY              -74.576546647390 Eh   |
          | TOTAL ENTHALPY            -74.206383891372 Eh   |
          | TOTAL FREE ENERGY         -74.290667110621 Eh   |
          | GRADIENT NORM               0.000199923365 Eh/α |
          | HOMO-LUMO GAP               1.817057942681 eV   |
           -------------------------------------------------

 * finished run on 2025/08/24 at 06:10:38.014
