   * xtb version 6.7.1 (edcfbbe) compiled by 'albert@albert-system' on 2024-07-22

   ID    Z sym.   atoms
    1    6 C      1-4, 6-12, 14, 16-23, 25, 27-29
    2    7 N      5, 13, 15, 24, 26
    3    1 H      30-46

          program call               : xtb data2507/toluene/CBM/CBM.xyz --gfn 2 --gbsa toluene --ohess vtight --parallel 40 --molden --ceasefiles --namespace data2507/toluene/CBM/CBM_toluene_S0_preOpt
      * Solvation model:               GBSA
        Solvent                        toluene
        Solvent mass                       9.2140E+01 g/mol
          :  Hamiltonian                  GFN2-xTB          :
 * total energy  :   -74.5507322 Eh     change       -0.7176780E-08 Eh
 * total energy  :   -74.5602484 Eh     change       -0.9516229E-02 Eh
 * total energy  :   -74.5628705 Eh     change       -0.2622089E-02 Eh
 * total energy  :   -74.5637622 Eh     change       -0.8917744E-03 Eh
 * total energy  :   -74.5650775 Eh     change       -0.1315281E-02 Eh
 * total energy  :   -74.5663073 Eh     change       -0.1229793E-02 Eh
 * total energy  :   -74.5673915 Eh     change       -0.1084189E-02 Eh
 * total energy  :   -74.5674065 Eh     change       -0.1501855E-04 Eh
 * total energy  :   -74.5687937 Eh     change       -0.1387157E-02 Eh
 * total energy  :   -74.5694279 Eh     change       -0.6342091E-03 Eh
 * total energy  :   -74.5759460 Eh     change       -0.2399497E-06 Eh
 * total energy  :   -74.5759461 Eh     change       -0.6165322E-07 Eh
 * total energy  :   -74.5759462 Eh     change       -0.8368252E-07 Eh
 * total energy  :   -74.5759451 Eh     change        0.1131423E-05 Eh
 * total energy  :   -74.5759467 Eh     change       -0.1607459E-05 Eh
 * total energy  :   -74.5759465 Eh     change        0.1132866E-06 Eh
 * total energy  :   -74.5759467 Eh     change       -0.1640318E-06 Eh
 * total energy  :   -74.5759468 Eh     change       -0.4499285E-07 Eh
 * total energy  :   -74.5759468 Eh     change       -0.8095664E-07 Eh
   *** GEOMETRY OPTIMIZATION CONVERGED AFTER 77 ITERATIONS ***

 final structure:
================
46
 xtb: 6.7.1 (edcfbbe)
C           -4.95388222267611       -2.71430134136639       -0.14831009560095
C           -3.66903662851422       -3.23197059914706        0.49021687339496
C           -2.59656495911401       -2.15379084856414        0.64881495246448
C           -2.03393558509023       -1.68181618951350       -0.69724511528027
N           -0.96892122895049       -0.72794324821594       -0.51564854949336
C            0.35173513085265       -1.03593935058428       -0.33818800118116
C            0.98931883110605       -2.27475201354052       -0.33690306790390
C            2.34975717152143       -2.30797987908362       -0.14212721470160
C            3.10897425085723       -1.13370877490704        0.05458480983778
C            4.52552401333328       -1.13795657343606        0.25950653220611
C            5.39322498897901       -2.18837998415132        0.31778313181561
C            6.76873794122823       -1.94322789044540        0.53551584462384
N            7.88551988366688       -1.74600002011254        0.71333623420864
C            5.11077597857802       -3.56331952882880        0.19185885009669
N            4.96955299181734       -4.70051278058133        0.10162328088523
C            2.45925812999962        0.11064910233787        0.05404708348826
C            1.09524787920836        0.15782637964203       -0.13829834888128
C            0.13986596767534        1.23384858822148       -0.18726569006273
C            0.25434439598522        2.60146456451611       -0.05690803817203
C           -0.89889898583151        3.39222150803329       -0.14795553511415
C           -0.88702277097067        4.81761986271048       -0.02434748670153
C            0.16831082605986        5.66152480267699        0.16410038046650
C           -0.06288531673345        7.05279614144821        0.25982129344209
N           -0.25478950440861        8.18189639939010        0.33817701853580
C            1.53374080670593        5.33315222256665        0.27761228312120
N            2.66378634781115        5.14709470665285        0.37714424925159
C           -2.14818426101148        2.76629154805234       -0.36997293611683
C           -2.27653443769564        1.40506860036781       -0.50383442486796
C           -1.12448580852280        0.62604750517939       -0.41453636548442
H           -4.78997941463021       -2.40769761032643       -1.17827117390925
H           -5.71065990720059       -3.49549168240926       -0.14938642126649
H           -5.34333980304770       -1.86642491334613        0.41146852751919
H           -3.27106183986327       -4.05532364798574       -0.10696137595303
H           -3.90360824423269       -3.62780500835174        1.48060411826578
H           -3.01463104433206       -1.29881823425904        1.18443804194564
H           -1.77491103992992       -2.55236736501333        1.24834054955991
H           -2.81693468525994       -1.21012847767853       -1.29268722394586
H           -1.64467951218806       -2.53569952493809       -1.25683055381092
H            0.44167196343447       -3.19254178799519       -0.47946314934671
H            2.85175677139908       -3.26176237147008       -0.13875598727489
H            4.97501895089723       -0.15933118809688        0.38802924694849
H            3.02274848624991        1.01929494924905        0.20471281097296
H            1.21827847665798        3.05000254449175        0.11670310244850
H           -1.85661868736813        5.29861754106550       -0.09126668112661
H           -3.02957707992871        3.38674851926243       -0.43486115883169
H           -3.24600321651728        0.96282434847715       -0.66841362046448

          :  Hamiltonian                  GFN2-xTB          :
         :: gradient norm              0.000079229039 Eh/a0 ::
         :: HOMO-LUMO gap              1.811548592526 eV    ::
         :: SCC energy               -76.023653078509 Eh    ::
         :: -> dispersion             -0.053768189921 Eh    ::
         :: -> Gsolv                  -0.049666944697 Eh    ::
         :: repulsion energy           1.447706236298 Eh    ::

    * Orbital Energies and Occupations

         #    Occupation            Energy/Eh            Energy/eV
      -------------------------------------------------------------
         1        2.0000           -0.7070081             -19.2387
       ...           ...                  ...                  ...
        57        2.0000           -0.4510251             -12.2730
        58        2.0000           -0.4491672             -12.2225
        59        2.0000           -0.4468843             -12.1603
        60        2.0000           -0.4454435             -12.1211
        61        2.0000           -0.4433045             -12.0629
        62        2.0000           -0.4413373             -12.0094
        63        2.0000           -0.4396590             -11.9637
        64        2.0000           -0.4368385             -11.8870
        65        2.0000           -0.4356079             -11.8535
        66        2.0000           -0.4343489             -11.8192
        67        2.0000           -0.4230763             -11.5125
        68        2.0000           -0.4072922             -11.0830
        69        2.0000           -0.3901525             -10.6166 (HOMO)
        70                         -0.3235794              -8.8050 (LUMO)
        71                         -0.3126633              -8.5080
        72                         -0.2724098              -7.4126
        73                         -0.2460882              -6.6964
        74                         -0.2448224              -6.6620
        75                         -0.2358565              -6.4180
        76                         -0.2244845              -6.1085
        77                         -0.2227193              -6.0605
        78                         -0.2085369              -5.6746
        79                         -0.2058888              -5.6025
        80                         -0.2057440              -5.5986
       ...                                ...                  ...
       133                          1.1530732              31.3767
      -------------------------------------------------------------
                  HL-Gap            0.0665732 Eh            1.8115 eV

     #   Z          covCN         q      C6AA      α(0)
     1   6 C        3.751    -0.107    22.613     6.781
     2   6 C        3.800    -0.056    21.574     6.613
     3   6 C        3.802    -0.063    21.707     6.633
     4   6 C        3.741    -0.013    20.882     6.520
     5   7 N        2.797    -0.002    21.305     6.855
     6   6 C        3.087     0.053    26.713     8.472
     7   6 C        2.907    -0.042    29.040     8.836
     8   6 C        2.924    -0.027    28.679     8.782
     9   6 C        2.968     0.010    27.800     8.648
    10   6 C        2.922     0.002    27.993     8.676
    11   6 C        2.944     0.005    27.904     8.664
    12   6 C        1.941     0.123    28.057     8.554
    13   7 N        0.911    -0.264    26.838     7.493
    14   6 C        1.928     0.130    27.909     8.532
    15   7 N        0.911    -0.270    26.996     7.515
    16   6 C        2.921    -0.024    28.611     8.772
    17   6 C        3.063    -0.010    28.210     8.710
    18   6 C        3.064    -0.009    28.184     8.706
    19   6 C        2.913    -0.025    28.617     8.772
    20   6 C        2.969     0.009    27.819     8.652
    21   6 C        2.921     0.001    28.001     8.678
    22   6 C        2.944     0.004    27.927     8.667
    23   6 C        1.940     0.123    28.062     8.555
    24   7 N        0.911    -0.265    26.864     7.496
    25   6 C        1.927     0.130    27.907     8.531
    26   7 N        0.911    -0.274    27.072     7.525
    27   6 C        2.932    -0.028    28.696     8.785
    28   6 C        2.906    -0.043    29.064     8.840
    29   6 C        3.087     0.053    26.708     8.472
    30   1 H        0.925     0.038     2.477     2.461
    31   1 H        0.925     0.037     2.485     2.465
    32   1 H        0.925     0.039     2.461     2.453
    33   1 H        0.924     0.038     2.475     2.460
    34   1 H        0.924     0.040     2.443     2.444
    35   1 H        0.924     0.048     2.349     2.397
    36   1 H        0.924     0.043     2.410     2.428
    37   1 H        0.924     0.071     2.078     2.254
    38   1 H        0.924     0.066     2.131     2.283
    39   1 H        0.926     0.058     2.221     2.331
    40   1 H        0.926     0.051     2.310     2.376
    41   1 H        0.925     0.064     2.154     2.295
    42   1 H        0.926     0.055     2.264     2.353
    43   1 H        0.926     0.050     2.323     2.384
    44   1 H        0.925     0.065     2.144     2.290
    45   1 H        0.926     0.056     2.246     2.344
    46   1 H        0.926     0.060     2.195     2.317

molecular dipole:
                 x           y           z       tot (Debye)
 q only:       -5.034      -1.858      -0.723
   full:       -5.574      -1.781      -0.807      15.015

 projected vibrational frequencies (cm⁻¹)
eigval :       -0.00    -0.00    -0.00     0.00     0.00     0.00
eigval :       -4.87    22.94    25.76    31.15    33.29    44.39
eigval :       46.28    70.28    84.50   100.91   104.93   121.93
eigval :      123.96   129.53   134.06   169.34   179.26   202.63
eigval :      210.72   222.63   244.05   267.26   268.25   276.77
eigval :      306.47   327.88   338.81   367.57   387.50   399.45
eigval :      407.63   415.07   431.79   432.93   450.07   473.22
eigval :      495.72   547.92   562.44   572.10   580.31   585.38
eigval :      600.48   605.19   605.83   616.06   626.89   690.34
eigval :      713.15   719.88   747.40   779.57   786.43   814.70
eigval :      815.42   817.75   819.46   853.85   855.39   857.24
eigval :      881.23   888.77   906.63   907.88   914.24   928.94
eigval :      971.98   979.43  1002.59  1025.96  1060.16  1115.63
eigval :     1123.74  1138.53  1153.81  1158.70  1164.62  1179.27
eigval :     1186.97  1196.14  1214.60  1234.63  1248.28  1251.17
eigval :     1266.55  1282.44  1294.74  1312.25  1335.72  1344.55
eigval :     1347.93  1350.64  1368.38  1373.87  1380.10  1412.97
eigval :     1429.63  1444.11  1459.04  1462.51  1480.91  1483.31
eigval :     1489.45  1498.79  1507.19  1527.96  1542.78  1551.74
eigval :     1563.17  1597.07  1616.66  2325.95  2326.49  2358.55
eigval :     2361.66  2969.13  2971.51  2978.53  2986.69  2989.16
eigval :     2998.21  3028.54  3034.13  3042.98  3046.91  3048.63
eigval :     3087.90  3088.31  3102.65  3106.00  3129.67  3130.97

   temp. (K)  partition function   enthalpy   heat capacity  entropy
                                   cal/mol     cal/K/mol   cal/K/mol   J/K/mol
 298.15  VIB  0.721E+13            15246.683     87.938     97.712
         ROT  0.278E+08              888.752      2.981     37.042
         INT  0.200E+21            16135.436     90.919    134.753
         TR   0.704E+28             1481.254      4.968     43.641
         TOT                       17616.6896    95.8870   178.3949   746.4043

       T/K    H(0)-H(T)+PV         H(T)/Eh          T*S/Eh         G(T)/Eh
   ------------------------------------------------------------------------
    298.15    0.280740E-01    0.370250E+00    0.847612E-01    0.285489E+00
   ------------------------------------------------------------------------

         :::::::::::::::::::::::::::::::::::::::::::::::::::::
         ::                  THERMODYNAMIC                  ::
         :::::::::::::::::::::::::::::::::::::::::::::::::::::
         :: total free energy         -74.290457978581 Eh   ::
         ::.................................................::
         :: total energy              -74.575946838118 Eh   ::
         :: zero point energy           0.342176059837 Eh   ::
         :: G(RRHO) w/o ZPVE           -0.056687200299 Eh   ::
         :: G(RRHO) contrib.            0.285488859537 Eh   ::
         :::::::::::::::::::::::::::::::::::::::::::::::::::::

           -------------------------------------------------
          | TOTAL ENERGY              -74.575946838118 Eh   |
          | TOTAL ENTHALPY            -74.205696796479 Eh   |
          | TOTAL FREE ENERGY         -74.290457978581 Eh   |
          | GRADIENT NORM               0.000078938518 Eh/α |
          | HOMO-LUMO GAP               1.811548789758 eV   |
           -------------------------------------------------

 * finished run on 2025/08/24 at 06:07:22.801
