   * xtb version 6.7.1 (edcfbbe) compiled by 'albert@albert-system' on 2024-07-22

   ID    Z sym.   atoms
    1    6 C      1-4, 6-12, 14, 16-23, 25, 27-29
    2    7 N      5, 13, 15, 24, 26
    3    1 H      30-46

          program call               : xtb data2507/toluene/CBM/CBM_toluene_S0_finalOpt.xtbopt.xyz --gfn 2 --uhf 2 --gbsa toluene --ohess vtight --parallel 40 --molden --ceasefiles --namespace data2507/toluene/CBM/CBM_toluene_T1_preOpt
      * Solvation model:               GBSA
        Solvent                        toluene
        Solvent mass                       9.2140E+01 g/mol
          :  Hamiltonian                  GFN2-xTB          :
 * total energy  :   -74.5034961 Eh     change       -0.3607852E-09 Eh
 * total energy  :   -74.5064491 Eh     change       -0.2953086E-02 Eh
 * total energy  :   -74.5071255 Eh     change       -0.6763468E-03 Eh
 * total energy  :   -74.5067381 Eh     change        0.3874229E-03 Eh
 * total energy  :   -74.5071977 Eh     change       -0.4596030E-03 Eh
 * total energy  :   -74.5071934 Eh     change        0.4291141E-05 Eh
 * total energy  :   -74.5072031 Eh     change       -0.9690349E-05 Eh
 * total energy  :   -74.5072094 Eh     change       -0.6286575E-05 Eh
 * total energy  :   -74.5072046 Eh     change        0.4727986E-05 Eh
 * total energy  :   -74.5072106 Eh     change       -0.5999246E-05 Eh
 * total energy  :   -74.5072160 Eh     change        0.5597205E-07 Eh
 * total energy  :   -74.5072165 Eh     change       -0.5055127E-06 Eh
 * total energy  :   -74.5072165 Eh     change        0.6925508E-07 Eh
 * total energy  :   -74.5072168 Eh     change       -0.3024747E-06 Eh
 * total energy  :   -74.5072170 Eh     change       -0.1987135E-06 Eh
 * total energy  :   -74.5072162 Eh     change        0.7448522E-06 Eh
 * total energy  :   -74.5072171 Eh     change       -0.8711874E-06 Eh
 * total energy  :   -74.5072171 Eh     change        0.2009496E-07 Eh
 * total energy  :   -74.5072172 Eh     change       -0.7097819E-07 Eh
   *** GEOMETRY OPTIMIZATION CONVERGED AFTER 31 ITERATIONS ***

 final structure:
================
46
 xtb: 6.7.1 (edcfbbe)
C           -0.36886929835181       -5.29541818645585       -2.48313895085565
C           -0.72548820496818       -4.52255905713839       -1.21778657574463
C            0.45607257387559       -4.47274812703823       -0.25216505823670
C            0.13816410089646       -3.70637142186337        1.04244798001469
N           -0.05475652708898       -2.30399805163227        0.79725655883252
C            0.95676709824213       -1.41205510839208        0.60370687000327
C            2.34459249092643       -1.59565072328010        0.65108533216253
C            3.15503245002449       -0.51511439271889        0.41657899577092
C            2.63613954918722        0.77635011134858        0.13122098009714
C            3.44011641856067        1.90699064315438       -0.11644797710440
C            4.83088584066584        2.00701767177158       -0.13261456673034
C            5.42412907615716        3.24861578411022       -0.40829701412904
N            5.91206437034586        4.26741583340194       -0.63358637140438
C            5.77346299335210        1.00023822184597        0.09782361822161
N            6.61287885826786        0.22850849305469        0.27486539394332
C            1.21997174963537        0.94864728541182        0.09355709162237
C            0.40846506509379       -0.12432823072732        0.32692563749841
C           -1.03311414098399       -0.29455389284300        0.36547576789986
C           -2.07570726254788        0.56913257017102        0.18354724228788
C           -3.41016980967759        0.07976950914004        0.29154488120204
C           -4.54777479623764        0.89165365180042        0.13226031645106
C           -4.61166444940273        2.26303470988545       -0.13346874691996
C           -5.86719633840668        2.87566928992297       -0.25260401625401
N           -6.90136922357708        3.37457749876820       -0.35018373392418
C           -3.55376390486483        3.15975488184304       -0.30094330588606
N           -2.73477454634553        3.95974293135751       -0.45022448903345
C           -3.60236578704185       -1.30162108895643        0.58069657248972
C           -2.56119376183691       -2.17053094336935        0.76575943143977
C           -1.25362824042663       -1.67379245311204        0.65889771977498
H            0.46100176640131       -4.82072446669814       -3.00256134076381
H           -0.08258504164886       -6.31689462563890       -2.24183699828787
H           -1.21973988932841       -5.32928030471867       -3.15953731637213
H           -1.57475248782076       -5.00735596179253       -0.73184409249347
H           -1.02689288435096       -3.50928643782202       -1.49292500704409
H            0.74059261055407       -5.48929980912363        0.02318536708596
H            1.30973522517053       -4.00594875842035       -0.74680667479491
H            0.96810259844196       -3.82335122375143        1.74425262944756
H           -0.76589925748322       -4.11163509679078        1.49937898356961
H            2.77862826215078       -2.55887893286265        0.86673857286090
H            4.22374559953491       -0.64653570373212        0.45022489961650
H            2.91742974458525        2.83298811043724       -0.32314929435681
H            0.80728832300457        1.92309751898477       -0.11850412493240
H           -1.89659615967096        1.60693782620665       -0.03971889623098
H           -5.51054907045948        0.40539379130127        0.22878933072317
H           -4.61560279215038       -1.66527379062896        0.65849840939237
H           -2.75298241152373       -3.20844382710607        0.98491441606076

          :  Hamiltonian                  GFN2-xTB          :
         :: gradient norm              0.000065845007 Eh/a0 ::
         :: HOMO-LUMO gap              0.340809334454 eV    ::
         :: SCC energy               -75.936510212752 Eh    ::
         :: -> dispersion             -0.054289365670 Eh    ::
         :: -> Gsolv                  -0.056229314517 Eh    ::
         :: repulsion energy           1.429293055503 Eh    ::

    * Orbital Energies and Occupations

         #    Occupation            Energy/Eh            Energy/eV
      -------------------------------------------------------------
         1        2.0000           -0.7189289             -19.5631
       ...           ...                  ...                  ...
        58        2.0000           -0.4516984             -12.2913
        59        2.0000           -0.4472320             -12.1698
        60        2.0000           -0.4471531             -12.1677
        61        2.0000           -0.4405322             -11.9875
        62        2.0000           -0.4397160             -11.9653
        63        2.0000           -0.4376278             -11.9085
        64        2.0000           -0.4359587             -11.8630
        65        2.0000           -0.4308747             -11.7247
        66        2.0000           -0.4305805             -11.7167
        67        2.0000           -0.4245232             -11.5519
        68        1.9995           -0.4080318             -11.1031
        69        1.0005           -0.3936651             -10.7122
        70        0.9986           -0.3243740              -8.8267 (HOMO)
        71        0.0014           -0.3118494              -8.4859 (LUMO)
        72                         -0.2755157              -7.4972
        73                         -0.2408031              -6.5526
        74                         -0.2403177              -6.5394
        75                         -0.2400054              -6.5309
        76                         -0.2183591              -5.9419
        77                         -0.2176768              -5.9233
        78                         -0.2133435              -5.8054
        79                         -0.2087434              -5.6802
        80                         -0.1990321              -5.4159
        81                         -0.1981885              -5.3930
       ...                                ...                  ...
       133                          1.1529371              31.3730
      -------------------------------------------------------------
                  HL-Gap            0.0125245 Eh            0.3408 eV

     #   Z          covCN         q      C6AA      α(0)
     1   6 C        3.752    -0.106    22.587     6.777
     2   6 C        3.800    -0.055    21.567     6.612
     3   6 C        3.803    -0.065    21.747     6.639
     4   6 C        3.742    -0.020    21.007     6.539
     5   7 N        2.798     0.054    20.295     6.691
     6   6 C        3.078     0.039    27.039     8.525
     7   6 C        2.904    -0.029    28.728     8.789
     8   6 C        2.920    -0.033    28.812     8.802
     9   6 C        2.965     0.027    27.397     8.586
    10   6 C        2.918    -0.023    28.589     8.768
    11   6 C        2.944     0.005    27.920     8.666
    12   6 C        1.943     0.120    28.131     8.565
    13   7 N        0.911    -0.280    27.234     7.548
    14   6 C        1.933     0.124    28.036     8.551
    15   7 N        0.911    -0.288    27.424     7.574
    16   6 C        2.918    -0.025    28.621     8.773
    17   6 C        3.052    -0.001    27.996     8.678
    18   6 C        3.054     0.000    27.973     8.674
    19   6 C        2.910    -0.027    28.687     8.783
    20   6 C        2.965     0.027    27.397     8.586
    21   6 C        2.918    -0.027    28.671     8.781
    22   6 C        2.944     0.003    27.958     8.672
    23   6 C        1.943     0.119    28.147     8.568
    24   7 N        0.911    -0.284    27.326     7.560
    25   6 C        1.933     0.124    28.049     8.553
    26   7 N        0.911    -0.296    27.612     7.600
    27   6 C        2.927    -0.033    28.817     8.803
    28   6 C        2.904    -0.029    28.730     8.789
    29   6 C        3.075     0.039    27.039     8.526
    30   1 H        0.925     0.037     2.489     2.467
    31   1 H        0.925     0.040     2.446     2.446
    32   1 H        0.925     0.039     2.466     2.456
    33   1 H        0.924     0.042     2.422     2.434
    34   1 H        0.924     0.034     2.524     2.484
    35   1 H        0.924     0.065     2.146     2.291
    36   1 H        0.924     0.055     2.260     2.351
    37   1 H        0.924     0.080     1.978     2.200
    38   1 H        0.924     0.081     1.969     2.194
    39   1 H        0.926     0.068     2.111     2.272
    40   1 H        0.926     0.055     2.263     2.352
    41   1 H        0.925     0.053     2.287     2.365
    42   1 H        0.926     0.058     2.222     2.331
    43   1 H        0.926     0.053     2.280     2.361
    44   1 H        0.925     0.052     2.293     2.368
    45   1 H        0.926     0.059     2.206     2.323
    46   1 H        0.926     0.068     2.103     2.268

molecular dipole:
                 x           y           z       tot (Debye)
 q only:       -1.296      -6.524       1.068
   full:       -1.672      -6.872       1.172      18.221

 projected vibrational frequencies (cm⁻¹)
eigval :       -0.00     0.00     0.00     0.00     0.00     0.00
eigval :       20.02    21.49    24.76    29.18    43.85    45.06
eigval :       57.00    65.77    82.26   101.74   112.59   119.97
eigval :      121.08   127.20   137.46   161.10   184.45   194.88
eigval :      200.54   220.85   230.02   252.42   264.58   285.45
eigval :      299.92   310.94   318.44   371.05   380.59   389.44
eigval :      392.81   410.17   416.63   420.81   431.94   491.42
eigval :      496.52   538.24   556.06   563.67   567.47   569.86
eigval :      580.85   586.55   591.13   607.53   613.35   683.50
eigval :      697.80   699.86   730.15   772.06   785.21   793.76
eigval :      810.05   816.58   819.17   826.28   830.15   840.08
eigval :      859.70   873.13   890.10   899.53   901.18   903.33
eigval :      960.86   966.35  1006.41  1013.44  1062.74  1089.48
eigval :     1093.41  1121.49  1133.48  1159.34  1161.40  1178.10
eigval :     1182.48  1199.94  1202.46  1221.07  1229.69  1238.42
eigval :     1251.46  1277.75  1282.40  1298.75  1302.84  1305.84
eigval :     1335.73  1339.02  1351.98  1358.18  1365.49  1378.37
eigval :     1398.75  1409.86  1415.98  1446.84  1457.14  1468.50
eigval :     1481.16  1489.34  1491.32  1498.04  1500.67  1504.44
eigval :     1521.41  1579.01  1598.26  2258.05  2265.18  2290.76
eigval :     2326.41  2968.63  2971.79  2981.86  2989.76  2999.41
eigval :     3004.33  3029.10  3031.97  3039.37  3058.49  3061.11
eigval :     3092.72  3095.23  3104.25  3107.42  3136.67  3141.63

   temp. (K)  partition function   enthalpy   heat capacity  entropy
                                   cal/mol     cal/K/mol   cal/K/mol   J/K/mol
 298.15  VIB  0.192E+13            15431.201     89.617     97.758
         ROT  0.257E+08              888.752      2.981     36.888
         INT  0.494E+20            16319.954     92.597    134.646
         TR   0.704E+28             1481.254      4.968     43.641
         TOT                       17801.2076    97.5656   178.2871   745.9534

       T/K    H(0)-H(T)+PV         H(T)/Eh          T*S/Eh         G(T)/Eh
   ------------------------------------------------------------------------
    298.15    0.283680E-01    0.367186E+00    0.847100E-01    0.282476E+00
   ------------------------------------------------------------------------

         :::::::::::::::::::::::::::::::::::::::::::::::::::::
         ::                  THERMODYNAMIC                  ::
         :::::::::::::::::::::::::::::::::::::::::::::::::::::
         :: total free energy         -74.224740950039 Eh   ::
         ::.................................................::
         :: total energy              -74.507217158733 Eh   ::
         :: zero point energy           0.338818154546 Eh   ::
         :: G(RRHO) w/o ZPVE           -0.056341945852 Eh   ::
         :: G(RRHO) contrib.            0.282476208694 Eh   ::
         :::::::::::::::::::::::::::::::::::::::::::::::::::::

           -------------------------------------------------
          | TOTAL ENERGY              -74.507217158733 Eh   |
          | TOTAL ENTHALPY            -74.140030974187 Eh   |
          | TOTAL FREE ENERGY         -74.224740950039 Eh   |
          | GRADIENT NORM               0.000066109855 Eh/α |
          | HOMO-LUMO GAP               0.340810192544 eV   |
           -------------------------------------------------

 * finished run on 2025/08/24 at 06:10:40.280
