   * xtb version 6.7.1 (edcfbbe) compiled by 'albert@albert-system' on 2024-07-22

   ID    Z sym.   atoms
    1    6 C      1-32, 34-40
    2    7 N      33, 41, 42
    3    1 H      43-71

          program call               : xtb data2507/toluene/teracridan/teracridan_toluene_S0_crest.xyz --gfn 2 --gbsa toluene --ohess vtight --parallel 40 --molden --ceasefiles --namespace data2507/toluene/teracridan/teracridan_toluene_S0_finalOpt
      * Solvation model:               GBSA
        Solvent                        toluene
        Solvent mass                       9.2140E+01 g/mol
          :  Hamiltonian                  GFN2-xTB          :
 * total energy  :  -107.1978783 Eh     change       -0.4581807E-08 Eh
 * total energy  :  -107.1979284 Eh     change       -0.5007631E-04 Eh
 * total energy  :  -107.1980079 Eh     change       -0.7953189E-04 Eh
 * total energy  :  -107.1980439 Eh     change       -0.3598608E-04 Eh
 * total energy  :  -107.1981295 Eh     change       -0.8566733E-04 Eh
 * total energy  :  -107.1981620 Eh     change       -0.3243272E-04 Eh
 * total energy  :  -107.1982065 Eh     change       -0.4455034E-04 Eh
 * total energy  :  -107.1982703 Eh     change       -0.6379929E-04 Eh
 * total energy  :  -107.1983189 Eh     change       -0.4853715E-04 Eh
 * total energy  :  -107.1983462 Eh     change       -0.2733313E-04 Eh
 * total energy  :  -107.1989042 Eh     change       -0.6644149E-06 Eh
 * total energy  :  -107.1989049 Eh     change       -0.7228544E-06 Eh
 * total energy  :  -107.1989058 Eh     change       -0.8927572E-06 Eh
 * total energy  :  -107.1989069 Eh     change       -0.1090221E-05 Eh
 * total energy  :  -107.1989080 Eh     change       -0.1143364E-05 Eh
 * total energy  :  -107.1989088 Eh     change       -0.8121123E-06 Eh
 * total energy  :  -107.1989092 Eh     change       -0.3301835E-06 Eh
 * total energy  :  -107.1989093 Eh     change       -0.1283644E-06 Eh
 * total energy  :  -107.1989094 Eh     change       -0.9859079E-07 Eh
   *** GEOMETRY OPTIMIZATION CONVERGED AFTER 172 ITERATIONS ***

 final structure:
================
71
 xtb: 6.7.1 (edcfbbe)
C            2.69614857472958        5.52668149587178       -0.55927307591752
C            4.05332173579599        5.25838963779875       -0.60930484471394
C            4.56047041532487        4.12648914507453        0.00221387522595
C            3.71095700713420        3.26170610175957        0.68594294872644
C            2.34367129809354        3.54516933811384        0.76662874837673
C            1.85089255946712        4.66848725384156        0.12735921139682
C            1.46773669679440        2.64207007639003        1.58810262147384
C            1.98712102946776        1.23005118908935        1.59494594712887
C            3.36756164149376        1.02723212864758        1.50988535914026
C            3.89676479645308       -0.25446909084281        1.62483689852333
C            3.05386083578479       -1.33116457581819        1.82481967282425
C            1.68503674717760       -1.14268761610333        1.86387093880958
C            1.14486457401731        0.13300802771953        1.73158587249597
C           -0.32754246260475        0.30831439409079        1.69116083279554
C           -1.07922452145434        0.49001664513608        2.84154256620423
C           -2.45188523258131        0.63572690543250        2.76551303240375
C           -3.08999268532248        0.62076434729329        1.52888655537537
C           -2.34254633340388        0.46018022296148        0.35722669954192
C           -0.96886611650074        0.28781308758726        0.44597514051369
C           -0.12609080813592        0.08900569434421       -0.75971758132424
C            0.40456534462493        1.18982551075525       -1.42486200837178
C            1.26328155806354        1.01399305599073       -2.49376876898460
C            1.62577154320879       -0.25922936426615       -2.89035674683116
C            1.09033438808440       -1.36644919236537       -2.23961598771926
C            0.18252646641246       -1.19595523246117       -1.19042563823161
C           -0.46805777033997       -2.41675147859159       -0.59883297559184
C            0.45090305283044       -3.60433985144698       -0.65181996100532
C            0.38658046286299       -4.62846141093165        0.27569371542539
C            1.19796488545073       -5.74668119041221        0.16002226244461
C            2.08698354244395       -5.84317819824216       -0.89674623019431
C            2.18286399724963       -4.81781107926764       -1.81956306515040
C            1.37170781827377       -3.69330799517440       -1.70073755830096
N            1.46170941606656       -2.65041202908284       -2.60808961775040
C           -3.03648755866772        0.51746007083781       -0.97672363223741
C           -4.48941207177186        0.14187467684130       -0.87709854590794
C           -5.19079893736505       -0.33181351785326       -1.97209107277891
C           -6.54829197815914       -0.60039340484317       -1.89021596835502
C           -7.21706916826759       -0.39549180947784       -0.69542696845116
C           -6.52842220089143        0.05251705447390        0.41636787143948
C           -5.16414482691047        0.31894584570523        0.33530404842168
N           -4.46476153400759        0.75605339081049        1.44566275198817
N            4.19802772848079        2.11587304079273        1.29192989069293
H            2.29701429855796        6.40438605719388       -1.04558163342215
H            4.72028244117197        5.92706004339459       -1.13395632629495
H            5.61800233844265        3.90571280658463       -0.04710523929778
H            0.79248318874678        4.88314450734490        0.17922074318934
H            1.46321250966798        3.01102786627297        2.62430647802026
H            0.43558902630646        2.67320761984804        1.23611729503276
H            4.96643280933121       -0.39877326595762        1.56033438843446
H            3.46435682994857       -2.32511143608260        1.92922047810764
H            1.02896255265940       -1.98856235922121        1.99916064351223
H           -0.58551035789650        0.50841842522064        3.80227644099744
H           -3.03677130562038        0.76213098020007        3.66575815081281
H            0.14254669820386        2.18563799953026       -1.10324404749391
H            1.66932548355400        1.87407126049169       -3.00605611833782
H            2.32359767840575       -0.40346477398802       -3.70351148889700
H           -1.36934011671058       -2.64816322769644       -1.18572576441821
H           -0.79666804832687       -2.22360090396117        0.42349289972941
H           -0.31807307530199       -4.55674425328407        1.09264793944006
H            1.12928884605633       -6.54213892117809        0.88710905824568
H            2.71637024607905       -6.71533082817886       -0.99891505777916
H            2.88731180506985       -4.88261549977551       -2.63750695531600
H            2.18761020258363       -2.72339296276569       -3.30725206081193
H           -2.96710561810275        1.54423122555309       -1.36350748744741
H           -2.52297100535916       -0.12261424535520       -1.69789262023009
H           -4.66790057574655       -0.48053835298507       -2.90655532536386
H           -7.08149368244117       -0.96073799356046       -2.75724269019418
H           -8.27669986638648       -0.59349899882049       -0.62463278548325
H           -7.04351602975944        0.19953760888644        1.35571726421634
H           -4.97215877630177        0.79880700055722        2.31791291497655
H            5.17744013653993        1.91186236108654        1.15048215055774

          :  Hamiltonian                  GFN2-xTB          :
         :: gradient norm              0.000029255031 Eh/a0 ::
         :: HOMO-LUMO gap              3.374376488871 eV    ::
         :: SCC energy              -109.174809912296 Eh    ::
         :: -> dispersion             -0.103568938052 Eh    ::
         :: -> Gsolv                  -0.040257236993 Eh    ::
         :: repulsion energy           1.975900520189 Eh    ::

    * Orbital Energies and Occupations

         #    Occupation            Energy/Eh            Energy/eV
      -------------------------------------------------------------
         1        2.0000           -0.6632067             -18.0468
       ...           ...                  ...                  ...
        88        2.0000           -0.4083189             -11.1109
        89        2.0000           -0.3992255             -10.8635
        90        2.0000           -0.3984268             -10.8417
        91        2.0000           -0.3975458             -10.8178
        92        2.0000           -0.3960922             -10.7782
        93        2.0000           -0.3946480             -10.7389
        94        2.0000           -0.3936187             -10.7109
        95        2.0000           -0.3878881             -10.5550
        96        2.0000           -0.3868756             -10.5274
        97        2.0000           -0.3844851             -10.4624
        98        2.0000           -0.3490366              -9.4978
        99        2.0000           -0.3473624              -9.4522
       100        2.0000           -0.3466528              -9.4329 (HOMO)
       101                         -0.2226468              -6.0585 (LUMO)
       102                         -0.2214829              -6.0269
       103                         -0.2208967              -6.0109
       104                         -0.2179783              -5.9315
       105                         -0.2169388              -5.9032
       106                         -0.2168733              -5.9014
       107                         -0.2161902              -5.8828
       108                         -0.2155874              -5.8664
       109                         -0.2138674              -5.8196
       110                         -0.1925162              -5.2386
       111                         -0.1916575              -5.2153
       ...                                ...                  ...
       197                          0.6963510              18.9487
      -------------------------------------------------------------
                  HL-Gap            0.1240061 Eh            3.3744 eV

     #   Z          covCN         q      C6AA      α(0)
     1   6 C        2.918    -0.046    29.139     8.852
     2   6 C        2.919    -0.036    28.892     8.814
     3   6 C        2.921    -0.063    29.555     8.915
     4   6 C        2.922     0.064    26.564     8.452
     5   6 C        2.976    -0.006    28.158     8.704
     6   6 C        2.923    -0.041    29.024     8.835
     7   6 C        3.814    -0.058    21.600     6.615
     8   6 C        2.981    -0.012    28.300     8.726
     9   6 C        2.921     0.062    26.604     8.458
    10   6 C        2.922    -0.066    29.641     8.928
    11   6 C        2.918    -0.037    28.912     8.817
    12   6 C        2.924    -0.049    29.208     8.863
    13   6 C        2.980     0.002    27.985     8.678
    14   6 C        2.982    -0.007    28.177     8.707
    15   6 C        2.920    -0.040    28.988     8.829
    16   6 C        2.921    -0.066    29.648     8.929
    17   6 C        2.919     0.061    26.638     8.464
    18   6 C        2.976    -0.012    28.312     8.728
    19   6 C        2.986    -0.004    28.105     8.696
    20   6 C        2.981     0.003    27.954     8.673
    21   6 C        2.924    -0.048    29.192     8.860
    22   6 C        2.918    -0.036    28.901     8.816
    23   6 C        2.922    -0.066    29.634     8.927
    24   6 C        2.922     0.062    26.603     8.458
    25   6 C        2.981    -0.012    28.302     8.727
    26   6 C        3.814    -0.056    21.576     6.611
    27   6 C        2.977    -0.006    28.159     8.704
    28   6 C        2.923    -0.041    29.018     8.834
    29   6 C        2.918    -0.046    29.134     8.851
    30   6 C        2.919    -0.036    28.889     8.814
    31   6 C        2.921    -0.062    29.550     8.914
    32   6 C        2.922     0.064    26.564     8.452
    33   7 N        2.701    -0.158    24.417     7.339
    34   6 C        3.813    -0.058    21.612     6.617
    35   6 C        2.975    -0.007    28.191     8.709
    36   6 C        2.924    -0.042    29.049     8.839
    37   6 C        2.918    -0.046    29.136     8.851
    38   6 C        2.919    -0.035    28.883     8.813
    39   6 C        2.922    -0.063    29.564     8.916
    40   6 C        2.920     0.064    26.570     8.453
    41   7 N        2.701    -0.153    24.301     7.321
    42   7 N        2.701    -0.158    24.412     7.338
    43   1 H        0.926     0.027     2.634     2.538
    44   1 H        0.926     0.028     2.613     2.528
    45   1 H        0.925     0.024     2.679     2.560
    46   1 H        0.926     0.028     2.608     2.525
    47   1 H        0.923     0.047     2.353     2.399
    48   1 H        0.924     0.045     2.379     2.412
    49   1 H        0.925     0.023     2.693     2.566
    50   1 H        0.926     0.027     2.636     2.539
    51   1 H        0.926     0.027     2.630     2.536
    52   1 H        0.926     0.030     2.587     2.515
    53   1 H        0.926     0.026     2.637     2.540
    54   1 H        0.926     0.028     2.611     2.527
    55   1 H        0.926     0.028     2.618     2.530
    56   1 H        0.926     0.023     2.685     2.562
    57   1 H        0.923     0.047     2.361     2.403
    58   1 H        0.924     0.045     2.388     2.417
    59   1 H        0.925     0.028     2.615     2.529
    60   1 H        0.926     0.027     2.635     2.538
    61   1 H        0.926     0.028     2.610     2.527
    62   1 H        0.925     0.024     2.674     2.557
    63   1 H        0.860     0.158     1.350     1.820
    64   1 H        0.923     0.049     2.336     2.390
    65   1 H        0.924     0.046     2.372     2.409
    66   1 H        0.926     0.029     2.598     2.521
    67   1 H        0.926     0.026     2.640     2.541
    68   1 H        0.926     0.028     2.613     2.528
    69   1 H        0.925     0.025     2.665     2.553
    70   1 H        0.860     0.159     1.344     1.816
    71   1 H        0.860     0.158     1.351     1.821

molecular dipole:
                 x           y           z       tot (Debye)
 q only:        0.006       0.115       0.081
   full:        0.281       0.011       0.055       0.730

 projected vibrational frequencies (cm⁻¹)
eigval :       -0.00    -0.00    -0.00    -0.00     0.00     0.00
eigval :        9.75    15.16    20.99    30.06    37.76    42.56
eigval :       48.38    54.51    82.75    88.79    96.46   100.66
eigval :      117.09   161.61   173.21   180.20   181.46   218.61
eigval :      224.09   243.06   249.79   257.15   263.98   265.81
eigval :      277.99   285.82   301.27   317.73   346.13   358.65
eigval :      373.02   377.13   386.19   410.64   417.80   421.01
eigval :      424.47   432.97   440.20   480.31   486.81   502.50
eigval :      503.35   505.42   509.86   510.98   521.24   534.35
eigval :      540.43   548.66   556.80   577.39   581.05   583.26
eigval :      584.11   587.03   598.79   609.68   632.94   642.18
eigval :      645.39   659.18   668.27   673.99   675.68   680.89
eigval :      688.27   700.84   717.62   767.32   772.33   772.88
eigval :      781.61   789.23   795.29   800.45   801.18   820.98
eigval :      837.07   838.47   854.29   858.58   861.89   864.44
eigval :      866.90   868.49   872.01   874.27   877.13   881.89
eigval :      901.14   903.65   905.29   909.37   915.83   916.89
eigval :      917.90   920.27   923.39   935.31   938.52   942.18
eigval :      990.19  1046.36  1094.26  1094.36  1094.82  1115.18
eigval :     1116.19  1126.15  1128.79  1133.58  1145.04  1148.92
eigval :     1160.16  1160.94  1166.81  1179.47  1180.59  1180.89
eigval :     1190.05  1193.77  1194.04  1199.09  1200.92  1206.30
eigval :     1209.79  1217.11  1219.97  1220.51  1221.70  1244.79
eigval :     1252.72  1254.63  1257.17  1258.58  1264.62  1282.41
eigval :     1303.09  1304.59  1306.29  1306.93  1316.62  1328.98
eigval :     1329.95  1334.96  1337.18  1340.85  1381.30  1386.00
eigval :     1397.52  1434.43  1448.03  1453.29  1456.41  1458.71
eigval :     1459.18  1462.31  1467.06  1467.95  1470.31  1485.60
eigval :     1490.04  1492.85  1496.64  1500.20  1568.15  1578.94
eigval :     1579.26  1583.79  1586.25  1586.41  1591.76  1594.61
eigval :     1594.68  1600.67  1601.26  1601.72  2865.28  2868.90
eigval :     2873.72  2972.70  2988.81  2990.67  3060.31  3061.19
eigval :     3061.26  3062.30  3063.18  3065.38  3066.14  3066.72
eigval :     3067.66  3074.82  3074.94  3075.46  3076.82  3078.30
eigval :     3081.36  3088.66  3089.24  3089.57  3095.93  3098.10
eigval :     3419.24  3419.53  3424.80

   temp. (K)  partition function   enthalpy   heat capacity  entropy
                                   cal/mol     cal/K/mol   cal/K/mol   J/K/mol
 298.15  VIB  0.666E+14            18690.772    123.643    113.435
         ROT  0.435E+08              888.752      2.981     37.931
         INT  0.289E+22            19579.524    126.624    151.366
         TR   0.121E+29             1481.254      4.968     44.723
         TOT                       21060.7780   131.5920   196.0891   820.4367

       T/K    H(0)-H(T)+PV         H(T)/Eh          T*S/Eh         G(T)/Eh
   ------------------------------------------------------------------------
    298.15    0.335625E-01    0.591908E+00    0.931682E-01    0.498740E+00
   ------------------------------------------------------------------------

         :::::::::::::::::::::::::::::::::::::::::::::::::::::
         ::                  THERMODYNAMIC                  ::
         :::::::::::::::::::::::::::::::::::::::::::::::::::::
         :: total free energy        -106.700169875313 Eh   ::
         ::.................................................::
         :: total energy             -107.198909387207 Eh   ::
         :: zero point energy           0.558345271692 Eh   ::
         :: G(RRHO) w/o ZPVE           -0.059605759798 Eh   ::
         :: G(RRHO) contrib.            0.498739511894 Eh   ::
         :::::::::::::::::::::::::::::::::::::::::::::::::::::

           -------------------------------------------------
          | TOTAL ENERGY             -107.198909387207 Eh   |
          | TOTAL ENTHALPY           -106.607001629445 Eh   |
          | TOTAL FREE ENERGY        -106.700169875313 Eh   |
          | GRADIENT NORM               0.000029267868 Eh/α |
          | HOMO-LUMO GAP               3.374376933175 eV   |
           -------------------------------------------------

 * finished run on 2025/09/02 at 20:20:14.326
