   * xtb version 6.7.1 (edcfbbe) compiled by 'albert@albert-system' on 2024-07-22

   ID    Z sym.   atoms
    1    6 C      1-32, 34-40
    2    7 N      33, 41, 42
    3    1 H      43-71

          program call               : xtb data2507/toluene/teracridan/teracridan_toluene_T1_crest.xyz --gfn 2 --uhf 2 --gbsa toluene --ohess vtight --parallel 40 --molden --ceasefiles --namespace data2507/toluene/teracridan/teracridan_toluene_T1_finalOpt
      * Solvation model:               GBSA
        Solvent                        toluene
        Solvent mass                       9.2140E+01 g/mol
          :  Hamiltonian                  GFN2-xTB          :
 * total energy  :  -107.0908695 Eh     change       -0.2950941E-08 Eh
 * total energy  :  -107.0909130 Eh     change       -0.4354077E-04 Eh
 * total energy  :  -107.0909501 Eh     change       -0.3706276E-04 Eh
 * total energy  :  -107.0909645 Eh     change       -0.1434360E-04 Eh
 * total energy  :  -107.0909931 Eh     change       -0.2862619E-04 Eh
 * total energy  :  -107.0910082 Eh     change       -0.1512844E-04 Eh
 * total energy  :  -107.0910277 Eh     change       -0.1954299E-04 Eh
 * total energy  :  -107.0910487 Eh     change       -0.2090393E-04 Eh
 * total energy  :  -107.0910615 Eh     change       -0.1280407E-04 Eh
 * total energy  :  -107.0910671 Eh     change       -0.5655813E-05 Eh
 * total energy  :  -107.0912916 Eh     change       -0.1984587E-05 Eh
 * total energy  :  -107.0912936 Eh     change       -0.1949123E-05 Eh
 * total energy  :  -107.0912950 Eh     change       -0.1447136E-05 Eh
 * total energy  :  -107.0912967 Eh     change       -0.1649885E-05 Eh
 * total energy  :  -107.0912984 Eh     change       -0.1678451E-05 Eh
 * total energy  :  -107.0912995 Eh     change       -0.1164353E-05 Eh
 * total energy  :  -107.0913003 Eh     change       -0.7925805E-06 Eh
 * total energy  :  -107.0913009 Eh     change       -0.5812433E-06 Eh
 * total energy  :  -107.0913009 Eh     change       -0.1360193E-07 Eh
   *** GEOMETRY OPTIMIZATION CONVERGED AFTER 44 ITERATIONS ***

 final structure:
================
71
 xtb: 6.7.1 (edcfbbe)
C            2.22416098661503        4.49095242957565        1.35201577412205
C            3.54798701848097        4.24324897698579        1.02743875668960
C            4.03559058266795        2.95109703746311        1.04652143370359
C            3.19824093377993        1.89203161165350        1.39720913999571
C            1.85720299705690        2.13625584095590        1.71925453845271
C            1.38960460104054        3.43756466253910        1.69298725797310
C            0.98720518531947        0.98741075485977        2.13851032019833
C            1.47886869487743       -0.33200901355194        1.61525678318709
C            2.85681876385789       -0.50657001415956        1.49461306398971
C            3.42643348752120       -1.77725029008540        1.44128725732458
C            2.59398880349675       -2.88896696127760        1.58284134062870
C            1.23351937697897       -2.74422125512306        1.63824148561928
C            0.61265733757687       -1.46884955395851        1.54195042543285
C           -0.79485214758901       -1.39745506959035        1.30791390955821
C           -1.65401919431423       -2.34336475760887        1.94755858356177
C           -2.99937666577016       -2.32283736899782        1.78236139524285
C           -3.58860055429810       -1.39338790907501        0.88322944785412
C           -2.76516785942361       -0.51708778304998        0.13792554035066
C           -1.40311407973588       -0.48329728915797        0.35536864015613
C           -0.55146344370180        0.43795303999348       -0.41681275739345
C           -0.81068811758994        1.81322086799182       -0.34817957591532
C           -0.00007604435237        2.72909432081620       -0.98619276957642
C            1.13107462426685        2.30230835227283       -1.65999191224876
C            1.40180377438009        0.94069794231919       -1.74524841091161
C            0.53628959472598       -0.00340411939685       -1.17629845319050
C            0.72349929660449       -1.44563764408094       -1.56044724075556
C            2.16458962981118       -1.78190190502212       -1.81102182695292
C            2.65631808689413       -3.06580532431612       -1.66364940030004
C            3.97556224579217       -3.36346281982078       -1.96768611496198
C            4.81961612331009       -2.36469994137040       -2.42415584830434
C            4.35100301653048       -1.07226391795444       -2.56504097039351
C            3.02499740987759       -0.77402689201499       -2.25964089097472
N            2.53750286987332        0.50811655670082       -2.40395009107761
C           -3.41937107035163        0.21370710996496       -1.00833692651994
C           -4.88598243932419        0.45543647843112       -0.81285537122905
C           -5.55824148215694        1.45631230647945       -1.48554119008202
C           -6.93427267152611        1.60502108787311       -1.36304287640323
C           -7.65725987665470        0.72844028398207       -0.55693611720575
C           -7.01071745900203       -0.26915142723850        0.13548106015159
C           -5.61926391511230       -0.40867025909410        0.02764602562568
N           -4.94949248712381       -1.36541202714386        0.73562382228445
N            3.67900895164908        0.60721259366705        1.46118008385334
H            1.84322926589021        5.50129601794687        1.34221279306927
H            4.20382229768482        5.05942229148824        0.76076951945276
H            5.06912687437076        2.75043207780640        0.79901823362478
H            0.35940302860004        3.63021587208379        1.95431454303275
H            1.00764890230362        0.92743820305423        3.24017192797431
H           -0.05147485248139        1.16789734510327        1.86632164896758
H            4.49454085124250       -1.89309836133715        1.33728680566956
H            3.03308406103849       -3.87616253418684        1.61022068157274
H            0.61205797515361       -3.62706343997342        1.66652023988805
H           -1.21530066299829       -3.04310468767867        2.64281435039500
H           -3.63985556495915       -3.00437974945563        2.32442477672291
H           -1.64537432358720        2.16295364238429        0.24375362340349
H           -0.22474279806093        3.78382053135494       -0.93115797886253
H            1.80315162473283        3.01455974354742       -2.11618353159742
H            0.16296026540701       -1.61573381536905       -2.49285465852720
H            0.30015273927130       -2.11543156287518       -0.81308079427897
H            1.99464868029806       -3.84454887838198       -1.31371800554210
H            4.34205939126485       -4.37266344169040       -1.85269339396552
H            5.84780117451724       -2.59104198965877       -2.66708517981671
H            5.00672735588552       -0.28619778402807       -2.91415268677574
H            3.18356140711780        1.22019599543376       -2.71358127937826
H           -2.91069025444984        1.14956661696282       -1.23508765654000
H           -3.29810043148222       -0.42010088347114       -1.90075445089192
H           -5.00185168410153        2.12689640245148       -2.12545779302830
H           -7.44264494863496        2.39327985545638       -1.89694565609542
H           -8.72865117859932        0.83563245241789       -0.47088974519226
H           -7.56213987448488       -0.94684117621351        0.77224168360753
H           -5.49164365170614       -2.00024373388478        1.30711993476451
H            4.65686788300112        0.45280465558828        1.26475508330089

          :  Hamiltonian                  GFN2-xTB          :
         :: gradient norm              0.000082655100 Eh/a0 ::
         :: HOMO-LUMO gap              0.509821607668 eV    ::
         :: SCC energy              -109.044096620701 Eh    ::
         :: -> dispersion             -0.113801192161 Eh    ::
         :: -> Gsolv                  -0.036578109903 Eh    ::
         :: repulsion energy           1.952795710900 Eh    ::

    * Orbital Energies and Occupations

         #    Occupation            Energy/Eh            Energy/eV
      -------------------------------------------------------------
         1        2.0000           -0.6679804             -18.1767
       ...           ...                  ...                  ...
        89        2.0000           -0.4014914             -10.9251
        90        2.0000           -0.4010113             -10.9121
        91        2.0000           -0.3971439             -10.8068
        92        2.0000           -0.3955442             -10.7633
        93        2.0000           -0.3935515             -10.7091
        94        2.0000           -0.3917879             -10.6611
        95        2.0000           -0.3887123             -10.5774
        96        2.0000           -0.3754271             -10.2159
        97        2.0000           -0.3639371              -9.9032
        98        2.0000           -0.3484688              -9.4823
        99        1.8588           -0.3406638              -9.2699
       100        1.1412           -0.3372333              -9.1766
       101        0.9999           -0.2432795              -6.6200 (HOMO)
       102        0.0001           -0.2245439              -6.1102 (LUMO)
       103        0.0000           -0.2208612              -6.0099
       104                         -0.2183546              -5.9417
       105                         -0.2168790              -5.9016
       106                         -0.2166020              -5.8940
       107                         -0.2163780              -5.8879
       108                         -0.2095009              -5.7008
       109                         -0.1977189              -5.3802
       110                         -0.1902909              -5.1781
       111                         -0.1826714              -4.9707
       112                         -0.1726856              -4.6990
       ...                                ...                  ...
       197                          0.7014229              19.0867
      -------------------------------------------------------------
                  HL-Gap            0.0187356 Eh            0.5098 eV

     #   Z          covCN         q      C6AA      α(0)
     1   6 C        2.918    -0.044    29.086     8.844
     2   6 C        2.919    -0.035    28.878     8.812
     3   6 C        2.921    -0.064    29.596     8.921
     4   6 C        2.918     0.065    26.536     8.447
     5   6 C        2.975    -0.004    28.114     8.697
     6   6 C        2.923    -0.040    28.984     8.829
     7   6 C        3.815    -0.060    21.642     6.621
     8   6 C        2.972    -0.017    28.427     8.746
     9   6 C        2.914     0.060    26.656     8.466
    10   6 C        2.919    -0.082    30.060     8.991
    11   6 C        2.913    -0.039    28.966     8.825
    12   6 C        2.921    -0.056    29.383     8.889
    13   6 C        2.969    -0.012    28.310     8.728
    14   6 C        2.968    -0.016    28.418     8.744
    15   6 C        2.916    -0.044    29.087     8.844
    16   6 C        2.909    -0.063    29.568     8.916
    17   6 C        2.916     0.035    27.226     8.556
    18   6 C        2.966    -0.006    28.161     8.704
    19   6 C        2.970    -0.021    28.533     8.762
    20   6 C        2.974    -0.000    28.035     8.685
    21   6 C        2.925    -0.050    29.236     8.867
    22   6 C        2.916    -0.036    28.901     8.816
    23   6 C        2.922    -0.070    29.749     8.944
    24   6 C        2.919     0.063    26.591     8.456
    25   6 C        2.976    -0.010    28.264     8.721
    26   6 C        3.815    -0.061    21.652     6.623
    27   6 C        2.976    -0.003    28.096     8.695
    28   6 C        2.923    -0.038    28.955     8.824
    29   6 C        2.918    -0.043    29.062     8.840
    30   6 C        2.919    -0.036    28.888     8.814
    31   6 C        2.921    -0.063    29.575     8.918
    32   6 C        2.921     0.064    26.561     8.451
    33   7 N        2.703    -0.145    24.141     7.297
    34   6 C        3.814    -0.065    21.744     6.637
    35   6 C        2.971    -0.003    28.085     8.693
    36   6 C        2.920    -0.042    29.047     8.838
    37   6 C        2.917    -0.047    29.167     8.856
    38   6 C        2.917    -0.035    28.880     8.812
    39   6 C        2.918    -0.060    29.490     8.905
    40   6 C        2.919     0.052    26.841     8.496
    41   7 N        2.702    -0.095    23.102     7.139
    42   7 N        2.705    -0.143    24.103     7.292
    43   1 H        0.926     0.029     2.603     2.523
    44   1 H        0.926     0.030     2.588     2.516
    45   1 H        0.925     0.024     2.677     2.559
    46   1 H        0.926     0.032     2.551     2.498
    47   1 H        0.923     0.049     2.330     2.387
    48   1 H        0.925     0.058     2.224     2.332
    49   1 H        0.926     0.007     2.933     2.678
    50   1 H        0.926     0.016     2.795     2.614
    51   1 H        0.926     0.018     2.762     2.599
    52   1 H        0.926     0.026     2.643     2.542
    53   1 H        0.926     0.021     2.722     2.580
    54   1 H        0.925     0.026     2.645     2.543
    55   1 H        0.926     0.026     2.650     2.545
    56   1 H        0.926     0.017     2.777     2.606
    57   1 H        0.923     0.048     2.348     2.396
    58   1 H        0.925     0.053     2.283     2.363
    59   1 H        0.926     0.031     2.578     2.511
    60   1 H        0.926     0.028     2.615     2.529
    61   1 H        0.926     0.030     2.591     2.517
    62   1 H        0.925     0.025     2.663     2.552
    63   1 H        0.860     0.160     1.333     1.808
    64   1 H        0.925     0.059     2.207     2.323
    65   1 H        0.923     0.056     2.245     2.343
    66   1 H        0.926     0.030     2.582     2.513
    67   1 H        0.926     0.026     2.639     2.540
    68   1 H        0.926     0.029     2.604     2.524
    69   1 H        0.926     0.027     2.634     2.538
    70   1 H        0.860     0.169     1.277     1.770
    71   1 H        0.860     0.160     1.333     1.808

molecular dipole:
                 x           y           z       tot (Debye)
 q only:       -0.514       0.175      -0.302
   full:       -0.275       0.129      -0.284       1.056

 projected vibrational frequencies (cm⁻¹)
eigval :       -0.00    -0.00     0.00     0.00     0.00     0.00
eigval :       13.55    19.13    31.62    37.63    44.98    50.37
eigval :       56.21    72.82    92.57   105.05   114.13   118.87
eigval :      126.56   145.89   180.50   184.96   208.17   227.58
eigval :      232.49   234.01   240.28   252.79   256.85   268.90
eigval :      274.28   288.36   295.42   305.05   325.88   344.44
eigval :      368.75   377.53   383.15   396.39   412.60   417.87
eigval :      419.09   431.75   437.40   454.78   478.46   482.19
eigval :      492.00   498.64   501.32   506.19   509.80   513.14
eigval :      516.60   533.64   541.07   549.40   566.40   569.93
eigval :      573.06   575.78   576.42   593.24   614.73   622.61
eigval :      631.92   639.04   643.95   650.22   661.89   665.75
eigval :      670.47   673.83   710.69   729.70   754.49   761.89
eigval :      767.41   770.98   782.73   785.01   788.54   794.64
eigval :      811.25   831.08   835.76   845.23   848.06   850.56
eigval :      859.48   861.25   862.37   865.14   872.26   873.10
eigval :      889.33   894.66   895.79   899.58   902.72   907.08
eigval :      912.76   916.13   917.94   918.59   923.05   933.77
eigval :      964.93  1036.70  1076.34  1090.86  1092.62  1094.11
eigval :     1099.51  1115.16  1121.27  1132.33  1134.78  1137.12
eigval :     1139.73  1148.06  1155.80  1158.65  1173.96  1178.06
eigval :     1179.38  1181.88  1186.96  1190.56  1195.18  1196.98
eigval :     1199.67  1202.91  1215.96  1218.13  1220.16  1223.59
eigval :     1241.29  1247.77  1253.48  1255.26  1255.57  1257.01
eigval :     1272.63  1288.47  1300.42  1308.19  1316.82  1333.57
eigval :     1335.09  1336.01  1339.61  1348.84  1351.63  1359.37
eigval :     1375.97  1388.42  1396.42  1407.22  1413.99  1436.31
eigval :     1442.67  1446.01  1447.37  1450.23  1459.04  1460.48
eigval :     1464.78  1467.69  1473.22  1486.51  1488.65  1489.56
eigval :     1501.25  1526.22  1534.32  1546.46  1557.80  1574.87
eigval :     1578.33  1584.40  1591.49  1596.11  2818.82  2852.64
eigval :     2854.05  3010.59  3011.51  3015.16  3058.67  3058.99
eigval :     3059.88  3061.08  3061.76  3062.50  3068.38  3068.59
eigval :     3071.94  3072.97  3073.85  3077.59  3077.99  3078.30
eigval :     3081.91  3085.09  3086.05  3089.05  3090.32  3092.36
eigval :     3395.57  3418.16  3427.85

   temp. (K)  partition function   enthalpy   heat capacity  entropy
                                   cal/mol     cal/K/mol   cal/K/mol   J/K/mol
 298.15  VIB  0.820E+13            18845.594    127.075    112.721
         ROT  0.369E+08              888.752      2.981     37.607
         INT  0.303E+21            19734.347    130.056    150.328
         TR   0.121E+29             1481.254      4.968     44.723
         TOT                       21215.6008   135.0237   195.0506   816.0919

       T/K    H(0)-H(T)+PV         H(T)/Eh          T*S/Eh         G(T)/Eh
   ------------------------------------------------------------------------
    298.15    0.338092E-01    0.586956E+00    0.926749E-01    0.494281E+00
   ------------------------------------------------------------------------

         :::::::::::::::::::::::::::::::::::::::::::::::::::::
         ::                  THERMODYNAMIC                  ::
         :::::::::::::::::::::::::::::::::::::::::::::::::::::
         :: total free energy        -106.597020191029 Eh   ::
         ::.................................................::
         :: total energy             -107.091300907968 Eh   ::
         :: zero point energy           0.553146355955 Eh   ::
         :: G(RRHO) w/o ZPVE           -0.058865639016 Eh   ::
         :: G(RRHO) contrib.            0.494280716938 Eh   ::
         :::::::::::::::::::::::::::::::::::::::::::::::::::::

           -------------------------------------------------
          | TOTAL ENERGY             -107.091300907968 Eh   |
          | TOTAL ENTHALPY           -106.504345340159 Eh   |
          | TOTAL FREE ENERGY        -106.597020191029 Eh   |
          | GRADIENT NORM               0.000082933042 Eh/α |
          | HOMO-LUMO GAP               0.509820733213 eV   |
           -------------------------------------------------

 * finished run on 2025/09/02 at 20:29:12.786
