   * xtb version 6.7.1 (edcfbbe) compiled by 'albert@albert-system' on 2024-07-22

   ID    Z sym.   atoms
    1    6 C      1-32, 34-40
    2    7 N      33, 41, 42
    3    1 H      43-71

          program call               : xtb data2507/toluene/teracridan/teracridan_toluene_S0_finalOpt.xtbopt.xyz --gfn 2 --uhf 2 --gbsa toluene --ohess vtight --parallel 40 --molden --ceasefiles --namespace data2507/toluene/teracridan/teracridan_toluene_T1_preOpt
      * Solvation model:               GBSA
        Solvent                        toluene
        Solvent mass                       9.2140E+01 g/mol
          :  Hamiltonian                  GFN2-xTB          :
 * total energy  :  -107.0747205 Eh     change       -0.1027348E-07 Eh
 * total energy  :  -107.0776238 Eh     change       -0.2903338E-02 Eh
 * total energy  :  -107.0789711 Eh     change       -0.1347260E-02 Eh
 * total energy  :  -107.0796998 Eh     change       -0.7287613E-03 Eh
 * total energy  :  -107.0801714 Eh     change       -0.4715725E-03 Eh
 * total energy  :  -107.0808752 Eh     change       -0.7037723E-03 Eh
 * total energy  :  -107.0810997 Eh     change       -0.2245606E-03 Eh
 * total energy  :  -107.0813854 Eh     change       -0.2856613E-03 Eh
 * total energy  :  -107.0814631 Eh     change       -0.7769037E-04 Eh
 * total energy  :  -107.0815666 Eh     change       -0.1035257E-03 Eh
 * total energy  :  -107.0907852 Eh     change       -0.3094210E-06 Eh
 * total energy  :  -107.0907856 Eh     change       -0.3718434E-06 Eh
 * total energy  :  -107.0907860 Eh     change       -0.3503852E-06 Eh
 * total energy  :  -107.0907863 Eh     change       -0.3583488E-06 Eh
 * total energy  :  -107.0907866 Eh     change       -0.3009423E-06 Eh
 * total energy  :  -107.0907869 Eh     change       -0.2706727E-06 Eh
 * total energy  :  -107.0907872 Eh     change       -0.2708400E-06 Eh
 * total energy  :  -107.0907875 Eh     change       -0.3079032E-06 Eh
 * total energy  :  -107.0907875 Eh     change       -0.1940109E-08 Eh
   *** GEOMETRY OPTIMIZATION CONVERGED AFTER 122 ITERATIONS ***

 final structure:
================
71
 xtb: 6.7.1 (edcfbbe)
C            2.48047960001492        4.61182232937158       -1.43919576651577
C            3.79657811387330        4.20813140864775       -1.59345217173549
C            4.27833285232041        3.12824722301507       -0.87929000430613
C            3.44502928941505        2.44547377561757        0.00576463758195
C            2.11357378628904        2.85010015394411        0.16611682610148
C            1.65009021010295        3.92989124059070       -0.56301545457120
C            1.25532884726832        2.13849781028825        1.17140389822615
C            1.71685749357448        0.73111787636230        1.42545247225707
C            3.07884997594685        0.46505010405700        1.35178732180496
C            3.61749918689295       -0.69967792988859        1.90491490567704
C            2.77661112817296       -1.56157310591804        2.60679485785544
C            1.42519816540769       -1.33858197198243        2.65363882713243
C            0.83400657267700       -0.24430531886531        1.97071803133035
C           -0.58693946521513       -0.18744849769864        1.81604697750548
C           -1.44670682581677       -0.51415917647842        2.90563668560752
C           -2.78747158399108       -0.33634011192910        2.82056658960334
C           -3.37783730589671        0.10882400516307        1.59861933668752
C           -2.57010832755613        0.31819080108852        0.45582921435322
C           -1.20576950059909        0.15139214496245        0.54353597682255
C           -0.34514691311783        0.14388839882078       -0.65545177052896
C           -0.21410443469431        1.27520719516805       -1.46493851683616
C            0.65718555049161        1.29236544770046       -2.53498697703134
C            1.44869838670704        0.19206604235428       -2.80565502135143
C            1.30738721308415       -0.95809081484240       -2.03258962891349
C            0.38143758496264       -1.00617606138105       -0.98751354222956
C            0.11319266853217       -2.34089524248073       -0.34671885169754
C            1.33111048213425       -3.21737637239073       -0.33988949767271
C            1.52423026538444       -4.20261907396086        0.61117029490634
C            2.62428928459350       -5.04368923799256        0.55344665298398
C            3.54917776088182       -4.89741517355420       -0.46721415106442
C            3.38282685760029       -3.90793081697209       -1.41750850262413
C            2.27716468946746       -3.06322315338071       -1.35904784220451
N            2.08978969820816       -2.07025389299734       -2.29980159819312
C           -3.23451308087112        0.61629649278766       -0.86340877059052
C           -4.73168043706511        0.69978954021123       -0.82132399185709
C           -5.45497751410191        0.98522746475151       -1.96413811191766
C           -6.84030240196230        1.07437997288000       -1.93975604546630
C           -7.52648090063709        0.87751927649910       -0.74152565803404
C           -6.83407629751393        0.59508101788529        0.41108695759243
C           -5.43232048100992        0.50288787369633        0.38784635376922
N           -4.73742861856256        0.21894253608267        1.52581350924963
N            3.91859011690263        1.38624805724428        0.74459448678348
H            2.10311314457162        5.45728575939739       -1.99514297302451
H            4.45062514802491        4.73588115537471       -2.27249395972079
H            5.30475429105366        2.80820363511828       -0.99597397238101
H            0.62685822851745        4.25231666868806       -0.43385213589340
H            1.32626898843215        2.68284980075496        2.12838088802242
H            0.20514737197385        2.16751193971198        0.88442343937689
H            4.67595405149815       -0.89943893889848        1.82788930396705
H            3.19669028075783       -2.43221515995094        3.09003874675600
H            0.78451409470578       -2.05247344449061        3.14981546714104
H           -1.00102304928847       -0.83701176614897        3.83486461830175
H           -3.43298546213117       -0.53528140609831        3.66428706195508
H           -0.78134759911271        2.16451537061353       -1.23695436173309
H            0.74744875276860        2.18047459612865       -3.14292883138852
H            2.16703072088793        0.21280929314535       -3.61293288873245
H           -0.67312705875258       -2.84196159979837       -0.93222219667969
H           -0.27745727353230       -2.22221291560327        0.66400625105455
H            0.79732942367866       -4.31987291609022        1.40190851930905
H            2.75675168460694       -5.81305650023330        1.29965775192345
H            4.40692610979423       -5.55228914280399       -0.52080043894253
H            4.10727487783975       -3.78307230222745       -2.21080011592415
H            2.80938370816842       -1.95865625912841       -2.99985471661271
H           -2.85519599890014        1.56479925999395       -1.25651532819199
H           -2.92921984973804       -0.14570361052584       -1.59131523190685
H           -4.92569085428672        1.13797822259190       -2.89438733576714
H           -7.38460449164693        1.29449938040946       -2.84519394994385
H           -8.60409948767149        0.94708820178946       -0.72055837989851
H           -7.35538500682160        0.44067421793102        1.34546905188013
H           -5.26527043365318        0.03936792187552        2.37045441739175
H            4.88132072762944        1.11310367103141        0.61224964261453

          :  Hamiltonian                  GFN2-xTB          :
         :: gradient norm              0.000042696939 Eh/a0 ::
         :: HOMO-LUMO gap              0.536413019930 eV    ::
         :: SCC energy              -109.044642816840 Eh    ::
         :: -> dispersion             -0.109378391937 Eh    ::
         :: -> Gsolv                  -0.038345052675 Eh    ::
         :: repulsion energy           1.953855336272 Eh    ::

    * Orbital Energies and Occupations

         #    Occupation            Energy/Eh            Energy/eV
      -------------------------------------------------------------
         1        2.0000           -0.6700917             -18.2341
       ...           ...                  ...                  ...
        89        2.0000           -0.4005911             -10.9006
        90        2.0000           -0.4000092             -10.8848
        91        2.0000           -0.3965010             -10.7893
        92        2.0000           -0.3942256             -10.7274
        93        2.0000           -0.3938119             -10.7162
        94        2.0000           -0.3908676             -10.6360
        95        2.0000           -0.3884741             -10.5709
        96        2.0000           -0.3794364             -10.3250
        97        2.0000           -0.3648060              -9.9269
        98        1.9975           -0.3458095              -9.4100
        99        1.8936           -0.3421299              -9.3098
       100        1.1088           -0.3381103              -9.2004
       101        1.0000           -0.2437847              -6.6337 (HOMO)
       102        0.0000           -0.2240720              -6.0973 (LUMO)
       103        0.0000           -0.2191950              -5.9646
       104                         -0.2182712              -5.9395
       105                         -0.2160400              -5.8787
       106                         -0.2153955              -5.8612
       107                         -0.2151434              -5.8543
       108                         -0.2106574              -5.7323
       109                         -0.1990435              -5.4162
       110                         -0.1888683              -5.1394
       111                         -0.1843577              -5.0166
       112                         -0.1750382              -4.7630
       ...                                ...                  ...
       197                          0.7011715              19.0798
      -------------------------------------------------------------
                  HL-Gap            0.0197128 Eh            0.5364 eV

     #   Z          covCN         q      C6AA      α(0)
     1   6 C        2.918    -0.045    29.115     8.848
     2   6 C        2.919    -0.035    28.882     8.813
     3   6 C        2.921    -0.063    29.569     8.917
     4   6 C        2.919     0.065    26.541     8.448
     5   6 C        2.975    -0.003    28.106     8.696
     6   6 C        2.923    -0.040    28.989     8.829
     7   6 C        3.815    -0.060    21.637     6.621
     8   6 C        2.974    -0.017    28.425     8.745
     9   6 C        2.914     0.059    26.687     8.471
    10   6 C        2.919    -0.081    30.017     8.984
    11   6 C        2.913    -0.039    28.960     8.824
    12   6 C        2.921    -0.053    29.324     8.880
    13   6 C        2.970    -0.009    28.249     8.718
    14   6 C        2.972    -0.014    28.366     8.736
    15   6 C        2.912    -0.041    29.029     8.835
    16   6 C        2.910    -0.063    29.562     8.916
    17   6 C        2.913     0.034    27.239     8.558
    18   6 C        2.962    -0.005    28.147     8.702
    19   6 C        2.972    -0.022    28.561     8.766
    20   6 C        2.974    -0.000    28.028     8.684
    21   6 C        2.923    -0.050    29.252     8.869
    22   6 C        2.917    -0.036    28.901     8.816
    23   6 C        2.921    -0.071    29.769     8.947
    24   6 C        2.919     0.061    26.638     8.464
    25   6 C        2.979    -0.011    28.282     8.724
    26   6 C        3.815    -0.060    21.646     6.622
    27   6 C        2.976    -0.004    28.129     8.700
    28   6 C        2.923    -0.040    28.987     8.829
    29   6 C        2.918    -0.045    29.113     8.848
    30   6 C        2.919    -0.036    28.894     8.815
    31   6 C        2.921    -0.063    29.568     8.917
    32   6 C        2.921     0.064    26.561     8.452
    33   7 N        2.702    -0.152    24.289     7.320
    34   6 C        3.813    -0.064    21.710     6.632
    35   6 C        2.969    -0.002    28.077     8.692
    36   6 C        2.921    -0.042    29.055     8.839
    37   6 C        2.916    -0.046    29.153     8.854
    38   6 C        2.916    -0.035    28.866     8.810
    39   6 C        2.918    -0.059    29.475     8.903
    40   6 C        2.917     0.051    26.856     8.498
    41   7 N        2.702    -0.087    22.947     7.115
    42   7 N        2.704    -0.147    24.180     7.303
    43   1 H        0.926     0.028     2.620     2.531
    44   1 H        0.926     0.029     2.605     2.524
    45   1 H        0.925     0.023     2.685     2.563
    46   1 H        0.926     0.031     2.570     2.507
    47   1 H        0.923     0.047     2.355     2.400
    48   1 H        0.925     0.057     2.238     2.340
    49   1 H        0.926     0.010     2.896     2.661
    50   1 H        0.926     0.017     2.784     2.609
    51   1 H        0.926     0.019     2.751     2.594
    52   1 H        0.926     0.027     2.626     2.534
    53   1 H        0.926     0.023     2.689     2.564
    54   1 H        0.926     0.025     2.659     2.550
    55   1 H        0.926     0.024     2.677     2.558
    56   1 H        0.926     0.017     2.781     2.608
    57   1 H        0.923     0.047     2.357     2.401
    58   1 H        0.925     0.053     2.281     2.362
    59   1 H        0.926     0.030     2.593     2.518
    60   1 H        0.926     0.026     2.637     2.539
    61   1 H        0.926     0.028     2.611     2.527
    62   1 H        0.925     0.023     2.681     2.560
    63   1 H        0.860     0.159     1.343     1.815
    64   1 H        0.924     0.064     2.156     2.296
    65   1 H        0.924     0.057     2.239     2.340
    66   1 H        0.926     0.031     2.572     2.508
    67   1 H        0.926     0.027     2.627     2.535
    68   1 H        0.926     0.030     2.590     2.517
    69   1 H        0.926     0.028     2.616     2.529
    70   1 H        0.860     0.172     1.262     1.760
    71   1 H        0.860     0.159     1.339     1.813

molecular dipole:
                 x           y           z       tot (Debye)
 q only:       -0.906       0.187      -0.111
   full:       -0.609       0.087      -0.125       1.595

 projected vibrational frequencies (cm⁻¹)
eigval :       -0.00    -0.00    -0.00     0.00     0.00     0.00
eigval :        2.47     8.57    21.10    30.06    35.29    37.96
eigval :       42.85    61.33    85.72    92.93   102.01   111.24
eigval :      117.24   157.16   166.08   178.96   190.87   221.84
eigval :      230.16   235.46   240.60   248.05   257.98   263.28
eigval :      275.27   284.48   293.83   297.68   325.62   344.32
eigval :      367.71   377.56   390.06   399.02   405.69   416.05
eigval :      418.24   429.56   436.59   458.02   473.31   483.25
eigval :      493.56   497.05   501.21   506.06   507.83   509.62
eigval :      513.47   531.61   542.47   548.30   562.14   570.79
eigval :      571.05   576.20   580.45   590.33   615.68   627.47
eigval :      634.02   639.65   641.93   647.90   657.90   666.23
eigval :      671.07   675.94   706.51   732.92   751.78   758.67
eigval :      767.26   768.53   778.59   785.54   791.67   793.27
eigval :      815.57   832.24   837.37   845.05   845.62   851.39
eigval :      859.87   861.26   862.94   865.75   871.04   873.38
eigval :      891.76   893.31   897.08   900.58   902.98   905.89
eigval :      911.51   915.57   916.10   919.65   922.98   929.09
eigval :      966.68  1035.14  1073.88  1091.84  1092.41  1095.92
eigval :     1097.78  1115.39  1117.49  1131.32  1136.11  1137.06
eigval :     1140.19  1153.71  1156.03  1160.21  1171.17  1178.19
eigval :     1178.98  1179.97  1184.05  1190.76  1192.25  1196.56
eigval :     1201.15  1204.15  1216.56  1219.42  1220.57  1230.15
eigval :     1241.60  1248.92  1252.27  1254.96  1255.28  1257.57
eigval :     1274.72  1291.34  1302.26  1308.07  1317.77  1333.35
eigval :     1334.45  1334.99  1339.76  1348.85  1352.88  1364.03
eigval :     1375.48  1385.99  1394.43  1403.52  1417.43  1434.05
eigval :     1441.28  1445.22  1452.03  1453.15  1459.27  1463.53
eigval :     1466.47  1473.12  1476.27  1486.88  1489.03  1491.59
eigval :     1499.92  1527.42  1543.56  1546.25  1556.24  1578.28
eigval :     1581.78  1584.02  1592.40  1596.18  2821.42  2854.17
eigval :     2899.28  2943.90  2997.22  3007.61  3058.24  3059.69
eigval :     3060.71  3062.56  3064.15  3064.45  3069.03  3069.90
eigval :     3070.39  3071.83  3074.52  3075.06  3075.66  3079.13
eigval :     3080.01  3082.97  3087.31  3087.80  3088.93  3093.41
eigval :     3389.94  3420.27  3426.62

   temp. (K)  partition function   enthalpy   heat capacity  entropy
                                   cal/mol     cal/K/mol   cal/K/mol   J/K/mol
 298.15  VIB  0.658E+15            19077.260    126.071    116.977
         ROT  0.394E+08              888.752      2.981     37.735
         INT  0.259E+23            19966.013    129.051    154.712
         TR   0.121E+29             1481.254      4.968     44.723
         TOT                       21447.2664   134.0196   199.4347   834.4346

       T/K    H(0)-H(T)+PV         H(T)/Eh          T*S/Eh         G(T)/Eh
   ------------------------------------------------------------------------
    298.15    0.341784E-01    0.586833E+00    0.947578E-01    0.492075E+00
   ------------------------------------------------------------------------

         :::::::::::::::::::::::::::::::::::::::::::::::::::::
         ::                  THERMODYNAMIC                  ::
         :::::::::::::::::::::::::::::::::::::::::::::::::::::
         :: total free energy        -106.598712688019 Eh   ::
         ::.................................................::
         :: total energy             -107.090787481263 Eh   ::
         :: zero point energy           0.552654239473 Eh   ::
         :: G(RRHO) w/o ZPVE           -0.060579446229 Eh   ::
         :: G(RRHO) contrib.            0.492074793244 Eh   ::
         :::::::::::::::::::::::::::::::::::::::::::::::::::::

           -------------------------------------------------
          | TOTAL ENERGY             -107.090787481263 Eh   |
          | TOTAL ENTHALPY           -106.503954847185 Eh   |
          | TOTAL FREE ENERGY        -106.598712688019 Eh   |
          | GRADIENT NORM               0.000042480450 Eh/α |
          | HOMO-LUMO GAP               0.536411410684 eV   |
           -------------------------------------------------

 * finished run on 2025/09/02 at 20:20:53.677
