   * xtb version 6.7.1 (edcfbbe) compiled by 'albert@albert-system' on 2024-07-22

   ID    Z sym.   atoms
    1    6 C      1-32, 34-40
    2    7 N      33, 41, 42
    3    1 H      43-71

          program call               : xtb data2507/toluene/teracridan/teracridan.xyz --gfn 2 --gbsa toluene --ohess vtight --parallel 40 --molden --ceasefiles --namespace data2507/toluene/teracridan/teracridan_toluene_S0_preOpt
      * Solvation model:               GBSA
        Solvent                        toluene
        Solvent mass                       9.2140E+01 g/mol
          :  Hamiltonian                  GFN2-xTB          :
 * total energy  :  -107.1815262 Eh     change       -0.2973692E-08 Eh
 * total energy  :  -107.1916011 Eh     change       -0.1007487E-01 Eh
 * total energy  :  -107.1945210 Eh     change       -0.2919871E-02 Eh
 * total energy  :  -107.1951341 Eh     change       -0.6131568E-03 Eh
 * total energy  :  -107.1954312 Eh     change       -0.2970631E-03 Eh
 * total energy  :  -107.1955599 Eh     change       -0.1286636E-03 Eh
 * total energy  :  -107.1956806 Eh     change       -0.1207531E-03 Eh
 * total energy  :  -107.1957967 Eh     change       -0.1160681E-03 Eh
 * total energy  :  -107.1958912 Eh     change       -0.9449282E-04 Eh
 * total energy  :  -107.1959876 Eh     change       -0.9642811E-04 Eh
 * total energy  :  -107.1989902 Eh     change       -0.4586729E-06 Eh
 * total energy  :  -107.1989908 Eh     change       -0.5278233E-06 Eh
 * total energy  :  -107.1989914 Eh     change       -0.6464929E-06 Eh
 * total energy  :  -107.1989922 Eh     change       -0.7849569E-06 Eh
 * total energy  :  -107.1989931 Eh     change       -0.9028788E-06 Eh
 * total energy  :  -107.1989939 Eh     change       -0.8441558E-06 Eh
 * total energy  :  -107.1989946 Eh     change       -0.6756630E-06 Eh
 * total energy  :  -107.1989950 Eh     change       -0.3883284E-06 Eh
 * total energy  :  -107.1989950 Eh     change       -0.3821995E-08 Eh
   *** GEOMETRY OPTIMIZATION CONVERGED AFTER 68 ITERATIONS ***

 final structure:
================
71
 xtb: 6.7.1 (edcfbbe)
C            6.51394478619731        1.40155113774793       -1.36317417511022
C            7.17326498548148        0.18455867865714       -1.33517230219648
C            6.63280766512421       -0.88144851683652       -0.64005084833907
C            5.43397452096145       -0.73057136863425        0.05171323593776
C            4.77890045044306        0.50494276377775        0.05110488769425
C            5.32164840008105        1.55254380971691       -0.67210353010314
C            3.53398442045170        0.67811576063646        0.87631653618780
C            2.80481078186832       -0.62232146430536        1.08574218162158
C            3.52528148759025       -1.81949670665293        1.04442780418881
C            2.88797643609480       -3.03077428650315        1.29655623572498
C            1.53514634700655       -3.05314650847787        1.57750283716712
C            0.80973372373971       -1.87705738791717        1.58805209538588
C            1.43803090387372       -0.65984897820262        1.33993762246432
C            0.63956733772499        0.58820095616775        1.33362719067355
C            0.71998442977929        1.50152367144461        2.37526414203485
C           -0.04210113214764        2.65365500766266        2.35926336055346
C           -0.87010789257507        2.92767978415189        1.27469726485225
C           -0.93782575427754        2.03277218420759        0.20151495904720
C           -0.20824568994512        0.85249161720752        0.25170394840947
C           -0.26879904492741       -0.14643943877592       -0.84298115880391
C            0.75664096597790       -0.19390790778471       -1.78216624501100
C            0.74600348020909       -1.15123230362316       -2.77917901043597
C           -0.26745518114106       -2.08935874325599       -2.82921945385183
C           -1.29365910326413       -2.05417601468940       -1.88992218867355
C           -1.31323284472797       -1.06209574733735       -0.90526282313913
C           -2.48352587810133       -1.00426452404176        0.04003829708066
C           -3.07686272067954       -2.36645004199180        0.26873616494155
C           -3.73906862436388       -2.69059322923732        1.43939736472279
C           -4.34809009621189       -3.92626698511925        1.59521011166981
C           -4.29374432461718       -4.85247240445351        0.56769356713421
C           -3.61354207114731       -4.55604359103972       -0.59915103435769
C           -2.99727945904323       -3.31767091176537       -0.75351749190414
N           -2.29746908617830       -3.00993268479649       -1.90818423137477
C           -1.74604858085240        2.41102191259155       -1.01037369994735
C           -2.88295936563863        3.33126698675741       -0.66170837074430
C           -4.02728182347746        3.40244911705576       -1.43625028617435
C           -5.03065314196828        4.31389127010110       -1.14531756101427
C           -4.89136342100741        5.16526285243901       -0.06248617245322
C           -3.76674602823692        5.09128008412515        0.73833200433542
C           -2.76078514060879        4.17375888781946        0.44821881084638
N           -1.63549162092566        4.08074057460312        1.24768610879940
N            4.87727703174583       -1.79141905099183        0.74310870034573
H            6.92844519827510        2.23215112080718       -1.91478741104514
H            8.10735562090791        0.06030682756289       -1.86353027886776
H            7.13653244924382       -1.83827234166795       -0.62840815778164
H            4.80955451069040        2.50472559108231       -0.68335185950902
H            3.82300122387446        1.08015584176898        1.85777297459807
H            2.87090091887201        1.41566228291263        0.41798143749100
H            3.45799085760411       -3.94910843435891        1.26746536193702
H            1.04239297590472       -3.99340004272884        1.77870642820305
H           -0.24822435056091       -1.89686621047326        1.79921414624339
H            1.37141850605782        1.29647322586363        3.21216650370023
H            0.00597366126549        3.35115894727902        3.18364658325754
H            1.55914603745366        0.52616958763718       -1.72894438402259
H            1.54028021122579       -1.17823796353790       -3.51088685832239
H           -0.26740818464832       -2.85732955496394       -3.59025199015586
H           -3.26041723751945       -0.36046543030086       -0.39725739808549
H           -2.19136564534206       -0.54524226610614        0.98702133643248
H           -3.78946520274024       -1.96080032492124        2.23562421225511
H           -4.86854250081735       -4.16055220070180        2.51186256838641
H           -4.77384735812328       -5.81404808149291        0.67726969458469
H           -3.55494862593629       -5.28315401670043       -1.39742243644684
H           -2.19882088337163       -3.75167911951721       -2.58718049387088
H           -1.08225708893109        2.93027949067840       -1.71707793366740
H           -2.11303633504351        1.52087323705656       -1.52371281683020
H           -4.12798910190383        2.74430855599691       -2.28805529372374
H           -5.91323330707570        4.36271313587020       -1.76550201646487
H           -5.66440722976014        5.88438402735570        0.16610595216409
H           -3.66079080933011        5.74409817386289        1.59388145962544
H           -1.61401815118761        4.66025611916413        2.07472544039470
H            5.33913971264623       -2.68527443789533        0.65329838135612

          :  Hamiltonian                  GFN2-xTB          :
         :: gradient norm              0.000051748276 Eh/a0 ::
         :: HOMO-LUMO gap              3.242607447933 eV    ::
         :: SCC energy              -109.174371915730 Eh    ::
         :: -> dispersion             -0.101419960917 Eh    ::
         :: -> Gsolv                  -0.040916737562 Eh    ::
         :: repulsion energy           1.975376919217 Eh    ::

    * Orbital Energies and Occupations

         #    Occupation            Energy/Eh            Energy/eV
      -------------------------------------------------------------
         1        2.0000           -0.6634282             -18.0528
       ...           ...                  ...                  ...
        88        2.0000           -0.4086435             -11.1198
        89        2.0000           -0.4000612             -10.8862
        90        2.0000           -0.3993432             -10.8667
        91        2.0000           -0.3968920             -10.8000
        92        2.0000           -0.3959378             -10.7740
        93        2.0000           -0.3952347             -10.7549
        94        2.0000           -0.3947392             -10.7414
        95        2.0000           -0.3892869             -10.5930
        96        2.0000           -0.3857538             -10.4969
        97        2.0000           -0.3837165             -10.4415
        98        2.0000           -0.3486765              -9.4880
        99        2.0000           -0.3475088              -9.4562
       100        2.0000           -0.3463847              -9.4256 (HOMO)
       101                         -0.2272211              -6.1830 (LUMO)
       102                         -0.2231984              -6.0735
       103                         -0.2200558              -5.9880
       104                         -0.2196995              -5.9783
       105                         -0.2171216              -5.9082
       106                         -0.2166828              -5.8962
       107                         -0.2164249              -5.8892
       108                         -0.2131174              -5.7992
       109                         -0.2116415              -5.7591
       110                         -0.1929579              -5.2507
       111                         -0.1923184              -5.2333
       ...                                ...                  ...
       197                          0.6969769              18.9657
      -------------------------------------------------------------
                  HL-Gap            0.1191636 Eh            3.2426 eV

     #   Z          covCN         q      C6AA      α(0)
     1   6 C        2.918    -0.046    29.143     8.853
     2   6 C        2.919    -0.036    28.889     8.814
     3   6 C        2.922    -0.063    29.566     8.917
     4   6 C        2.920     0.064    26.560     8.451
     5   6 C        2.975    -0.007    28.192     8.710
     6   6 C        2.924    -0.042    29.050     8.839
     7   6 C        3.813    -0.057    21.592     6.614
     8   6 C        2.979    -0.012    28.310     8.728
     9   6 C        2.920     0.063    26.595     8.457
    10   6 C        2.922    -0.066    29.639     8.928
    11   6 C        2.918    -0.037    28.912     8.817
    12   6 C        2.924    -0.049    29.214     8.864
    13   6 C        2.980     0.002    27.987     8.678
    14   6 C        2.982    -0.007    28.186     8.709
    15   6 C        2.921    -0.039    28.979     8.828
    16   6 C        2.920    -0.066    29.644     8.929
    17   6 C        2.920     0.061    26.640     8.464
    18   6 C        2.977    -0.012    28.307     8.727
    19   6 C        2.986    -0.003    28.103     8.696
    20   6 C        2.981     0.004    27.940     8.671
    21   6 C        2.924    -0.048    29.189     8.860
    22   6 C        2.918    -0.036    28.896     8.815
    23   6 C        2.922    -0.065    29.626     8.926
    24   6 C        2.921     0.063    26.595     8.457
    25   6 C        2.980    -0.012    28.297     8.726
    26   6 C        3.814    -0.055    21.555     6.608
    27   6 C        2.976    -0.007    28.188     8.709
    28   6 C        2.923    -0.042    29.037     8.837
    29   6 C        2.918    -0.046    29.133     8.851
    30   6 C        2.919    -0.036    28.886     8.813
    31   6 C        2.921    -0.062    29.554     8.915
    32   6 C        2.922     0.064    26.562     8.452
    33   7 N        2.701    -0.157    24.393     7.335
    34   6 C        3.814    -0.059    21.622     6.618
    35   6 C        2.975    -0.007    28.187     8.709
    36   6 C        2.923    -0.042    29.047     8.838
    37   6 C        2.918    -0.046    29.133     8.851
    38   6 C        2.919    -0.035    28.881     8.813
    39   6 C        2.922    -0.063    29.558     8.916
    40   6 C        2.921     0.064    26.574     8.454
    41   7 N        2.701    -0.153    24.303     7.322
    42   7 N        2.702    -0.156    24.366     7.331
    43   1 H        0.926     0.026     2.638     2.540
    44   1 H        0.926     0.028     2.614     2.529
    45   1 H        0.925     0.024     2.676     2.558
    46   1 H        0.926     0.029     2.603     2.523
    47   1 H        0.923     0.048     2.350     2.397
    48   1 H        0.924     0.044     2.396     2.421
    49   1 H        0.925     0.023     2.686     2.563
    50   1 H        0.926     0.026     2.639     2.540
    51   1 H        0.926     0.026     2.641     2.542
    52   1 H        0.926     0.030     2.585     2.514
    53   1 H        0.926     0.027     2.635     2.539
    54   1 H        0.926     0.026     2.648     2.545
    55   1 H        0.926     0.028     2.611     2.527
    56   1 H        0.926     0.024     2.674     2.557
    57   1 H        0.923     0.047     2.352     2.398
    58   1 H        0.924     0.043     2.413     2.429
    59   1 H        0.925     0.028     2.611     2.527
    60   1 H        0.926     0.027     2.636     2.539
    61   1 H        0.926     0.028     2.610     2.526
    62   1 H        0.925     0.024     2.670     2.555
    63   1 H        0.860     0.158     1.349     1.819
    64   1 H        0.923     0.048     2.342     2.393
    65   1 H        0.924     0.047     2.360     2.402
    66   1 H        0.926     0.029     2.599     2.521
    67   1 H        0.926     0.026     2.637     2.540
    68   1 H        0.926     0.028     2.612     2.527
    69   1 H        0.925     0.025     2.664     2.552
    70   1 H        0.860     0.158     1.345     1.817
    71   1 H        0.860     0.158     1.348     1.819

molecular dipole:
                 x           y           z       tot (Debye)
 q only:        0.083       0.070       0.018
   full:        0.172      -0.191       0.025       0.655

 projected vibrational frequencies (cm⁻¹)
eigval :       -0.00    -0.00     0.00     0.00     0.00     0.00
eigval :       11.28    17.96    18.85    28.92    37.15    45.10
eigval :       45.34    53.06    65.74    87.63    91.96    96.00
eigval :      120.87   162.94   170.71   173.00   186.10   215.16
eigval :      219.27   244.27   250.04   253.52   256.85   262.95
eigval :      276.87   282.82   295.88   314.25   345.51   357.62
eigval :      373.80   378.16   388.59   412.18   417.23   417.64
eigval :      425.21   430.85   442.58   476.97   483.46   502.64
eigval :      503.05   506.00   508.34   510.87   520.76   532.08
eigval :      537.61   547.26   556.22   572.85   580.81   581.28
eigval :      584.03   586.05   598.99   609.02   631.62   640.65
eigval :      645.32   660.80   669.29   671.82   675.30   679.59
eigval :      687.20   701.67   715.09   766.70   767.97   769.92
eigval :      780.12   786.16   793.01   797.09   800.15   823.56
eigval :      837.64   838.87   853.08   858.19   859.83   861.74
eigval :      862.42   864.64   868.22   872.82   874.24   882.23
eigval :      898.68   900.83   902.74   903.74   912.74   914.91
eigval :      916.64   917.60   919.75   933.85   938.87   939.87
eigval :      989.67  1048.12  1093.84  1093.89  1094.30  1115.48
eigval :     1117.90  1125.98  1128.77  1133.23  1145.11  1148.66
eigval :     1159.21  1163.49  1165.25  1177.68  1179.80  1180.61
eigval :     1189.44  1193.21  1194.66  1199.48  1200.69  1206.23
eigval :     1209.97  1216.48  1220.01  1221.07  1221.24  1244.28
eigval :     1252.64  1254.56  1255.80  1258.04  1265.08  1281.68
eigval :     1304.01  1305.43  1306.04  1308.28  1317.39  1330.11
eigval :     1330.76  1334.56  1336.93  1340.86  1381.08  1386.13
eigval :     1397.47  1434.67  1446.95  1453.06  1455.92  1458.31
eigval :     1459.08  1462.64  1468.24  1468.78  1470.76  1484.33
eigval :     1490.19  1493.25  1495.53  1501.09  1567.87  1578.48
eigval :     1579.34  1583.12  1585.78  1586.30  1590.96  1594.34
eigval :     1594.76  1600.21  1600.63  1601.02  2868.81  2869.68
eigval :     2872.47  2970.63  2975.58  2989.78  3060.97  3061.18
eigval :     3061.31  3061.54  3062.04  3065.17  3065.62  3066.25
eigval :     3066.90  3074.63  3075.21  3075.68  3075.90  3076.81
eigval :     3081.41  3088.41  3088.89  3089.40  3091.35  3097.77
eigval :     3419.88  3422.05  3424.00

   temp. (K)  partition function   enthalpy   heat capacity  entropy
                                   cal/mol     cal/K/mol   cal/K/mol   J/K/mol
 298.15  VIB  0.833E+14            18775.669    123.664    114.043
         ROT  0.468E+08              888.752      2.981     38.080
         INT  0.390E+22            19664.421    126.644    152.124
         TR   0.121E+29             1481.254      4.968     44.723
         TOT                       21145.6748   131.6126   196.8462   823.6045

       T/K    H(0)-H(T)+PV         H(T)/Eh          T*S/Eh         G(T)/Eh
   ------------------------------------------------------------------------
    298.15    0.336978E-01    0.591618E+00    0.935280E-01    0.498090E+00
   ------------------------------------------------------------------------

         :::::::::::::::::::::::::::::::::::::::::::::::::::::
         ::                  THERMODYNAMIC                  ::
         :::::::::::::::::::::::::::::::::::::::::::::::::::::
         :: total free energy        -106.700904537489 Eh   ::
         ::.................................................::
         :: total energy             -107.198994992779 Eh   ::
         :: zero point energy           0.557920657583 Eh   ::
         :: G(RRHO) w/o ZPVE           -0.059830202293 Eh   ::
         :: G(RRHO) contrib.            0.498090455290 Eh   ::
         :::::::::::::::::::::::::::::::::::::::::::::::::::::

           -------------------------------------------------
          | TOTAL ENERGY             -107.198994992779 Eh   |
          | TOTAL ENTHALPY           -106.607376557458 Eh   |
          | TOTAL FREE ENERGY        -106.700904537489 Eh   |
          | GRADIENT NORM               0.000051753777 Eh/α |
          | HOMO-LUMO GAP               3.242607701764 eV   |
           -------------------------------------------------

 * finished run on 2025/09/02 at 20:10:21.628
