   * xtb version 6.7.1 (edcfbbe) compiled by 'albert@albert-system' on 2024-07-22

   ID    Z sym.   atoms
    1    6 C      1-9, 11-20, 22-25, 27-32, 34-40
    2    7 N      10, 21, 26, 33
    3    1 H      41-64

          program call               : xtb data2507/toluene/3-ACBPmCN/3-ACBPmCN_toluene_S0_finalOpt.xtbopt.xyz --gfn 2 --uhf 2 --gbsa toluene --ohess vtight --parallel 40 --molden --ceasefiles --namespace data2507/toluene/3-ACBPmCN/3-ACBPmCN_toluene_T1_preOpt
      * Solvation model:               GBSA
        Solvent                        toluene
        Solvent mass                       9.2140E+01 g/mol
          :  Hamiltonian                  GFN2-xTB          :
 * total energy  :  -101.0426927 Eh     change       -0.7044662E-07 Eh
 * total energy  :  -101.0453230 Eh     change       -0.2630297E-02 Eh
 * total energy  :  -101.0460967 Eh     change       -0.7737024E-03 Eh
 * total energy  :  -101.0461114 Eh     change       -0.1467981E-04 Eh
 * total energy  :  -101.0462316 Eh     change       -0.1202680E-03 Eh
 * total energy  :  -101.0462401 Eh     change       -0.8483555E-05 Eh
 * total energy  :  -101.0462448 Eh     change       -0.4718784E-05 Eh
 * total energy  :  -101.0462491 Eh     change       -0.4241222E-05 Eh
 * total energy  :  -101.0462569 Eh     change       -0.7868284E-05 Eh
 * total energy  :  -101.0462612 Eh     change       -0.4282189E-05 Eh
 * total energy  :  -101.0463188 Eh     change       -0.1235828E-06 Eh
 * total energy  :  -101.0463189 Eh     change       -0.1178330E-06 Eh
 * total energy  :  -101.0463191 Eh     change       -0.1216604E-06 Eh
 * total energy  :  -101.0463193 Eh     change       -0.1837252E-06 Eh
 * total energy  :  -101.0463195 Eh     change       -0.2410138E-06 Eh
 * total energy  :  -101.0463197 Eh     change       -0.2065694E-06 Eh
 * total energy  :  -101.0463199 Eh     change       -0.1683460E-06 Eh
 * total energy  :  -101.0463201 Eh     change       -0.2796408E-06 Eh
 * total energy  :  -101.0463202 Eh     change       -0.9469018E-07 Eh
   *** GEOMETRY OPTIMIZATION CONVERGED AFTER 38 ITERATIONS ***

 final structure:
================
64
 xtb: 6.7.1 (edcfbbe)
C           -6.50445160273079       -1.56553875522794        0.75885273104678
C           -5.59253084914570       -0.48784500660357        0.14027385067617
C           -6.44479572820979        0.62966416556978       -0.49264493268661
C           -4.74000885729102        0.11187870816825        1.23936200437738
C           -5.35129868912399        0.74083146563019        2.31582396699245
C           -4.62273999112797        1.28804456804485        3.35602940951769
C           -3.23962033631594        1.19972287432854        3.33959823235191
C           -2.60517818167298        0.58203097338914        2.28462416429264
C           -3.33901288494807        0.04443422510652        1.21850609899933
N           -2.67481239838581       -0.55742077601070        0.16611003669490
C           -1.25181772563537       -0.61252204760697        0.18541291441118
C           -0.60970723730060       -1.80177217715264        0.55751648132393
C            0.75880156679120       -1.84740827388565        0.56495962854522
C            1.52466093950217       -0.72292048776102        0.21579023480557
C            0.88368077666475        0.48514187160050       -0.14949207887632
C           -0.51843353608883        0.50148255209511       -0.16121580637480
C            1.68211634565778        1.63794047451062       -0.49230842189713
C            1.12199671385088        2.87030841010988       -0.83519737321837
C            1.91661069073360        3.96119198540962       -1.15728439299978
C            1.31395554194898        5.18783955192742       -1.49307102024958
N            0.81972413631597        6.18972919874306       -1.76653543822724
C            3.32277479985516        3.84650586742843       -1.14777297254457
C            3.88951217871785        2.65051913491942       -0.81240329615226
C            3.09950497550600        1.53254681375869       -0.47802805210660
C            3.74225487090091        0.31079278403289       -0.12429514047350
N            5.06634677888414        0.20932712441959       -0.11562907380166
C            5.68023192501872       -0.92834795426119        0.21591405012271
C            7.07040785148751       -1.05202511606914        0.22716929278102
C            7.67104601165389       -2.24724202214687        0.57447540579973
C            6.89957845273843       -3.34922415391828        0.92076803663423
C            5.51933984555743       -3.26263125434330        0.92215510648859
C            4.87987636474703       -2.07397785512262        0.57669795719918
N            3.54595689067274       -1.95565148493989        0.56771516942258
C            2.95374667896687       -0.82414092353005        0.23209162660085
C           -3.34879991682567       -1.12445603833517       -0.89911137411430
C           -2.62151537230303       -1.69378785167182       -1.95320102167784
C           -3.26520750230745       -2.28000967549300       -3.02046696876621
C           -4.65043062168589       -2.30405692582299       -3.06141472112805
C           -5.37133124172118       -1.72453049049767       -2.03337110559323
C           -4.75058173607284       -1.12527119726062       -0.94548646620096
H           -7.13522713339045       -1.13892586898581        1.53310344551436
H           -5.90018541754282       -2.35451857461208        1.20313052015600
H           -7.14576775822082       -2.00832517364688        0.00257014630162
H           -5.79834196254824        1.39010106552990       -0.92720604821683
H           -7.07735670290439        1.10212143865997        0.25296693029442
H           -7.08175848680833        0.23185926892197       -1.27709880195611
H           -6.42746740805530        0.80790960646317        2.34950362334815
H           -5.13001544897644        1.77304653856003        4.17598165001661
H           -2.65451108577458        1.61053216492149        4.14852286835691
H           -1.52906686013941        0.50879269694363        2.28093602951144
H           -1.19913705142589       -2.66386398989544        0.82924295587374
H            1.28620427504899       -2.74716838441520        0.84196307403454
H           -1.05487790582227        1.39365637201628       -0.44249459535888
H            0.05175380163674        3.00395723362871       -0.85378845694727
H            3.92948627216023        4.70243061427841       -1.40266692930501
H            4.96182206956425        2.52943955065041       -0.79232180595780
H            7.65925357445192       -0.18891897332836       -0.04376280658687
H            8.74809286414222       -2.32118292864323        0.57519163653677
H            7.37646832580769       -4.27921937030509        1.19065761975475
H            4.90722367657925       -4.11081864346534        1.18848267771303
H           -1.54340686510979       -1.67003055839431       -1.92993592305269
H           -2.68571661834005       -2.71550809958568       -3.82046678583571
H           -5.16510392559984       -2.76409554297324       -3.89107672365427
H           -6.44869646855009       -1.74120281858390       -2.08631934274540

          :  Hamiltonian                  GFN2-xTB          :
         :: gradient norm              0.000109323368 Eh/a0 ::
         :: HOMO-LUMO gap              0.689726506086 eV    ::
         :: SCC energy              -102.911185447444 Eh    ::
         :: -> dispersion             -0.090242891611 Eh    ::
         :: -> Gsolv                  -0.046908446286 Eh    ::
         :: repulsion energy           1.864865205216 Eh    ::

    * Orbital Energies and Occupations

         #    Occupation            Energy/Eh            Energy/eV
      -------------------------------------------------------------
         1        2.0000           -0.6843750             -18.6228
       ...           ...                  ...                  ...
        83        2.0000           -0.4258762             -11.5887
        84        2.0000           -0.4205406             -11.4435
        85        2.0000           -0.4202140             -11.4346
        86        2.0000           -0.4169180             -11.3449
        87        2.0000           -0.4165374             -11.3346
        88        2.0000           -0.4105699             -11.1722
        89        2.0000           -0.4071953             -11.0803
        90        2.0000           -0.4047010             -11.0125
        91        2.0000           -0.3991940             -10.8626
        92        2.0000           -0.3919622             -10.6658
        93        1.7688           -0.3615193              -9.8374
        94        1.2312           -0.3592363              -9.7753
        95        1.0000           -0.3093488              -8.4178 (HOMO)
        96        0.0000           -0.2840020              -7.7281 (LUMO)
        97                         -0.2648851              -7.2079
        98                         -0.2467670              -6.7149
        99                         -0.2386067              -6.4928
       100                         -0.2312284              -6.2920
       101                         -0.2304318              -6.2704
       102                         -0.2238222              -6.0905
       103                         -0.2129120              -5.7936
       104                         -0.2091644              -5.6917
       105                         -0.2062807              -5.6132
       106                         -0.2025096              -5.5106
       ...                                ...                  ...
       184                          1.1592699              31.5453
      -------------------------------------------------------------
                  HL-Gap            0.0253468 Eh            0.6897 eV

     #   Z          covCN         q      C6AA      α(0)
     1   6 C        3.761    -0.107    22.585     6.775
     2   6 C        3.909     0.023    20.123     6.376
     3   6 C        3.761    -0.106    22.581     6.774
     4   6 C        2.978    -0.005    28.133     8.700
     5   6 C        2.926    -0.034    28.836     8.806
     6   6 C        2.917    -0.035    28.880     8.813
     7   6 C        2.918    -0.029    28.735     8.790
     8   6 C        2.923    -0.052    29.289     8.875
     9   6 C        2.928     0.059    26.668     8.469
    10   7 N        2.755    -0.036    21.929     6.955
    11   6 C        2.926     0.061    26.624     8.462
    12   6 C        2.917    -0.040    28.999     8.831
    13   6 C        2.924    -0.026    28.663     8.780
    14   6 C        2.987    -0.008    28.218     8.714
    15   6 C        2.976     0.003    27.960     8.674
    16   6 C        2.922    -0.043    29.067     8.841
    17   6 C        2.975     0.000    28.018     8.682
    18   6 C        2.929    -0.025    28.620     8.773
    19   6 C        2.970     0.008    27.848     8.656
    20   6 C        1.913     0.115    28.263     8.586
    21   7 N        0.911    -0.287    27.402     7.571
    22   6 C        2.920    -0.027    28.670     8.781
    23   6 C        2.922    -0.027    28.675     8.781
    24   6 C        2.985    -0.007    28.185     8.709
    25   6 C        2.941     0.078    26.249     8.403
    26   7 N        1.849    -0.243    27.184     7.727
    27   6 C        2.941     0.088    26.045     8.370
    28   6 C        2.918    -0.058    29.431     8.896
    29   6 C        2.916    -0.034    28.858     8.809
    30   6 C        2.916    -0.037    28.909     8.817
    31   6 C        2.918    -0.056    29.390     8.890
    32   6 C        2.943     0.085    26.114     8.381
    33   7 N        1.849    -0.237    27.061     7.710
    34   6 C        2.942     0.084    26.129     8.384
    35   6 C        2.929     0.060    26.665     8.468
    36   6 C        2.923    -0.052    29.281     8.874
    37   6 C        2.918    -0.029    28.734     8.790
    38   6 C        2.917    -0.035    28.880     8.812
    39   6 C        2.926    -0.034    28.836     8.806
    40   6 C        2.978    -0.005    28.132     8.700
    41   1 H        0.925     0.049     2.334     2.389
    42   1 H        0.925     0.036     2.509     2.477
    43   1 H        0.925     0.049     2.331     2.387
    44   1 H        0.925     0.035     2.523     2.484
    45   1 H        0.925     0.049     2.333     2.389
    46   1 H        0.925     0.049     2.333     2.389
    47   1 H        0.926     0.046     2.372     2.409
    48   1 H        0.926     0.039     2.463     2.454
    49   1 H        0.926     0.037     2.484     2.465
    50   1 H        0.926     0.035     2.521     2.483
    51   1 H        0.926     0.052     2.291     2.367
    52   1 H        0.926     0.059     2.212     2.326
    53   1 H        0.926     0.049     2.332     2.388
    54   1 H        0.926     0.044     2.392     2.419
    55   1 H        0.926     0.040     2.451     2.448
    56   1 H        0.926     0.052     2.298     2.371
    57   1 H        0.926     0.045     2.387     2.416
    58   1 H        0.926     0.040     2.449     2.447
    59   1 H        0.926     0.040     2.447     2.446
    60   1 H        0.926     0.047     2.359     2.402
    61   1 H        0.926     0.035     2.513     2.479
    62   1 H        0.926     0.038     2.478     2.462
    63   1 H        0.926     0.039     2.461     2.453
    64   1 H        0.926     0.046     2.373     2.409

molecular dipole:
                 x           y           z       tot (Debye)
 q only:       -3.003      -2.102       0.594
   full:       -2.639      -2.430       0.686       9.283

 projected vibrational frequencies (cm⁻¹)
eigval :       -0.00    -0.00     0.00     0.00     0.00     0.00
eigval :       13.27    19.26    19.82    35.55    45.70    56.69
eigval :       81.18    83.12    84.61    94.16    97.56   112.79
eigval :      121.98   131.03   146.56   174.79   180.73   195.94
eigval :      196.80   218.92   232.67   239.69   247.53   280.19
eigval :      286.22   302.22   318.95   328.18   332.53   342.24
eigval :      367.02   370.92   374.38   382.03   400.02   409.10
eigval :      414.72   432.02   447.92   448.33   451.32   479.08
eigval :      486.22   507.82   508.40   511.87   533.95   535.66
eigval :      541.23   544.93   568.38   574.07   577.57   586.27
eigval :      587.10   623.06   629.24   630.58   636.47   652.85
eigval :      682.06   685.69   687.34   691.32   699.72   708.36
eigval :      721.74   751.19   755.32   774.96   776.79   813.95
eigval :      815.75   818.85   820.91   829.23   848.50   852.91
eigval :      865.02   868.03   868.81   872.76   874.98   902.15
eigval :      912.02   913.95   914.99   915.59   917.71   924.70
eigval :      925.00   936.92   941.35   957.29   983.21  1011.80
eigval :     1036.70  1060.96  1069.50  1074.10  1085.74  1107.32
eigval :     1113.26  1126.38  1137.68  1139.59  1144.23  1149.88
eigval :     1164.22  1165.89  1182.07  1183.50  1188.07  1189.23
eigval :     1220.29  1223.27  1232.51  1238.24  1243.22  1247.15
eigval :     1257.55  1262.04  1275.25  1291.44  1292.15  1292.85
eigval :     1301.36  1317.28  1321.20  1327.10  1332.79  1337.66
eigval :     1349.93  1356.49  1394.42  1397.71  1408.23  1415.92
eigval :     1417.10  1423.82  1426.61  1430.77  1454.41  1457.50
eigval :     1467.02  1473.22  1479.08  1482.23  1483.04  1492.54
eigval :     1495.34  1497.33  1524.59  1531.31  1551.20  1556.86
eigval :     1562.52  1568.85  1575.75  1579.42  1590.90  2335.04
eigval :     3024.86  3027.67  3046.32  3048.29  3053.65  3057.40
eigval :     3079.54  3081.95  3082.40  3083.22  3086.54  3088.85
eigval :     3089.27  3089.46  3092.55  3097.22  3097.87  3098.96
eigval :     3099.34  3099.66  3103.24  3106.19  3106.58  3109.49

   temp. (K)  partition function   enthalpy   heat capacity  entropy
                                   cal/mol     cal/K/mol   cal/K/mol   J/K/mol
 298.15  VIB  0.128E+14            18279.176    118.811    111.486
         ROT  0.485E+08              888.752      2.981     38.152
         INT  0.621E+21            19167.929    121.792    149.638
         TR   0.112E+29             1481.254      4.968     44.569
         TOT                       20649.1827   126.7605   194.2071   812.5623

       T/K    H(0)-H(T)+PV         H(T)/Eh          T*S/Eh         G(T)/Eh
   ------------------------------------------------------------------------
    298.15    0.329066E-01    0.518010E+00    0.922740E-01    0.425736E+00
   ------------------------------------------------------------------------

         :::::::::::::::::::::::::::::::::::::::::::::::::::::
         ::                  THERMODYNAMIC                  ::
         :::::::::::::::::::::::::::::::::::::::::::::::::::::
         :: total free energy        -100.620584676484 Eh   ::
         ::.................................................::
         :: total energy             -101.046320241537 Eh   ::
         :: zero point energy           0.485103039497 Eh   ::
         :: G(RRHO) w/o ZPVE           -0.059367474444 Eh   ::
         :: G(RRHO) contrib.            0.425735565053 Eh   ::
         :::::::::::::::::::::::::::::::::::::::::::::::::::::

           -------------------------------------------------
          | TOTAL ENERGY             -101.046320241537 Eh   |
          | TOTAL ENTHALPY           -100.528310634769 Eh   |
          | TOTAL FREE ENERGY        -100.620584676484 Eh   |
          | GRADIENT NORM               0.000110307230 Eh/α |
          | HOMO-LUMO GAP               0.689721055684 eV   |
           -------------------------------------------------

 * finished run on 2025/07/20 at 00:31:10.200
