   * xtb version 6.7.1 (edcfbbe) compiled by 'albert@albert-system' on 2024-07-22

   ID    Z sym.   atoms
    1    6 C      1-9, 11-20, 22-25, 27-32, 34-40
    2    7 N      10, 21, 26, 33
    3    1 H      41-64

          program call               : xtb data2507/toluene/3-ACBPmCN/3-ACBPmCN_toluene_T1_crest.xyz --gfn 2 --uhf 2 --gbsa toluene --ohess vtight --parallel 40 --molden --ceasefiles --namespace data2507/toluene/3-ACBPmCN/3-ACBPmCN_toluene_T1_finalOpt
      * Solvation model:               GBSA
        Solvent                        toluene
        Solvent mass                       9.2140E+01 g/mol
          :  Hamiltonian                  GFN2-xTB          :
 * total energy  :  -101.0460579 Eh     change       -0.7094309E-07 Eh
 * total energy  :  -101.0461378 Eh     change       -0.7999518E-04 Eh
 * total energy  :  -101.0461679 Eh     change       -0.3000381E-04 Eh
 * total energy  :  -101.0461622 Eh     change        0.5622541E-05 Eh
 * total energy  :  -101.0461765 Eh     change       -0.1430251E-04 Eh
 * total energy  :  -101.0461776 Eh     change       -0.1068133E-05 Eh
 * total energy  :  -101.0461787 Eh     change       -0.1066884E-05 Eh
 * total energy  :  -101.0461802 Eh     change       -0.1557308E-05 Eh
 * total energy  :  -101.0461825 Eh     change       -0.2230251E-05 Eh
 * total energy  :  -101.0461849 Eh     change       -0.2399714E-05 Eh
 * total energy  :  -101.0463799 Eh     change       -0.9779710E-06 Eh
 * total energy  :  -101.0463809 Eh     change       -0.9560390E-06 Eh
 * total energy  :  -101.0463816 Eh     change       -0.7500060E-06 Eh
 * total energy  :  -101.0463822 Eh     change       -0.5475755E-06 Eh
 * total energy  :  -101.0463826 Eh     change       -0.4492830E-06 Eh
 * total energy  :  -101.0463830 Eh     change       -0.4000096E-06 Eh
 * total energy  :  -101.0463835 Eh     change       -0.5085536E-06 Eh
 * total energy  :  -101.0463840 Eh     change       -0.5145121E-06 Eh
 * total energy  :  -101.0463841 Eh     change       -0.6308923E-08 Eh
   *** GEOMETRY OPTIMIZATION CONVERGED AFTER 68 ITERATIONS ***

 final structure:
================
64
 xtb: 6.7.1 (edcfbbe)
C           -6.50367112151680       -1.71697179484870        0.32606350401724
C           -5.59089432820241       -0.49621089539482        0.09685429376111
C           -6.44281891405522        0.76456961862941       -0.14803304946468
C           -4.74946052637991       -0.27754645286861        1.33752804828591
C           -5.36897335968619       -0.01742495040766        2.55262314746189
C           -4.64708924627876        0.19616232666168        3.71279309070338
C           -3.26225116536413        0.15168509170943        3.67296802220959
C           -2.61945895382994       -0.10577105037045        2.48237165348050
C           -3.34798981675518       -0.32474909934849        1.30547823033716
N           -2.67504196216587       -0.57973911745174        0.12657540074813
C           -1.25055111080061       -0.63351736456556        0.14451604529362
C           -0.60682445861050       -1.83999615690969        0.45092270387537
C            0.76204003140464       -1.88091896116538        0.46244193201853
C            1.52487331791818       -0.73789574892655        0.17217815920054
C            0.88135802967513        0.48472969567429       -0.13586059639573
C           -0.52100175855121        0.49990567458149       -0.14020270898205
C            1.67709949886768        1.65230484304704       -0.43134347340352
C            1.11425997730424        2.89299871359333       -0.73803253720759
C            1.90654174373039        3.99649653215758       -1.02026289160983
C            1.30164906253200        5.23048372436273       -1.32353305221376
N            0.80655458258116        6.23879811369271       -1.57042009731419
C            3.31310228852373        3.88720143850967       -1.00444736266378
C            3.88243816751774        2.68304348297009       -0.70474582894545
C            3.09474357381236        1.55144930727130       -0.41365224591170
C            3.74026509573668        0.31923052212834       -0.10412293522794
N            5.06476049420742        0.22434079105788       -0.08580770739384
C            5.68136034071534       -0.92337264957770        0.20349240976106
C            7.07202813532360       -1.03978898282505        0.22559121851999
C            7.67574317384038       -2.24501143338942        0.53022424832604
C            6.90689763212921       -3.36501935805469        0.81992563996784
C            5.52622251628123       -3.28662993951806        0.80681397396882
C            4.88373447191663       -2.08792974361688        0.50438400692636
N            3.54922198307132       -1.97745975957060        0.48126596870651
C            2.95443045526143       -0.83441409310298        0.19259498651994
C           -3.33720990350294       -0.79406305504691       -1.06650778478403
C           -2.59891049580373       -1.05727268144692       -2.22818846765700
C           -3.23092597055518       -1.27355220455958       -3.43266227866776
C           -4.61465022561327       -1.23145793748269       -3.50204412220692
C           -5.34645469203001       -0.97691608544970       -2.35648236327734
C           -4.73806883220513       -0.75617391924908       -1.12800089545133
H           -7.13123525715456       -1.57021381621924        1.20012484649878
H           -5.89996678165768       -2.60942940925005        0.48110157160905
H           -7.14780017942458       -1.88289471776550       -0.53238600350296
H           -7.06152960979768        0.64675960036227       -1.03267824576027
H           -5.79650960253877        1.62853359421461       -0.29238185974230
H           -7.09377291339469        0.96085631484624        0.69871232038152
H           -6.44596793858566        0.02254160144818        2.60116296136133
H           -5.16083247249756        0.39707730541380        4.64046994426654
H           -2.68275013488160        0.31841667834910        4.56845968093675
H           -1.54155876599067       -0.13841034915162        2.45386089507518
H           -1.19448251360535       -2.71754043214679        0.67240804594490
H            1.29188463552255       -2.79236342187238        0.69268857664191
H           -1.06040342030282        1.40479765947544       -0.37046697748929
H            0.04362745148180        3.02259270544846       -0.76154373107742
H            3.91790888867094        4.75332309453027       -1.22745198627880
H            4.95504712972048        2.56503663718386       -0.68237356765677
H            7.65861156444663       -0.16259108266390       -0.00146977965294
H            8.75313860353430       -2.31264139807142        0.54202381639099
H            7.38625615977248       -4.30271476729594        1.05677056635947
H            4.91612815996531       -4.14874529632341        1.02958421957418
H           -1.52192681982353       -1.09229977847934       -2.17687488664711
H           -2.64398619959146       -1.47470080484029       -4.31615419445247
H           -5.12000004011950       -1.39818013733413       -4.44103345526936
H           -6.42265083198560       -0.95218661044684       -2.42751821983684

          :  Hamiltonian                  GFN2-xTB          :
         :: gradient norm              0.000069919997 Eh/a0 ::
         :: HOMO-LUMO gap              0.689246913632 eV    ::
         :: SCC energy              -102.911376541755 Eh    ::
         :: -> dispersion             -0.090174582584 Eh    ::
         :: -> Gsolv                  -0.046931650390 Eh    ::
         :: repulsion energy           1.864992489867 Eh    ::

    * Orbital Energies and Occupations

         #    Occupation            Energy/Eh            Energy/eV
      -------------------------------------------------------------
         1        2.0000           -0.6844094             -18.6237
       ...           ...                  ...                  ...
        83        2.0000           -0.4259293             -11.5901
        84        2.0000           -0.4205404             -11.4435
        85        2.0000           -0.4202750             -11.4363
        86        2.0000           -0.4168199             -11.3422
        87        2.0000           -0.4165694             -11.3354
        88        2.0000           -0.4106210             -11.1736
        89        2.0000           -0.4074275             -11.0867
        90        2.0000           -0.4047569             -11.0140
        91        2.0000           -0.3991852             -10.8624
        92        2.0000           -0.3919827             -10.6664
        93        1.7668           -0.3615137              -9.8373
        94        1.2332           -0.3592517              -9.7757
        95        1.0000           -0.3093892              -8.4189 (HOMO)
        96        0.0000           -0.2840599              -7.7297 (LUMO)
        97                         -0.2650305              -7.2118
        98                         -0.2467634              -6.7148
        99                         -0.2385667              -6.4917
       100                         -0.2312072              -6.2915
       101                         -0.2304611              -6.2712
       102                         -0.2237283              -6.0880
       103                         -0.2129006              -5.7933
       104                         -0.2092027              -5.6927
       105                         -0.2053367              -5.5875
       106                         -0.2037215              -5.5435
       ...                                ...                  ...
       184                          1.1593507              31.5475
      -------------------------------------------------------------
                  HL-Gap            0.0253292 Eh            0.6892 eV

     #   Z          covCN         q      C6AA      α(0)
     1   6 C        3.761    -0.107    22.583     6.774
     2   6 C        3.909     0.023    20.123     6.376
     3   6 C        3.761    -0.106    22.581     6.774
     4   6 C        2.978    -0.005    28.135     8.701
     5   6 C        2.926    -0.034    28.835     8.806
     6   6 C        2.917    -0.035    28.881     8.813
     7   6 C        2.918    -0.029    28.732     8.790
     8   6 C        2.923    -0.052    29.282     8.874
     9   6 C        2.929     0.060    26.662     8.468
    10   7 N        2.755    -0.036    21.937     6.956
    11   6 C        2.927     0.062    26.622     8.461
    12   6 C        2.916    -0.040    28.999     8.831
    13   6 C        2.924    -0.026    28.660     8.779
    14   6 C        2.986    -0.008    28.216     8.713
    15   6 C        2.976     0.003    27.958     8.673
    16   6 C        2.922    -0.043    29.062     8.841
    17   6 C        2.975     0.000    28.017     8.682
    18   6 C        2.929    -0.025    28.619     8.773
    19   6 C        2.970     0.008    27.847     8.656
    20   6 C        1.913     0.115    28.263     8.586
    21   7 N        0.911    -0.287    27.400     7.571
    22   6 C        2.920    -0.027    28.669     8.780
    23   6 C        2.922    -0.027    28.674     8.781
    24   6 C        2.985    -0.007    28.185     8.709
    25   6 C        2.941     0.078    26.248     8.403
    26   7 N        1.849    -0.243    27.186     7.728
    27   6 C        2.941     0.088    26.045     8.370
    28   6 C        2.918    -0.058    29.430     8.896
    29   6 C        2.916    -0.034    28.858     8.809
    30   6 C        2.916    -0.037    28.909     8.817
    31   6 C        2.918    -0.056    29.390     8.890
    32   6 C        2.943     0.085    26.114     8.381
    33   7 N        1.849    -0.238    27.064     7.710
    34   6 C        2.942     0.084    26.130     8.384
    35   6 C        2.929     0.060    26.663     8.468
    36   6 C        2.923    -0.052    29.284     8.874
    37   6 C        2.918    -0.029    28.733     8.790
    38   6 C        2.917    -0.035    28.881     8.813
    39   6 C        2.926    -0.034    28.835     8.806
    40   6 C        2.978    -0.005    28.135     8.701
    41   1 H        0.925     0.049     2.333     2.388
    42   1 H        0.925     0.036     2.509     2.477
    43   1 H        0.925     0.049     2.332     2.388
    44   1 H        0.925     0.049     2.334     2.389
    45   1 H        0.925     0.035     2.523     2.484
    46   1 H        0.925     0.049     2.332     2.388
    47   1 H        0.926     0.046     2.373     2.409
    48   1 H        0.926     0.039     2.462     2.453
    49   1 H        0.926     0.038     2.481     2.463
    50   1 H        0.926     0.035     2.522     2.483
    51   1 H        0.926     0.052     2.292     2.368
    52   1 H        0.926     0.059     2.210     2.325
    53   1 H        0.926     0.049     2.334     2.389
    54   1 H        0.926     0.044     2.392     2.419
    55   1 H        0.926     0.040     2.450     2.448
    56   1 H        0.926     0.052     2.297     2.370
    57   1 H        0.926     0.045     2.387     2.416
    58   1 H        0.926     0.040     2.449     2.447
    59   1 H        0.926     0.040     2.447     2.446
    60   1 H        0.926     0.047     2.359     2.402
    61   1 H        0.926     0.034     2.525     2.485
    62   1 H        0.926     0.037     2.482     2.464
    63   1 H        0.926     0.039     2.462     2.454
    64   1 H        0.926     0.046     2.373     2.409

molecular dipole:
                 x           y           z       tot (Debye)
 q only:       -2.996      -2.116       0.526
   full:       -2.631      -2.448       0.607       9.263

 projected vibrational frequencies (cm⁻¹)
eigval :       -0.00    -0.00    -0.00     0.00     0.00     0.00
eigval :       13.26    20.91    22.55    38.56    45.93    58.61
eigval :       82.10    83.61    87.39    95.17    98.23   111.66
eigval :      120.67   145.98   150.02   175.50   180.45   197.55
eigval :      207.32   220.07   232.74   241.15   246.10   281.19
eigval :      286.36   305.54   318.63   327.52   333.04   341.24
eigval :      366.97   370.77   374.34   382.81   400.29   408.98
eigval :      414.50   433.25   447.83   448.35   450.18   479.12
eigval :      486.28   505.97   509.57   513.19   534.08   535.64
eigval :      540.37   543.58   568.46   574.12   578.06   586.45
eigval :      586.89   623.08   629.51   630.29   637.47   652.88
eigval :      682.99   686.07   686.36   692.08   699.12   708.55
eigval :      723.10   751.35   759.15   773.36   775.09   814.13
eigval :      818.23   820.02   823.40   828.51   848.64   852.52
eigval :      865.27   868.17   868.55   870.11   878.70   905.42
eigval :      914.27   914.70   914.79   915.14   916.13   921.91
eigval :      922.64   936.66   941.50   957.34   983.12  1013.09
eigval :     1036.39  1061.06  1070.07  1074.50  1086.08  1106.56
eigval :     1112.80  1126.62  1137.75  1140.35  1144.36  1149.74
eigval :     1164.01  1165.94  1181.70  1183.59  1187.15  1188.93
eigval :     1220.68  1223.49  1232.01  1238.05  1242.92  1247.28
eigval :     1257.59  1261.86  1275.46  1291.20  1292.10  1293.36
eigval :     1302.36  1318.58  1321.37  1327.89  1333.04  1337.68
eigval :     1349.53  1356.56  1394.46  1397.28  1408.18  1415.72
eigval :     1417.27  1423.92  1426.85  1430.51  1454.56  1457.40
eigval :     1467.29  1473.66  1479.37  1483.39  1485.48  1493.74
eigval :     1495.73  1499.33  1524.92  1531.42  1551.33  1556.65
eigval :     1562.83  1569.03  1576.00  1579.34  1590.96  2335.22
eigval :     3025.75  3027.88  3046.66  3048.57  3054.05  3057.88
eigval :     3079.66  3081.53  3082.05  3083.03  3086.61  3088.58
eigval :     3089.19  3089.52  3091.82  3097.36  3097.96  3098.86
eigval :     3099.14  3099.62  3102.70  3104.88  3105.31  3109.28

   temp. (K)  partition function   enthalpy   heat capacity  entropy
                                   cal/mol     cal/K/mol   cal/K/mol   J/K/mol
 298.15  VIB  0.786E+13            18223.129    118.890    110.822
         ROT  0.485E+08              888.752      2.981     38.151
         INT  0.382E+21            19111.882    121.871    148.973
         TR   0.112E+29             1481.254      4.968     44.569
         TOT                       20593.1355   126.8390   193.5419   809.7795

       T/K    H(0)-H(T)+PV         H(T)/Eh          T*S/Eh         G(T)/Eh
   ------------------------------------------------------------------------
    298.15    0.328173E-01    0.518073E+00    0.919580E-01    0.426115E+00
   ------------------------------------------------------------------------

         :::::::::::::::::::::::::::::::::::::::::::::::::::::
         ::                  THERMODYNAMIC                  ::
         :::::::::::::::::::::::::::::::::::::::::::::::::::::
         :: total free energy        -100.620268582801 Eh   ::
         ::.................................................::
         :: total energy             -101.046384050271 Eh   ::
         :: zero point energy           0.485256242475 Eh   ::
         :: G(RRHO) w/o ZPVE           -0.059140775005 Eh   ::
         :: G(RRHO) contrib.            0.426115467470 Eh   ::
         :::::::::::::::::::::::::::::::::::::::::::::::::::::

           -------------------------------------------------
          | TOTAL ENERGY             -101.046384050271 Eh   |
          | TOTAL ENTHALPY           -100.528310557539 Eh   |
          | TOTAL FREE ENERGY        -100.620268582801 Eh   |
          | GRADIENT NORM               0.000072014056 Eh/α |
          | HOMO-LUMO GAP               0.689243441386 eV   |
           -------------------------------------------------

 * finished run on 2025/07/20 at 00:35:09.555
