   * xtb version 6.7.1 (edcfbbe) compiled by 'albert@albert-system' on 2024-07-22

   ID    Z sym.   atoms
    1    6 C      1-9, 11-20, 22-25, 27-32, 34-40
    2    7 N      10, 21, 26, 33
    3    1 H      41-64

          program call               : xtb data2507/toluene/3-ACBPmCN/3-ACBPmCN.xyz --gfn 2 --gbsa toluene --ohess vtight --parallel 40 --molden --ceasefiles --namespace data2507/toluene/3-ACBPmCN/3-ACBPmCN_toluene_S0_preOpt
      * Solvation model:               GBSA
        Solvent                        toluene
        Solvent mass                       9.2140E+01 g/mol
          :  Hamiltonian                  GFN2-xTB          :
 * total energy  :  -101.0671493 Eh     change       -0.2333763E-08 Eh
 * total energy  :  -101.0853678 Eh     change       -0.1821845E-01 Eh
 * total energy  :  -101.0904607 Eh     change       -0.5092911E-02 Eh
 * total energy  :  -101.0911439 Eh     change       -0.6832144E-03 Eh
 * total energy  :  -101.0914331 Eh     change       -0.2892099E-03 Eh
 * total energy  :  -101.0911299 Eh     change        0.3031712E-03 Eh
 * total energy  :  -101.0915702 Eh     change       -0.4403230E-03 Eh
 * total energy  :  -101.0915870 Eh     change       -0.1674619E-04 Eh
 * total energy  :  -101.0915986 Eh     change       -0.1161449E-04 Eh
 * total energy  :  -101.0915950 Eh     change        0.3594309E-05 Eh
 * total energy  :  -101.0916087 Eh     change       -0.1424432E-05 Eh
 * total energy  :  -101.0916096 Eh     change       -0.9014124E-06 Eh
 * total energy  :  -101.0916104 Eh     change       -0.8093223E-06 Eh
 * total energy  :  -101.0916114 Eh     change       -0.1056053E-05 Eh
 * total energy  :  -101.0916125 Eh     change       -0.1100169E-05 Eh
 * total energy  :  -101.0916133 Eh     change       -0.7731843E-06 Eh
 * total energy  :  -101.0916138 Eh     change       -0.4652867E-06 Eh
 * total energy  :  -101.0916141 Eh     change       -0.3170071E-06 Eh
 * total energy  :  -101.0916141 Eh     change       -0.1592184E-08 Eh
   *** GEOMETRY OPTIMIZATION CONVERGED AFTER 22 ITERATIONS ***

 final structure:
================
64
 xtb: 6.7.1 (edcfbbe)
C           -5.97656960131911       -1.60680197010661        0.00005523646326
C           -5.06306481000115       -0.36635832708818       -0.00000777640066
C           -5.91217670268811        0.91870814406621       -0.00008293711987
C           -4.21339019889740       -0.39014436559441        1.25744540424879
C           -4.83002574005493       -0.36674514976534        2.50107329041920
C           -4.10849868592456       -0.39199229767558        3.68085260867230
C           -2.72720963356230       -0.44363853827400        3.62786510973855
C           -2.08807925806175       -0.46701291289345        2.40564410775523
C           -2.81602228118298       -0.44039505331598        1.21246916393818
N           -2.14409963211192       -0.46420114320283        0.00001922554514
C           -0.72220749012544       -0.51230999386717        0.00002881124885
C           -0.06478783388145       -1.74353951643059        0.00004840770121
C            1.30944216870836       -1.77133838298235        0.00006162833802
C            2.05198554291003       -0.58625886136124        0.00004246665363
C            1.39920672575245        0.66284342570139        0.00000216612236
C            0.00085986943801        0.66661150060371        0.00000584738792
C            2.18188716307059        1.89253769274531       -0.00004239250565
C            1.58590860090591        3.15588695289046       -0.00009103619665
C            2.35630897192762        4.31160635879622       -0.00015578906400
C            1.71732083633635        5.57239468485363       -0.00017455097512
N            1.19792482827413        6.59578053249247       -0.00027243305599
C            3.75582062767021        4.23904106052682       -0.00014985205772
C            4.35500653333053        3.00424269843940       -0.00009847230699
C            3.59116385454996        1.83122416264830       -0.00004993425470
C            4.26398525764678        0.54976692726569       -0.00000874224847
N            5.58406831907353        0.52196008879047       -0.00003741941567
C            6.19089778918385       -0.67327872690835        0.00001868017429
C            7.60098497826883       -0.74925289959236       -0.00003296716268
C            8.21332131583044       -1.96965496255769        0.00002765416786
C            7.45710141176084       -3.15908138877733        0.00016424543086
C            6.09202275310734       -3.12294305710072        0.00022212962473
C            5.42410622605515       -1.87879027972174        0.00013445362838
N            4.08409023130057       -1.83720215578988        0.00014594513266
C            3.49736681223659       -0.65416687174515        0.00006138148184
C           -2.81600447510233       -0.44052469114085       -1.21244332490725
C           -2.08804293404783       -0.46726080411030       -2.40560439474031
C           -2.72715448048921       -0.44402409097574       -3.62783777885861
C           -4.10844318609378       -0.39239764544668       -3.68085191822834
C           -4.82998844372266       -0.36702425971248       -2.50108630579770
C           -4.21337191544877       -0.39028273802717       -1.25744621133150
H           -6.61292781932671       -1.61891154908557        0.88060432480390
H           -5.37285240963074       -2.51301731267961        0.00010457052451
H           -6.61292339777980       -1.61900351860008       -0.88049551872393
H           -6.54758492141593        0.96372249550120        0.87999192956570
H           -6.54754453104372        0.96364877532423       -0.88019075057975
H           -5.26360959638060        1.79331494982638       -0.00010478370969
H           -5.90735617771639       -0.32839771639135        2.55786455232231
H           -4.62148354933226       -0.37278508303272        4.63076305761440
H           -2.14335269201626       -0.46555296253188        4.53651934076766
H           -1.00992781236335       -0.50784877527249        2.37142653814596
H           -0.64120982189683       -2.65608741054056        0.00005191628022
H            1.84973445351695       -2.70475879435770        0.00007902207571
H           -0.55306551836471        1.59148834309968       -0.00001211436309
H            0.51318931333674        3.26326079457297       -0.00008346401861
H            4.34190265445471        5.14541056170948       -0.00017137674090
H            5.42901571273847        2.90566981629622       -0.00012257790474
H            8.16112524179950        0.17313033980279       -0.00013675290749
H            9.29120230755979       -2.03374515450834       -0.00002539320501
H            7.97310779823550       -4.10767755082802        0.00022130758327
H            5.49482074691009       -4.02175658043140        0.00032347926981
H           -1.00989157002878       -0.50807835921000       -2.37136677260556
H           -2.14328267778350       -0.46602485745075       -4.53648042378351
H           -4.62141306767353       -0.37329334238893       -4.63077251951307
H           -5.90731818042132       -0.32868725447879       -2.55789831814357

          :  Hamiltonian                  GFN2-xTB          :
         :: gradient norm              0.000132599025 Eh/a0 ::
         :: HOMO-LUMO gap              0.824098706568 eV    ::
         :: SCC energy              -102.955047009389 Eh    ::
         :: -> dispersion             -0.090349386719 Eh    ::
         :: -> Gsolv                  -0.044177527520 Eh    ::
         :: repulsion energy           1.863432920218 Eh    ::

    * Orbital Energies and Occupations

         #    Occupation            Energy/Eh            Energy/eV
      -------------------------------------------------------------
         1        2.0000           -0.6882796             -18.7290
       ...           ...                  ...                  ...
        82        2.0000           -0.4309723             -11.7274
        83        2.0000           -0.4264242             -11.6036
        84        2.0000           -0.4253639             -11.5747
        85        2.0000           -0.4169315             -11.3453
        86        2.0000           -0.4117367             -11.2039
        87        2.0000           -0.4075136             -11.0890
        88        2.0000           -0.4074116             -11.0862
        89        2.0000           -0.4042678             -11.0007
        90        2.0000           -0.4037076             -10.9854
        91        2.0000           -0.3983033             -10.8384
        92        2.0000           -0.3929641             -10.6931
        93        2.0000           -0.3643614              -9.9148
        94        2.0000           -0.3474035              -9.4533 (HOMO)
        95        0.0000           -0.3171184              -8.6292 (LUMO)
        96                         -0.2915516              -7.9335
        97                         -0.2730281              -7.4295
        98                         -0.2561331              -6.9697
        99                         -0.2327251              -6.3328
       100                         -0.2248443              -6.1183
       101                         -0.2244253              -6.1069
       102                         -0.2195907              -5.9754
       103                         -0.2191908              -5.9645
       104                         -0.2187746              -5.9532
       105                         -0.2163746              -5.8879
       ...                                ...                  ...
       184                          1.1531090              31.3777
      -------------------------------------------------------------
                  HL-Gap            0.0302851 Eh            0.8241 eV

     #   Z          covCN         q      C6AA      α(0)
     1   6 C        3.761    -0.103    22.521     6.765
     2   6 C        3.908     0.021    20.163     6.383
     3   6 C        3.761    -0.103    22.521     6.765
     4   6 C        2.979    -0.014    28.355     8.735
     5   6 C        2.928    -0.037    28.926     8.820
     6   6 C        2.917    -0.046    29.149     8.853
     7   6 C        2.919    -0.035    28.865     8.810
     8   6 C        2.924    -0.060    29.504     8.908
     9   6 C        2.928     0.058    26.699     8.474
    10   7 N        2.755    -0.075    22.700     7.076
    11   6 C        2.925     0.076    26.307     8.411
    12   6 C        2.918    -0.035    28.863     8.810
    13   6 C        2.923    -0.026    28.640     8.776
    14   6 C        2.987    -0.004    28.127     8.700
    15   6 C        2.976     0.008    27.834     8.654
    16   6 C        2.925    -0.042    29.049     8.839
    17   6 C        2.975     0.012    27.747     8.640
    18   6 C        2.931    -0.023    28.574     8.766
    19   6 C        2.972     0.021    27.533     8.607
    20   6 C        1.913     0.120    28.156     8.569
    21   7 N        0.911    -0.259    26.726     7.477
    22   6 C        2.922    -0.018    28.467     8.750
    23   6 C        2.923    -0.023    28.583     8.767
    24   6 C        2.987     0.003    27.945     8.671
    25   6 C        2.960     0.083    26.153     8.388
    26   7 N        1.848    -0.251    27.385     7.756
    27   6 C        2.966     0.083    26.144     8.387
    28   6 C        2.916    -0.041    29.023     8.834
    29   6 C        2.916    -0.024    28.604     8.770
    30   6 C        2.916    -0.024    28.594     8.769
    31   6 C        2.916    -0.041    29.028     8.835
    32   6 C        2.965     0.084    26.126     8.384
    33   7 N        1.848    -0.252    27.408     7.759
    34   6 C        2.959     0.085    26.106     8.381
    35   6 C        2.928     0.058    26.699     8.474
    36   6 C        2.924    -0.060    29.504     8.908
    37   6 C        2.919    -0.035    28.865     8.810
    38   6 C        2.917    -0.046    29.149     8.853
    39   6 C        2.928    -0.037    28.926     8.820
    40   6 C        2.979    -0.014    28.355     8.735
    41   1 H        0.925     0.042     2.427     2.436
    42   1 H        0.925     0.030     2.584     2.514
    43   1 H        0.925     0.042     2.427     2.436
    44   1 H        0.925     0.042     2.427     2.436
    45   1 H        0.925     0.042     2.427     2.436
    46   1 H        0.925     0.029     2.594     2.519
    47   1 H        0.926     0.033     2.546     2.495
    48   1 H        0.926     0.026     2.647     2.544
    49   1 H        0.926     0.026     2.642     2.542
    50   1 H        0.926     0.021     2.712     2.575
    51   1 H        0.926     0.055     2.255     2.348
    52   1 H        0.926     0.069     2.098     2.265
    53   1 H        0.926     0.052     2.289     2.366
    54   1 H        0.926     0.054     2.269     2.356
    55   1 H        0.926     0.054     2.270     2.356
    56   1 H        0.926     0.070     2.081     2.256
    57   1 H        0.926     0.057     2.230     2.335
    58   1 H        0.926     0.055     2.260     2.351
    59   1 H        0.926     0.055     2.258     2.350
    60   1 H        0.926     0.058     2.227     2.333
    61   1 H        0.926     0.021     2.712     2.575
    62   1 H        0.926     0.026     2.642     2.542
    63   1 H        0.926     0.026     2.647     2.544
    64   1 H        0.926     0.033     2.546     2.495

molecular dipole:
                 x           y           z       tot (Debye)
 q only:        0.846      -1.536       0.000
   full:        1.105      -1.891       0.000       5.565

 projected vibrational frequencies (cm⁻¹)
eigval :       -0.00    -0.00     0.00     0.00     0.00     0.00
eigval :       -8.13    10.21    20.15    30.27    43.22    49.52
eigval :       71.52    81.74    86.17    95.29    97.27   112.33
eigval :      115.23   131.04   147.25   168.74   182.83   192.80
eigval :      204.44   219.91   231.13   238.73   240.97   287.72
eigval :      287.85   303.90   318.26   329.64   337.82   344.16
eigval :      362.19   372.16   374.76   381.78   394.76   408.83
eigval :      416.49   433.15   442.66   448.87   449.07   483.92
eigval :      484.00   494.31   513.89   515.94   538.09   539.38
eigval :      541.55   546.39   572.46   577.12   583.70   591.89
eigval :      592.31   630.04   633.29   645.58   653.00   667.81
eigval :      681.15   692.28   694.46   697.77   714.48   735.21
eigval :      757.70   766.82   769.43   776.60   777.63   819.28
eigval :      820.35   828.95   831.06   855.80   858.21   865.29
eigval :      865.94   873.61   876.62   876.62   911.89   912.65
eigval :      916.09   916.39   920.93   920.95   922.14   926.04
eigval :      930.20   938.48   957.57   961.39   987.92  1011.37
eigval :     1045.85  1053.01  1062.48  1075.60  1088.11  1111.53
eigval :     1118.15  1136.92  1138.69  1141.25  1144.90  1158.39
eigval :     1165.61  1168.42  1185.20  1185.79  1186.60  1191.48
eigval :     1217.97  1224.15  1235.76  1242.69  1248.11  1257.43
eigval :     1265.86  1276.96  1289.56  1292.97  1308.69  1311.93
eigval :     1315.22  1323.86  1332.85  1337.34  1338.47  1340.92
eigval :     1369.75  1392.55  1399.96  1400.88  1418.72  1426.22
eigval :     1435.56  1439.91  1440.37  1451.50  1477.37  1477.69
eigval :     1486.67  1487.03  1487.27  1495.10  1496.92  1501.33
eigval :     1502.19  1525.99  1546.10  1549.75  1573.27  1573.96
eigval :     1585.85  1590.18  1590.36  1600.51  1603.82  2363.63
eigval :     3020.74  3023.25  3038.53  3040.51  3047.03  3051.04
eigval :     3071.39  3071.46  3079.01  3079.12  3082.27  3088.72
eigval :     3088.75  3088.77  3094.82  3094.90  3095.20  3096.30
eigval :     3097.87  3102.03  3105.69  3111.04  3112.22  3115.85

   temp. (K)  partition function   enthalpy   heat capacity  entropy
                                   cal/mol     cal/K/mol   cal/K/mol   J/K/mol
 298.15  VIB  0.558E+14            18237.630    117.524    112.438
         ROT  0.483E+08              888.752      2.981     38.142
         INT  0.270E+22            19126.382    120.504    150.580
         TR   0.112E+29             1481.254      4.968     44.569
         TOT                       20607.6364   125.4726   195.1498   816.5066

       T/K    H(0)-H(T)+PV         H(T)/Eh          T*S/Eh         G(T)/Eh
   ------------------------------------------------------------------------
    298.15    0.328404E-01    0.520260E+00    0.927220E-01    0.427538E+00
   ------------------------------------------------------------------------

         :::::::::::::::::::::::::::::::::::::::::::::::::::::
         ::                  THERMODYNAMIC                  ::
         :::::::::::::::::::::::::::::::::::::::::::::::::::::
         :: total free energy        -100.664076016941 Eh   ::
         ::.................................................::
         :: total energy             -101.091614087628 Eh   ::
         :: zero point energy           0.487419665838 Eh   ::
         :: G(RRHO) w/o ZPVE           -0.059881595151 Eh   ::
         :: G(RRHO) contrib.            0.427538070686 Eh   ::
         :::::::::::::::::::::::::::::::::::::::::::::::::::::

           -------------------------------------------------
          | TOTAL ENERGY             -101.091614087628 Eh   |
          | TOTAL ENTHALPY           -100.571354062820 Eh   |
          | TOTAL FREE ENERGY        -100.664076016941 Eh   |
          | GRADIENT NORM               0.000132623231 Eh/α |
          | HOMO-LUMO GAP               0.824098533519 eV   |
           -------------------------------------------------

 * finished run on 2025/07/20 at 00:28:08.330
