   * xtb version 6.7.1 (edcfbbe) compiled by 'albert@albert-system' on 2024-07-22

   ID    Z sym.   atoms
    1    6 C      1-9, 11-20, 22-25, 27-32, 34-40
    2    7 N      10, 21, 26, 33
    3    1 H      41-64

          program call               : xtb data2507/toluene/3-ACBPmCN/3-ACBPmCN_toluene_S0_crest.xyz --gfn 2 --gbsa toluene --ohess vtight --parallel 40 --molden --ceasefiles --namespace data2507/toluene/3-ACBPmCN/3-ACBPmCN_toluene_S0_finalOpt
      * Solvation model:               GBSA
        Solvent                        toluene
        Solvent mass                       9.2140E+01 g/mol
          :  Hamiltonian                  GFN2-xTB          :
 * total energy  :  -101.0917462 Eh     change       -0.1516327E-08 Eh
 * total energy  :  -101.0917738 Eh     change       -0.2759629E-04 Eh
 * total energy  :  -101.0917773 Eh     change       -0.3427171E-05 Eh
 * total energy  :  -101.0917809 Eh     change       -0.3686239E-05 Eh
 * total energy  :  -101.0917872 Eh     change       -0.6263024E-05 Eh
 * total energy  :  -101.0917904 Eh     change       -0.3234874E-05 Eh
 * total energy  :  -101.0917970 Eh     change       -0.6556117E-05 Eh
 * total energy  :  -101.0918063 Eh     change       -0.9313779E-05 Eh
 * total energy  :  -101.0918150 Eh     change       -0.8679232E-05 Eh
 * total energy  :  -101.0918222 Eh     change       -0.7210011E-05 Eh
 * total energy  :  -101.0918589 Eh     change       -0.1352889E-06 Eh
 * total energy  :  -101.0918591 Eh     change       -0.1805909E-06 Eh
 * total energy  :  -101.0918593 Eh     change       -0.2819762E-06 Eh
 * total energy  :  -101.0918596 Eh     change       -0.2652806E-06 Eh
 * total energy  :  -101.0918598 Eh     change       -0.1832628E-06 Eh
 * total energy  :  -101.0918599 Eh     change       -0.1445090E-06 Eh
 * total energy  :  -101.0918601 Eh     change       -0.1574945E-06 Eh
 * total energy  :  -101.0918602 Eh     change       -0.1496799E-06 Eh
 * total energy  :  -101.0918603 Eh     change       -0.7493583E-07 Eh
   *** GEOMETRY OPTIMIZATION CONVERGED AFTER 39 ITERATIONS ***

 final structure:
================
64
 xtb: 6.7.1 (edcfbbe)
C           -6.49908131114386       -1.53202865915671        0.79643813543749
C           -5.58810457614986       -0.48394474843356        0.12971654471795
C           -6.43844376838921        0.61058298399505       -0.54253191068366
C           -4.72415157532034        0.15657186360682        1.19998101091958
C           -5.33128523190748        0.82715892894568        2.25358850625950
C           -4.60214565138411        1.40656846192198        3.27560767840865
C           -3.22279076799105        1.30418139785156        3.26198310324529
C           -2.59371607751656        0.64454221644723        2.22670855888676
C           -3.32724593855773        0.08048904251661        1.17829050567307
N           -2.66575304613248       -0.57050856092539        0.14504583552563
C           -1.24900703392549       -0.63834372153383        0.16361334840450
C           -0.61107458984049       -1.84011630662953        0.47944847844095
C            0.76166548710479       -1.89138395291404        0.49091093533111
C            1.52629145893440       -0.75770616301974        0.19602856334363
C            0.89477940437801        0.46317903119577       -0.11653349897062
C           -0.50266114964181        0.48956779734170       -0.13039542804191
C            1.69926557604781        1.64083868536979       -0.41765884211432
C            1.12601304996256        2.87963224673684       -0.71423499885733
C            1.91658185923064        3.98475127065092       -1.00235193454095
C            1.30072272483175        5.22218540419451       -1.29771055364567
N            0.80164592047479        6.22750774197434       -1.53712702491052
C            3.31437887148650        3.88425597040419       -1.00298055111702
C            3.89138948735225        2.67460192464353       -0.70696522845291
C            3.10715181157344        1.55308261089118       -0.41267230028279
C            3.75740707421163        0.29888947448318       -0.09771357822874
N            5.07658751638328        0.24557551017570       -0.09973660724312
C            5.66215149171865       -0.92340607809730        0.19749248691091
C            7.07045347827933       -1.02585512958118        0.20553634341470
C            7.66095693636334       -2.21912905030541        0.50896658729639
C            6.88371723559724       -3.35421251279539        0.81508088146026
C            5.51964593166793       -3.29116387533059        0.81666901090767
C            4.87406365437778       -2.07396475341439        0.50750581523026
N            3.53507610783914       -2.00734891098208        0.50524742405967
C            2.96924422547235       -0.85077093027494        0.21032409159671
C           -3.35446609154548       -1.17634061913862       -0.89766769868458
C           -2.64293283447582       -1.77526692394133       -1.94179406573356
C           -3.29786412448907       -2.39251343453165       -2.98705202320589
C           -4.68064622335907       -2.41582158777014       -3.01506226480868
C           -5.38636637464005       -1.79963726091681       -1.99810172126781
C           -4.75275070951453       -1.16920580434594       -0.93531268772095
H           -7.12551320385591       -1.07403117302165        1.55677580909643
H           -5.89344487767651       -2.30338955835380        1.26958875865843
H           -7.14556463336514       -2.00553371571770        0.06283053972242
H           -5.78990554535998        1.34980762652540       -1.01002921623495
H           -7.06537889216876        1.11676727932735        0.18613719992696
H           -7.08191604346044        0.18671538822211       -1.30834149453178
H           -6.40772133393792        0.90084342056542        2.28428191909352
H           -5.10725043478361        1.92293166838945        4.07807864020205
H           -2.63213430979691        1.73383452894905        4.05786363053867
H           -1.51799243701957        0.55842860365410        2.23458743012347
H           -1.20307982837484       -2.71334253821712        0.70787639784740
H            1.28441230336186       -2.80373903834586        0.73068098057879
H           -1.03909495021750        1.39348753685570       -0.37062959544198
H            0.05552397811788        3.00718500184121       -0.72356373805829
H            3.91643999654863        4.75057711196254       -1.23108214119465
H            4.96338433180212        2.55686671331662       -0.69259929632368
H            7.64725797232675       -0.14516773088534       -0.03165744725716
H            8.73741599487174       -2.30349876738891        0.51666472081925
H            7.38248073867031       -4.28259772658227        1.05051080328517
H            4.90664692311893       -4.14859167711347        1.04802577775105
H           -1.56401288829747       -1.75211919584225       -1.93610923703791
H           -2.72463928216862       -2.85098722949110       -3.77955116854785
H           -5.20614469671293       -2.89927586586297       -3.82489485822588
H           -6.46490360868257       -1.81162259649099       -2.04012908615636

          :  Hamiltonian                  GFN2-xTB          :
         :: gradient norm              0.000022849916 Eh/a0 ::
         :: HOMO-LUMO gap              0.874862573191 eV    ::
         :: SCC energy              -102.955045309575 Eh    ::
         :: -> dispersion             -0.090490929972 Eh    ::
         :: -> Gsolv                  -0.044210345198 Eh    ::
         :: repulsion energy           1.863184990981 Eh    ::

    * Orbital Energies and Occupations

         #    Occupation            Energy/Eh            Energy/eV
      -------------------------------------------------------------
         1        2.0000           -0.6873934             -18.7049
       ...           ...                  ...                  ...
        82        2.0000           -0.4304767             -11.7139
        83        2.0000           -0.4266003             -11.6084
        84        2.0000           -0.4246653             -11.5557
        85        2.0000           -0.4162885             -11.3278
        86        2.0000           -0.4119992             -11.2111
        87        2.0000           -0.4083659             -11.1122
        88        2.0000           -0.4064811             -11.0609
        89        2.0000           -0.4044817             -11.0065
        90        2.0000           -0.4036438             -10.9837
        91        2.0000           -0.3987703             -10.8511
        92        2.0000           -0.3934390             -10.7060
        93        2.0000           -0.3635965              -9.8940
        94        2.0000           -0.3485218              -9.4838 (HOMO)
        95                         -0.3163712              -8.6089 (LUMO)
        96                         -0.2908388              -7.9141
        97                         -0.2721576              -7.4058
        98                         -0.2555203              -6.9531
        99                         -0.2321181              -6.3163
       100                         -0.2254757              -6.1355
       101                         -0.2239935              -6.0952
       102                         -0.2203980              -5.9973
       103                         -0.2193238              -5.9681
       104                         -0.2189104              -5.9569
       105                         -0.2158022              -5.8723
       ...                                ...                  ...
       184                          1.1534766              31.3877
      -------------------------------------------------------------
                  HL-Gap            0.0321506 Eh            0.8749 eV

     #   Z          covCN         q      C6AA      α(0)
     1   6 C        3.761    -0.104    22.526     6.766
     2   6 C        3.909     0.021    20.162     6.382
     3   6 C        3.761    -0.104    22.525     6.766
     4   6 C        2.979    -0.013    28.338     8.732
     5   6 C        2.928    -0.037    28.923     8.820
     6   6 C        2.917    -0.046    29.132     8.851
     7   6 C        2.919    -0.035    28.863     8.810
     8   6 C        2.924    -0.060    29.500     8.907
     9   6 C        2.926     0.058    26.710     8.476
    10   7 N        2.754    -0.072    22.634     7.066
    11   6 C        2.925     0.075    26.334     8.416
    12   6 C        2.918    -0.035    28.883     8.813
    13   6 C        2.923    -0.026    28.652     8.778
    14   6 C        2.987    -0.006    28.155     8.704
    15   6 C        2.976     0.007    27.849     8.656
    16   6 C        2.925    -0.043    29.075     8.843
    17   6 C        2.975     0.012    27.751     8.641
    18   6 C        2.931    -0.023    28.579     8.767
    19   6 C        2.972     0.021    27.539     8.608
    20   6 C        1.913     0.120    28.157     8.570
    21   7 N        0.911    -0.260    26.739     7.479
    22   6 C        2.922    -0.019    28.473     8.750
    23   6 C        2.923    -0.023    28.587     8.768
    24   6 C        2.987     0.003    27.951     8.672
    25   6 C        2.960     0.083    26.152     8.388
    26   7 N        1.848    -0.252    27.412     7.760
    27   6 C        2.965     0.083    26.149     8.388
    28   6 C        2.916    -0.041    29.029     8.835
    29   6 C        2.916    -0.024    28.615     8.772
    30   6 C        2.916    -0.024    28.601     8.770
    31   6 C        2.916    -0.042    29.036     8.836
    32   6 C        2.965     0.084    26.124     8.384
    33   7 N        1.848    -0.253    27.447     7.765
    34   6 C        2.959     0.085    26.106     8.381
    35   6 C        2.927     0.058    26.707     8.475
    36   6 C        2.924    -0.060    29.486     8.905
    37   6 C        2.919    -0.035    28.860     8.810
    38   6 C        2.917    -0.046    29.130     8.851
    39   6 C        2.928    -0.037    28.924     8.820
    40   6 C        2.979    -0.013    28.336     8.732
    41   1 H        0.925     0.042     2.424     2.435
    42   1 H        0.925     0.030     2.580     2.512
    43   1 H        0.925     0.042     2.420     2.433
    44   1 H        0.925     0.030     2.590     2.517
    45   1 H        0.925     0.042     2.422     2.434
    46   1 H        0.925     0.042     2.422     2.434
    47   1 H        0.926     0.034     2.534     2.489
    48   1 H        0.926     0.027     2.637     2.539
    49   1 H        0.926     0.027     2.635     2.539
    50   1 H        0.926     0.023     2.688     2.564
    51   1 H        0.926     0.055     2.264     2.353
    52   1 H        0.926     0.068     2.110     2.272
    53   1 H        0.926     0.052     2.293     2.368
    54   1 H        0.926     0.054     2.272     2.357
    55   1 H        0.926     0.054     2.276     2.359
    56   1 H        0.926     0.070     2.086     2.259
    57   1 H        0.926     0.057     2.236     2.339
    58   1 H        0.926     0.054     2.267     2.354
    59   1 H        0.926     0.054     2.265     2.353
    60   1 H        0.926     0.057     2.233     2.337
    61   1 H        0.926     0.024     2.679     2.560
    62   1 H        0.926     0.027     2.627     2.535
    63   1 H        0.926     0.027     2.634     2.538
    64   1 H        0.926     0.034     2.535     2.490

molecular dipole:
                 x           y           z       tot (Debye)
 q only:        0.610      -1.518       0.357
   full:        0.867      -1.865       0.445       5.348

 projected vibrational frequencies (cm⁻¹)
eigval :       -0.00    -0.00    -0.00     0.00     0.00     0.00
eigval :       13.50    17.20    21.09    36.12    44.15    54.94
eigval :       79.65    83.86    86.16    95.87    99.02   113.55
eigval :      119.72   136.67   146.79   172.65   182.64   197.53
eigval :      208.24   220.90   233.01   238.51   247.17   287.51
eigval :      290.44   304.97   317.88   331.96   339.68   344.74
eigval :      363.25   371.65   377.34   381.59   397.60   409.62
eigval :      417.05   435.18   445.10   448.98   452.30   484.08
eigval :      486.06   495.41   515.69   518.52   537.68   539.13
eigval :      544.02   547.74   572.44   576.76   584.19   592.34
eigval :      592.87   629.54   633.27   646.15   652.59   670.12
eigval :      683.51   694.38   695.18   697.74   714.26   737.13
eigval :      757.29   767.98   770.96   778.47   779.67   820.13
eigval :      821.85   830.73   833.77   855.40   860.46   865.95
eigval :      866.44   876.22   876.80   877.58   913.59   914.47
eigval :      915.71   916.35   923.42   923.92   924.31   929.26
eigval :      930.97   937.52   956.58   961.34   988.05  1013.27
eigval :     1045.32  1051.58  1062.68  1075.78  1086.95  1112.72
eigval :     1118.42  1139.68  1139.98  1141.08  1145.30  1157.89
eigval :     1164.71  1169.27  1184.77  1186.82  1187.35  1191.90
eigval :     1216.79  1223.72  1235.51  1242.43  1248.03  1257.35
eigval :     1265.93  1276.72  1289.55  1293.61  1308.12  1313.24
eigval :     1314.57  1323.60  1331.95  1334.33  1337.18  1341.79
eigval :     1369.93  1393.31  1399.29  1400.69  1417.98  1426.55
eigval :     1435.14  1438.77  1440.24  1451.88  1476.00  1477.96
eigval :     1486.82  1486.91  1487.59  1493.87  1496.67  1499.72
eigval :     1502.77  1525.79  1545.83  1548.80  1572.32  1574.03
eigval :     1584.80  1589.83  1590.48  1600.28  1603.66  2363.82
eigval :     3020.96  3023.56  3039.41  3041.49  3048.00  3052.16
eigval :     3072.23  3072.61  3079.29  3079.98  3082.08  3088.69
eigval :     3090.32  3090.55  3094.44  3094.60  3096.99  3097.48
eigval :     3098.13  3101.85  3104.26  3111.64  3111.91  3114.63

   temp. (K)  partition function   enthalpy   heat capacity  entropy
                                   cal/mol     cal/K/mol   cal/K/mol   J/K/mol
 298.15  VIB  0.113E+14            18127.379    117.656    110.617
         ROT  0.484E+08              888.752      2.981     38.145
         INT  0.545E+21            19016.131    120.637    148.762
         TR   0.112E+29             1481.254      4.968     44.569
         TOT                       20497.3854   125.6049   193.3317   808.8998

       T/K    H(0)-H(T)+PV         H(T)/Eh          T*S/Eh         G(T)/Eh
   ------------------------------------------------------------------------
    298.15    0.326647E-01    0.520422E+00    0.918581E-01    0.428564E+00
   ------------------------------------------------------------------------

         :::::::::::::::::::::::::::::::::::::::::::::::::::::
         ::                  THERMODYNAMIC                  ::
         :::::::::::::::::::::::::::::::::::::::::::::::::::::
         :: total free energy        -100.663296625125 Eh   ::
         ::.................................................::
         :: total energy             -101.091860318769 Eh   ::
         :: zero point energy           0.487757153406 Eh   ::
         :: G(RRHO) w/o ZPVE           -0.059193459762 Eh   ::
         :: G(RRHO) contrib.            0.428563693644 Eh   ::
         :::::::::::::::::::::::::::::::::::::::::::::::::::::

           -------------------------------------------------
          | TOTAL ENERGY             -101.091860318769 Eh   |
          | TOTAL ENTHALPY           -100.571438502595 Eh   |
          | TOTAL FREE ENERGY        -100.663296625125 Eh   |
          | GRADIENT NORM               0.000022890463 Eh/α |
          | HOMO-LUMO GAP               0.874862676469 eV   |
           -------------------------------------------------

 * finished run on 2025/07/20 at 00:31:05.426
