   * xtb version 6.7.1 (edcfbbe) compiled by 'albert@albert-system' on 2024-07-22

   ID    Z sym.   atoms
    1    8 O      1, 3, 27
    2   16 S      2
    3    6 C      4-9, 11-19, 21-26, 28-36
    4    7 N      10, 20
    5    1 H      37-56

          program call               : xtb data2507/toluene/PXZ2PTO/PXZ2PTO.xyz --gfn 2 --gbsa toluene --ohess vtight --parallel 40 --molden --ceasefiles --namespace data2507/toluene/PXZ2PTO/PXZ2PTO_toluene_S0_preOpt
      * Solvation model:               GBSA
        Solvent                        toluene
        Solvent mass                       9.2140E+01 g/mol
          :  Hamiltonian                  GFN2-xTB          :
 * total energy  :   -95.7677429 Eh     change       -0.2580407E-09 Eh
 * total energy  :   -95.7807778 Eh     change       -0.1303490E-01 Eh
 * total energy  :   -95.7867919 Eh     change       -0.6014117E-02 Eh
 * total energy  :   -95.7882588 Eh     change       -0.1466939E-02 Eh
 * total energy  :   -95.7889765 Eh     change       -0.7176414E-03 Eh
 * total energy  :   -95.7891786 Eh     change       -0.2020760E-03 Eh
 * total energy  :   -95.7892237 Eh     change       -0.4518129E-04 Eh
 * total energy  :   -95.7892429 Eh     change       -0.1918685E-04 Eh
 * total energy  :   -95.7892535 Eh     change       -0.1056162E-04 Eh
 * total energy  :   -95.7892716 Eh     change       -0.1809965E-04 Eh
 * total energy  :   -95.7903452 Eh     change       -0.7757885E-06 Eh
 * total energy  :   -95.7903458 Eh     change       -0.6861154E-06 Eh
 * total energy  :   -95.7903466 Eh     change       -0.7115159E-06 Eh
 * total energy  :   -95.7903475 Eh     change       -0.9187125E-06 Eh
 * total energy  :   -95.7903486 Eh     change       -0.1075244E-05 Eh
 * total energy  :   -95.7903497 Eh     change       -0.1133833E-05 Eh
 * total energy  :   -95.7903508 Eh     change       -0.1152547E-05 Eh
 * total energy  :   -95.7903522 Eh     change       -0.1371818E-05 Eh
 * total energy  :   -95.7903522 Eh     change       -0.1362551E-07 Eh
   *** GEOMETRY OPTIMIZATION CONVERGED AFTER 68 ITERATIONS ***

 final structure:
================
56
 xtb: 6.7.1 (edcfbbe)
O            3.25470024430225        3.90737517864726       -0.20907560553910
S            3.06883422726552        2.73109155244085       -1.03403590149949
O            3.24805753029451        2.93687554245872       -2.45768336454187
C            4.16063635570404        1.44136810268592       -0.49202182000602
C            5.51603958828341        1.71771422505964       -0.53909294093650
C            6.43984403138991        0.76070886720561       -0.16998035440675
C            5.97826163380737       -0.48349266426776        0.23989662747167
C            4.62883007432951       -0.75958970382033        0.29064192090402
C            3.67241647290197        0.20557987813443       -0.07077531326068
N            2.32431914306837       -0.10122205107263        0.00698699491049
C            1.97574190624490       -1.42646911359022        0.44146939199347
C            1.76670051344876       -2.42494304312068       -0.50007667197312
C            1.41798242183165       -3.69768932306655       -0.08056667753030
C            1.28268521228580       -3.97158766286071        1.27083825994561
C            1.49472371735758       -2.97288942250331        2.20774739397622
C            1.83992771069425       -1.69653541216108        1.79687162700869
C            1.28077341451876        0.75537801192015       -0.28006426399410
C           -0.04141561543288        0.32113440744362       -0.09379022809549
C           -1.12173144630991        1.14030657528489       -0.38151835440765
N           -2.42913824505653        0.64690927556718       -0.19952581600203
C           -2.88756098759091       -0.45118942311346       -0.93636500782863
C           -2.10796876437048       -1.08247900510805       -1.89784097131241
C           -2.59454880892497       -2.16945734993046       -2.60849864609583
C           -3.87306079772657       -2.63721102924738       -2.38067521132311
C           -4.67742466372613       -1.99660658273144       -1.44961820870641
C           -4.19668666460142       -0.91090902540071       -0.74040733959854
O           -5.06784357536659       -0.31013548473847        0.13770923880738
C           -4.59946976839714        0.76196392253069        0.86019242526294
C           -5.47653324268250        1.33964806405382        1.75991360315057
C           -5.06886623240758        2.40518059215351        2.54922983112492
C           -3.77391511823655        2.87176928749327        2.44404879333230
C           -2.89150758421284        2.29644134326359        1.54174461096165
C           -3.29411017812549        1.25121907589187        0.71937081803152
C           -0.91927059885044        2.44030981997404       -0.85066510174092
C            0.37439332988190        2.88396505097108       -1.02082633994221
C            1.45201314077070        2.05982909995311       -0.74577430293746
H            5.81107508742920        2.70050188660198       -0.87393601889199
H            7.49561627401096        0.97518588001286       -0.20488030205936
H            6.68167869510501       -1.25071140100912        0.52530914433848
H            4.30325481326355       -1.73522541660588        0.61247145090143
H            1.87728182818160       -2.19901940810147       -1.54992363529465
H            1.25240549465385       -4.47464177029676       -0.81099108956064
H            1.01121708727122       -4.96478867358740        1.59461555062913
H            1.38980063227115       -3.18512156966295        3.26079020191756
H            2.00556064575190       -0.90844030753555        2.51599311939653
H           -0.23621713996175       -0.67095062534836        0.28070557134069
H           -1.11575218850542       -0.71387894898248       -2.10199470200636
H           -1.96370395345097       -2.64145049265707       -3.34582669231180
H           -4.25632922425371       -3.48473308779982       -2.92665698669738
H           -5.68932024967320       -2.32019711183386       -1.26267528011394
H           -6.47488502778210        0.93716484320430        1.83015355259943
H           -5.76118898523213        2.85217690316555        3.24508726810193
H           -3.43472072299992        3.68672363405914        3.06486145012641
H           -1.87890996251129        2.66253703836084        1.48016759143359
H           -1.76060143132859        3.07450833466271       -1.07893220934468
H            0.58790495140233        3.87799271694613       -1.38211907968078

          :  Hamiltonian                  GFN2-xTB          :
         :: gradient norm              0.000075773144 Eh/a0 ::
         :: HOMO-LUMO gap              2.300301405812 eV    ::
         :: SCC energy               -97.353906238138 Eh    ::
         :: -> dispersion             -0.081872737475 Eh    ::
         :: -> Gsolv                  -0.047728409382 Eh    ::
         :: repulsion energy           1.563554013514 Eh    ::

    * Orbital Energies and Occupations

         #    Occupation            Energy/Eh            Energy/eV
      -------------------------------------------------------------
         1        2.0000           -0.7769018             -21.1406
       ...           ...                  ...                  ...
        75        2.0000           -0.4369695             -11.8905
        76        2.0000           -0.4363330             -11.8732
        77        2.0000           -0.4292037             -11.6792
        78        2.0000           -0.4289231             -11.6716
        79        2.0000           -0.4271785             -11.6241
        80        2.0000           -0.4240877             -11.5400
        81        2.0000           -0.4224715             -11.4960
        82        2.0000           -0.4181031             -11.3772
        83        2.0000           -0.4154888             -11.3060
        84        2.0000           -0.4102554             -11.1636
        85        2.0000           -0.3931305             -10.6976
        86        2.0000           -0.3824074             -10.4058
        87        2.0000           -0.3473055              -9.4507 (HOMO)
        88                         -0.2627711              -7.1504 (LUMO)
        89                         -0.2598261              -7.0702
        90                         -0.2507311              -6.8227
        91                         -0.2455791              -6.6825
        92                         -0.2422205              -6.5912
        93                         -0.2408188              -6.5530
        94                         -0.2322424              -6.3196
        95                         -0.2227904              -6.0624
        96                         -0.2165265              -5.8920
        97                         -0.1984333              -5.3996
        98                         -0.1318277              -3.5872
       ...                                ...                  ...
       169                          1.1659900              31.7282
      -------------------------------------------------------------
                  HL-Gap            0.0845344 Eh            2.3003 eV

     #   Z          covCN         q      C6AA      α(0)
     1   8 O        0.860    -0.588    25.833     6.815
     2  16 S        3.855     0.949   108.117    17.500
     3   8 O        0.860    -0.591    25.887     6.822
     4   6 C        2.973    -0.096    30.410     9.046
     5   6 C        2.984    -0.020    28.488     8.755
     6   6 C        2.918    -0.032    28.808     8.802
     7   6 C        2.919    -0.022    28.551     8.762
     8   6 C        2.927    -0.049    29.217     8.864
     9   6 C        2.946     0.061    26.630     8.464
    10   7 N        2.750    -0.053    22.274     7.009
    11   6 C        2.935     0.058    26.689     8.473
    12   6 C        2.920    -0.036    28.902     8.816
    13   6 C        2.920    -0.024    28.593     8.769
    14   6 C        2.919    -0.026    28.647     8.777
    15   6 C        2.920    -0.024    28.604     8.770
    16   6 C        2.920    -0.037    28.919     8.819
    17   6 C        2.947     0.063    26.588     8.457
    18   6 C        2.931    -0.067    29.665     8.932
    19   6 C        2.919     0.073    26.362     8.420
    20   7 N        2.752    -0.067    22.544     7.052
    21   6 C        2.920     0.040    27.104     8.537
    22   6 C        2.924    -0.061    29.528     8.911
    23   6 C        2.919    -0.038    28.956     8.824
    24   6 C        2.919    -0.040    28.998     8.831
    25   6 C        2.920    -0.057    29.422     8.895
    26   6 C        2.883     0.124    25.286     8.244
    27   8 O        1.708    -0.268    18.449     5.799
    28   6 C        2.883     0.123    25.290     8.244
    29   6 C        2.919    -0.057    29.425     8.895
    30   6 C        2.919    -0.040    28.998     8.831
    31   6 C        2.919    -0.038    28.954     8.824
    32   6 C        2.924    -0.061    29.508     8.908
    33   6 C        2.921     0.041    27.089     8.535
    34   6 C        2.919    -0.047    29.174     8.857
    35   6 C        2.980    -0.019    28.486     8.755
    36   6 C        2.972    -0.102    30.561     9.068
    37   1 H        0.926     0.045     2.388     2.417
    38   1 H        0.926     0.060     2.196     2.317
    39   1 H        0.926     0.066     2.128     2.281
    40   1 H        0.926     0.065     2.144     2.290
    41   1 H        0.926     0.049     2.332     2.388
    42   1 H        0.926     0.054     2.268     2.355
    43   1 H        0.926     0.053     2.285     2.364
    44   1 H        0.926     0.053     2.277     2.360
    45   1 H        0.926     0.050     2.323     2.383
    46   1 H        0.926     0.066     2.126     2.280
    47   1 H        0.926     0.039     2.466     2.456
    48   1 H        0.926     0.044     2.392     2.419
    49   1 H        0.926     0.045     2.384     2.415
    50   1 H        0.926     0.050     2.316     2.380
    51   1 H        0.926     0.050     2.315     2.379
    52   1 H        0.926     0.044     2.396     2.420
    53   1 H        0.926     0.042     2.417     2.431
    54   1 H        0.926     0.039     2.464     2.455
    55   1 H        0.926     0.063     2.159     2.298
    56   1 H        0.926     0.051     2.304     2.374

molecular dipole:
                 x           y           z       tot (Debye)
 q only:       -0.243      -3.767       1.463
   full:       -0.110      -3.374       1.323       9.216

 projected vibrational frequencies (cm⁻¹)
eigval :       -0.00    -0.00    -0.00     0.00     0.00     0.00
eigval :       -1.11    13.28    20.10    24.26    26.47    40.85
eigval :       56.63    63.91    89.19    95.55   115.10   130.83
eigval :      140.00   163.28   193.72   202.04   225.16   229.90
eigval :      240.47   247.06   256.56   269.05   288.28   295.19
eigval :      343.69   370.08   374.14   374.63   390.19   396.12
eigval :      400.00   424.06   427.69   436.58   440.90   458.88
eigval :      475.60   480.09   504.92   509.23   516.16   518.67
eigval :      525.71   537.46   576.66   585.39   591.02   602.43
eigval :      616.98   625.68   652.68   658.43   659.40   666.54
eigval :      667.35   671.91   674.27   717.55   739.78   766.14
eigval :      773.46   775.71   780.49   806.30   820.61   853.57
eigval :      856.97   868.70   869.01   872.18   874.49   887.33
eigval :      897.17   898.34   902.25   903.80   908.64   908.84
eigval :      911.98   915.89   918.76   924.80   927.70   931.11
eigval :      989.02  1013.20  1034.59  1073.15  1075.45  1087.64
eigval :     1089.60  1090.85  1092.79  1105.78  1111.09  1117.67
eigval :     1150.51  1155.80  1164.44  1172.52  1173.22  1176.41
eigval :     1178.87  1180.31  1182.63  1192.29  1198.03  1216.37
eigval :     1228.97  1238.11  1242.65  1259.60  1268.55  1276.83
eigval :     1298.80  1303.28  1307.13  1314.74  1325.78  1330.13
eigval :     1336.67  1351.58  1409.03  1420.36  1424.89  1428.94
eigval :     1440.38  1456.54  1459.57  1469.63  1480.06  1501.22
eigval :     1545.56  1557.80  1566.22  1572.46  1578.98  1582.78
eigval :     1587.63  1588.22  1596.05  1601.39  3085.77  3087.80
eigval :     3088.15  3088.97  3092.42  3092.80  3094.00  3095.98
eigval :     3097.09  3097.63  3097.78  3104.51  3104.63  3106.77
eigval :     3109.25  3109.94  3111.45  3112.05  3117.25  3118.87

   temp. (K)  partition function   enthalpy   heat capacity  entropy
                                   cal/mol     cal/K/mol   cal/K/mol   J/K/mol
 298.15  VIB  0.620E+14            16306.661    103.749    102.537
         ROT  0.305E+08              888.752      2.981     37.228
         INT  0.189E+22            17195.414    106.730    139.766
         TR   0.104E+29             1481.254      4.968     44.426
         TOT                       18676.6676   111.6984   184.1918   770.6585

       T/K    H(0)-H(T)+PV         H(T)/Eh          T*S/Eh         G(T)/Eh
   ------------------------------------------------------------------------
    298.15    0.297632E-01    0.442519E+00    0.875155E-01    0.355004E+00
   ------------------------------------------------------------------------

         :::::::::::::::::::::::::::::::::::::::::::::::::::::
         ::                  THERMODYNAMIC                  ::
         :::::::::::::::::::::::::::::::::::::::::::::::::::::
         :: total free energy         -95.435348521071 Eh   ::
         ::.................................................::
         :: total energy              -95.790352227625 Eh   ::
         :: zero point energy           0.412756010482 Eh   ::
         :: G(RRHO) w/o ZPVE           -0.057752303928 Eh   ::
         :: G(RRHO) contrib.            0.355003706554 Eh   ::
         :::::::::::::::::::::::::::::::::::::::::::::::::::::

           -------------------------------------------------
          | TOTAL ENERGY              -95.790352227625 Eh   |
          | TOTAL ENTHALPY            -95.347833052785 Eh   |
          | TOTAL FREE ENERGY         -95.435348521071 Eh   |
          | GRADIENT NORM               0.000075732962 Eh/α |
          | HOMO-LUMO GAP               2.300298135975 eV   |
           -------------------------------------------------

 * finished run on 2025/08/29 at 19:52:54.525
