   * xtb version 6.7.1 (edcfbbe) compiled by 'albert@albert-system' on 2024-07-22

   ID    Z sym.   atoms
    1    8 O      1, 3, 27
    2   16 S      2
    3    6 C      4-9, 11-19, 21-26, 28-36
    4    7 N      10, 20
    5    1 H      37-56

          program call               : xtb data2507/toluene/PXZ2PTO/PXZ2PTO_toluene_S0_crest.xyz --gfn 2 --gbsa toluene --ohess vtight --parallel 40 --molden --ceasefiles --namespace data2507/toluene/PXZ2PTO/PXZ2PTO_toluene_S0_finalOpt
      * Solvation model:               GBSA
        Solvent                        toluene
        Solvent mass                       9.2140E+01 g/mol
          :  Hamiltonian                  GFN2-xTB          :
 * total energy  :   -95.7901797 Eh     change       -0.3879990E-09 Eh
 * total energy  :   -95.7902942 Eh     change       -0.1144460E-03 Eh
 * total energy  :   -95.7903648 Eh     change       -0.7061763E-04 Eh
 * total energy  :   -95.7903792 Eh     change       -0.1439096E-04 Eh
 * total energy  :   -95.7903935 Eh     change       -0.1436454E-04 Eh
 * total energy  :   -95.7904019 Eh     change       -0.8331091E-05 Eh
 * total energy  :   -95.7904107 Eh     change       -0.8789059E-05 Eh
 * total energy  :   -95.7904214 Eh     change       -0.1073990E-04 Eh
 * total energy  :   -95.7904323 Eh     change       -0.1090078E-04 Eh
 * total energy  :   -95.7904379 Eh     change       -0.5616640E-05 Eh
 * total energy  :   -95.7904477 Eh     change       -0.2610205E-05 Eh
 * total energy  :   -95.7904498 Eh     change       -0.2149998E-05 Eh
 * total energy  :   -95.7904511 Eh     change       -0.1240825E-05 Eh
 * total energy  :   -95.7904519 Eh     change       -0.8508265E-06 Eh
 * total energy  :   -95.7904527 Eh     change       -0.8120266E-06 Eh
 * total energy  :   -95.7904533 Eh     change       -0.5998559E-06 Eh
 * total energy  :   -95.7904537 Eh     change       -0.4169080E-06 Eh
 * total energy  :   -95.7904541 Eh     change       -0.3834755E-06 Eh
 * total energy  :   -95.7904541 Eh     change       -0.7825008E-08 Eh
   *** GEOMETRY OPTIMIZATION CONVERGED AFTER 22 ITERATIONS ***

 final structure:
================
56
 xtb: 6.7.1 (edcfbbe)
O            3.45847621513366        3.31623216398742       -0.57447704791791
S            3.18750600732833        1.95903418510626       -0.99769276891999
O            3.46755865321616        1.67005039407434       -2.39179456402117
C            4.08873099003967        0.80429334101903        0.00246956195955
C            5.42959453339868        1.06045686609638        0.22680633934884
C            6.21223753918352        0.14422477189937        0.90119453909615
C            5.62949059473827       -1.04190863040653        1.32855331439976
C            4.29096291299454       -1.29432455658293        1.11502985545885
C            3.47313905321420       -0.36257897365799        0.45401847467640
N            2.12136776909891       -0.61796444898975        0.29564659381102
C            1.64670440941234       -1.93360459409331        0.62409434836500
C            1.53860075333684       -2.87803473863926       -0.38662060507912
C            1.06170934288590       -4.14449682982744       -0.09239850453329
C            0.69835437596307       -4.46582864908879        1.20494217338807
C            0.81125309308812       -3.52139728087939        2.21292497489092
C            1.28379430387820       -2.25190452447294        1.92684776254781
C            1.17603282274406        0.30018063205944       -0.11791699808747
C           -0.18715217581919        0.00657672676979        0.03400841146060
C           -1.16988989144744        0.89992065379714       -0.36521814431044
N           -2.52433287624021        0.54634496690359       -0.21663721033569
C           -3.04171556304975       -0.58872129327579       -0.85370957652964
C           -2.27683366914536       -1.38833651412801       -1.69448891805070
C           -2.82188169316940       -2.50742868088231       -2.30561471678251
C           -4.14532498176844       -2.84128766671795       -2.09952439323098
C           -4.93384092148096       -2.03248115478078       -1.29478053482390
C           -4.39441429627738       -0.91379293923108       -0.68572925059367
O           -5.25293442674908       -0.14394907367446        0.06277265404773
C           -4.72776116382954        0.95954432386652        0.69231473017101
C           -5.59528038423515        1.70515790186977        1.46985888700046
C           -5.13517261522720        2.81247942869360        2.16704258615142
C           -3.79835111176558        3.15009195190067        2.09812195790835
C           -2.92561733145271        2.40581061286116        1.31850777158351
C           -3.37775329654284        1.31773603958610        0.58164247102181
C           -0.81924020277994        2.13881340399165       -0.90840232408546
C            0.51757711923674        2.44493901806630       -1.04717404792634
C            1.49579139850543        1.54223820585146       -0.66862293361114
H            5.82825780322357        1.99077417533408       -0.14797981861613
H            7.25702409077886        0.34165810003027        1.07847442423114
H            6.22764901968153       -1.78021731490993        1.84040616607523
H            3.86636829774939       -2.22231502593641        1.46169110572222
H            1.82632989922052       -2.61390974989220       -1.39337498193421
H            0.97457467188475       -4.87865520109866       -0.87854584826374
H            0.32549526852519       -5.45311628881386        1.43103407817120
H            0.52857725212955       -3.77082980999382        3.22435311221229
H            1.37227331111653       -1.50620668830132        2.70271647071985
H           -0.49123751217032       -0.93110061951057        0.47082650859663
H           -1.24811658081602       -1.12866724651350       -1.88463127143050
H           -2.19964245121422       -3.11060520072607       -2.94846310684605
H           -4.57404115996727       -3.71353559176225       -2.56704474928332
H           -5.97808081840846       -2.24774755774771       -1.13105850753832
H           -6.62822790784987        1.39818491092909        1.51926663788065
H           -5.81999454234231        3.39148117335803        2.76625138125808
H           -3.41887496628700        3.99464490416327        2.65247339541956
H           -1.88129964929911        2.67268079606092        1.28756176291163
H           -1.58331463445599        2.83117152310439       -1.22316569594958
H            0.84143483918435        3.38471137125709       -1.46660677348433

          :  Hamiltonian                  GFN2-xTB          :
         :: gradient norm              0.000067892980 Eh/a0 ::
         :: HOMO-LUMO gap              2.321940161521 eV    ::
         :: SCC energy               -97.354089213799 Eh    ::
         :: -> dispersion             -0.082153097771 Eh    ::
         :: -> Gsolv                  -0.047448880632 Eh    ::
         :: repulsion energy           1.563635077497 Eh    ::

    * Orbital Energies and Occupations

         #    Occupation            Energy/Eh            Energy/eV
      -------------------------------------------------------------
         1        2.0000           -0.7766994             -21.1351
       ...           ...                  ...                  ...
        75        2.0000           -0.4366645             -11.8822
        76        2.0000           -0.4361351             -11.8678
        77        2.0000           -0.4291482             -11.6777
        78        2.0000           -0.4285768             -11.6622
        79        2.0000           -0.4270475             -11.6206
        80        2.0000           -0.4236631             -11.5285
        81        2.0000           -0.4221792             -11.4881
        82        2.0000           -0.4183411             -11.3836
        83        2.0000           -0.4156802             -11.3112
        84        2.0000           -0.4097357             -11.1495
        85        2.0000           -0.3932473             -10.7008
        86        2.0000           -0.3817411             -10.3877
        87        2.0000           -0.3477164              -9.4618 (HOMO)
        88                         -0.2623867              -7.1399 (LUMO)
        89                         -0.2592570              -7.0547
        90                         -0.2502313              -6.8091
        91                         -0.2450447              -6.6680
        92                         -0.2419830              -6.5847
        93                         -0.2411200              -6.5612
        94                         -0.2324748              -6.3260
        95                         -0.2240121              -6.0957
        96                         -0.2167621              -5.8984
        97                         -0.1986208              -5.4047
        98                         -0.1339320              -3.6445
       ...                                ...                  ...
       169                          1.1674572              31.7681
      -------------------------------------------------------------
                  HL-Gap            0.0853297 Eh            2.3219 eV

     #   Z          covCN         q      C6AA      α(0)
     1   8 O        0.860    -0.584    25.727     6.801
     2  16 S        3.852     0.949   108.116    17.500
     3   8 O        0.860    -0.593    25.954     6.830
     4   6 C        2.973    -0.097    30.427     9.048
     5   6 C        2.976    -0.021    28.516     8.759
     6   6 C        2.918    -0.033    28.816     8.803
     7   6 C        2.919    -0.022    28.556     8.763
     8   6 C        2.926    -0.049    29.219     8.865
     9   6 C        2.952     0.062    26.620     8.462
    10   7 N        2.750    -0.057    22.337     7.019
    11   6 C        2.934     0.059    26.678     8.471
    12   6 C        2.921    -0.036    28.887     8.814
    13   6 C        2.920    -0.023    28.581     8.767
    14   6 C        2.919    -0.026    28.645     8.777
    15   6 C        2.920    -0.025    28.619     8.773
    16   6 C        2.920    -0.038    28.938     8.822
    17   6 C        2.954     0.063    26.586     8.457
    18   6 C        2.931    -0.067    29.673     8.933
    19   6 C        2.919     0.073    26.373     8.421
    20   7 N        2.751    -0.066    22.519     7.048
    21   6 C        2.920     0.040    27.109     8.538
    22   6 C        2.924    -0.061    29.523     8.910
    23   6 C        2.919    -0.038    28.956     8.824
    24   6 C        2.919    -0.040    28.990     8.829
    25   6 C        2.920    -0.057    29.420     8.895
    26   6 C        2.883     0.124    25.283     8.243
    27   8 O        1.708    -0.268    18.438     5.797
    28   6 C        2.883     0.124    25.286     8.244
    29   6 C        2.920    -0.057    29.422     8.895
    30   6 C        2.919    -0.040    28.991     8.830
    31   6 C        2.919    -0.038    28.953     8.824
    32   6 C        2.924    -0.061    29.507     8.908
    33   6 C        2.921     0.040    27.094     8.536
    34   6 C        2.920    -0.048    29.189     8.860
    35   6 C        2.972    -0.020    28.513     8.759
    36   6 C        2.972    -0.103    30.583     9.071
    37   1 H        0.926     0.046     2.366     2.405
    38   1 H        0.926     0.060     2.199     2.319
    39   1 H        0.926     0.066     2.133     2.284
    40   1 H        0.926     0.064     2.149     2.292
    41   1 H        0.926     0.046     2.373     2.409
    42   1 H        0.926     0.053     2.278     2.360
    43   1 H        0.926     0.053     2.285     2.364
    44   1 H        0.926     0.054     2.275     2.359
    45   1 H        0.926     0.052     2.295     2.369
    46   1 H        0.926     0.066     2.132     2.284
    47   1 H        0.926     0.039     2.464     2.455
    48   1 H        0.926     0.044     2.392     2.418
    49   1 H        0.926     0.045     2.379     2.412
    50   1 H        0.926     0.051     2.310     2.377
    51   1 H        0.926     0.051     2.312     2.378
    52   1 H        0.926     0.044     2.392     2.419
    53   1 H        0.926     0.043     2.410     2.428
    54   1 H        0.926     0.040     2.445     2.445
    55   1 H        0.926     0.064     2.157     2.297
    56   1 H        0.926     0.053     2.286     2.364

molecular dipole:
                 x           y           z       tot (Debye)
 q only:       -0.774      -3.248       2.104
   full:       -0.592      -2.920       1.908       8.993

 projected vibrational frequencies (cm⁻¹)
eigval :       -0.00    -0.00    -0.00    -0.00     0.00     0.00
eigval :       11.38    16.74    19.68    27.83    41.77    46.34
eigval :       58.19    67.41    89.30    95.20   116.37   131.24
eigval :      139.87   164.44   188.45   206.37   227.34   234.21
eigval :      240.10   249.04   258.25   271.06   288.31   298.38
eigval :      345.20   371.49   375.86   376.26   385.24   397.91
eigval :      403.22   424.00   429.20   437.51   439.62   458.63
eigval :      470.75   480.78   503.93   509.33   516.86   519.90
eigval :      527.46   536.76   576.53   586.09   590.92   602.66
eigval :      612.98   628.31   651.80   659.20   661.00   666.43
eigval :      669.65   671.78   676.30   718.12   739.61   767.83
eigval :      771.29   776.93   778.09   806.43   824.64   853.86
eigval :      857.05   863.78   866.38   875.35   880.35   887.51
eigval :      896.96   898.94   904.38   909.03   911.23   911.59
eigval :      915.08   915.62   917.28   919.84   932.50   935.24
eigval :      989.10  1012.92  1033.92  1072.72  1075.67  1086.98
eigval :     1089.40  1090.52  1091.12  1106.23  1111.74  1118.02
eigval :     1151.17  1154.70  1164.68  1171.99  1172.61  1176.78
eigval :     1178.94  1181.47  1181.67  1193.33  1197.93  1216.77
eigval :     1228.30  1236.31  1242.88  1259.56  1268.90  1276.56
eigval :     1300.17  1303.10  1308.18  1315.34  1324.65  1330.03
eigval :     1335.91  1351.05  1409.93  1420.45  1425.26  1429.14
eigval :     1440.20  1455.04  1459.15  1469.01  1479.37  1500.71
eigval :     1544.66  1556.88  1566.35  1571.44  1578.81  1583.52
eigval :     1587.67  1588.17  1595.76  1601.09  3085.82  3086.51
eigval :     3088.10  3089.54  3092.06  3092.33  3094.33  3096.81
eigval :     3097.07  3097.32  3098.88  3104.55  3104.93  3106.99
eigval :     3109.63  3109.75  3111.64  3113.02  3115.91  3116.78

   temp. (K)  partition function   enthalpy   heat capacity  entropy
                                   cal/mol     cal/K/mol   cal/K/mol   J/K/mol
 298.15  VIB  0.232E+13            16226.282    104.146     99.601
         ROT  0.304E+08              888.752      2.981     37.222
         INT  0.705E+20            17115.034    107.127    136.823
         TR   0.104E+29             1481.254      4.968     44.426
         TOT                       18596.2883   112.0954   181.2488   758.3449

       T/K    H(0)-H(T)+PV         H(T)/Eh          T*S/Eh         G(T)/Eh
   ------------------------------------------------------------------------
    298.15    0.296351E-01    0.442579E+00    0.861171E-01    0.356462E+00
   ------------------------------------------------------------------------

         :::::::::::::::::::::::::::::::::::::::::::::::::::::
         ::                  THERMODYNAMIC                  ::
         :::::::::::::::::::::::::::::::::::::::::::::::::::::
         :: total free energy         -95.433991850909 Eh   ::
         ::.................................................::
         :: total energy              -95.790454133596 Eh   ::
         :: zero point energy           0.412944356033 Eh   ::
         :: G(RRHO) w/o ZPVE           -0.056482073346 Eh   ::
         :: G(RRHO) contrib.            0.356462282687 Eh   ::
         :::::::::::::::::::::::::::::::::::::::::::::::::::::

           -------------------------------------------------
          | TOTAL ENERGY              -95.790454133596 Eh   |
          | TOTAL ENTHALPY            -95.347874705806 Eh   |
          | TOTAL FREE ENERGY         -95.433991850909 Eh   |
          | GRADIENT NORM               0.000067866608 Eh/α |
          | HOMO-LUMO GAP               2.321938831930 eV   |
           -------------------------------------------------

 * finished run on 2025/08/29 at 19:55:06.014
