   * xtb version 6.7.1 (edcfbbe) compiled by 'albert@albert-system' on 2024-07-22

   ID    Z sym.   atoms
    1    8 O      1, 3, 27
    2   16 S      2
    3    6 C      4-9, 11-19, 21-26, 28-36
    4    7 N      10, 20
    5    1 H      37-56

          program call               : xtb data2507/toluene/PXZ2PTO/PXZ2PTO_toluene_S0_finalOpt.xtbopt.xyz --gfn 2 --uhf 2 --gbsa toluene --ohess vtight --parallel 40 --molden --ceasefiles --namespace data2507/toluene/PXZ2PTO/PXZ2PTO_toluene_T1_preOpt
      * Solvation model:               GBSA
        Solvent                        toluene
        Solvent mass                       9.2140E+01 g/mol
          :  Hamiltonian                  GFN2-xTB          :
 * total energy  :   -95.6869674 Eh     change       -0.1189690E-08 Eh
 * total energy  :   -95.6926338 Eh     change       -0.5666467E-02 Eh
 * total energy  :   -95.6942270 Eh     change       -0.1593225E-02 Eh
 * total energy  :   -95.6943213 Eh     change       -0.9428198E-04 Eh
 * total energy  :   -95.6943781 Eh     change       -0.5681890E-04 Eh
 * total energy  :   -95.6943992 Eh     change       -0.2105440E-04 Eh
 * total energy  :   -95.6944162 Eh     change       -0.1695081E-04 Eh
 * total energy  :   -95.6944297 Eh     change       -0.1350224E-04 Eh
 * total energy  :   -95.6944336 Eh     change       -0.3990744E-05 Eh
 * total energy  :   -95.6944387 Eh     change       -0.5044927E-05 Eh
 * total energy  :   -95.6945180 Eh     change       -0.1643416E-05 Eh
 * total energy  :   -95.6945198 Eh     change       -0.1868052E-05 Eh
 * total energy  :   -95.6945216 Eh     change       -0.1791851E-05 Eh
 * total energy  :   -95.6945233 Eh     change       -0.1668499E-05 Eh
 * total energy  :   -95.6945251 Eh     change       -0.1831071E-05 Eh
 * total energy  :   -95.6945275 Eh     change       -0.2390802E-05 Eh
 * total energy  :   -95.6945306 Eh     change       -0.3035672E-05 Eh
 * total energy  :   -95.6945337 Eh     change       -0.3109803E-05 Eh
 * total energy  :   -95.6945337 Eh     change       -0.4075491E-07 Eh
   *** GEOMETRY OPTIMIZATION CONVERGED AFTER 44 ITERATIONS ***

 final structure:
================
56
 xtb: 6.7.1 (edcfbbe)
O            3.43354531192841        3.27315325456106       -0.75952310649890
S            3.15544624720522        1.89084274439018       -1.10175609871410
O            3.44409889928239        1.53180025915262       -2.48281468195449
C            4.07650373666796        0.79721011868985       -0.05165456957337
C            5.41518351014550        1.07540143562505        0.14939334551911
C            6.21231847495159        0.19915171549703        0.86436178858415
C            5.64248232402146       -0.96844478853813        1.35251730350959
C            4.30481578217217       -1.24408769822546        1.16032000287474
C            3.47262073899164       -0.35106358258120        0.46009981558212
N            2.12489823634822       -0.62595371594448        0.31951873054098
C            1.66644337715517       -1.92922471700400        0.70797801811743
C            1.57660004569397       -2.92437466232681       -0.25484515207222
C            1.11924053048469       -4.18258797767698        0.09973635771994
C            0.75552355180202       -4.44582082644176        1.41021971921382
C            0.84848751490180       -3.45092886753599        2.37044559730205
C            1.30203394368392       -2.18964931895246        2.02342738438529
C            1.16398235160804        0.26382499795287       -0.12891261335271
C           -0.18669502369773       -0.03668500157036        0.03451953265792
C           -1.17873274637252        0.85110551644435       -0.39220279362991
N           -2.54178772425013        0.49946042322680       -0.21841102911330
C           -3.07154332037441       -0.55284599232142       -0.92467368061281
C           -2.32953839415212       -1.32906269570245       -1.82563969038921
C           -2.91035966325451       -2.37468573327751       -2.49751684973407
C           -4.27965925746435       -2.67932973074025       -2.31334600089199
C           -5.04557042026249       -1.91318657448733       -1.46961625399055
C           -4.47479206630139       -0.84974771017411       -0.76999918756380
O           -5.27019893236417       -0.10122394190006        0.01868647397820
C           -4.73927852060169        0.92616151302383        0.70998795873324
C           -5.57465601042943        1.68862883679605        1.52231823063883
C           -5.06126890533593        2.71872189772094        2.27376147173702
C           -3.67247068755396        2.99722563727169        2.23800630516583
C           -2.83325029529337        2.27078894146232        1.43577603946544
C           -3.32961574550796        1.23346015828340        0.62874933376710
C           -0.84104744985312        2.07877314806915       -0.98065304196375
C            0.48634102401698        2.38283720777819       -1.14598044326746
C            1.48330400733084        1.49395621053223       -0.73272919832113
H            5.80351188320320        1.98875939545220       -0.27515175070809
H            7.25625382748339        0.41508786659138        1.02471264077197
H            6.25037541899615       -1.67563598058636        1.89645851457451
H            3.89190648653483       -2.15854229285652        1.55388315569213
H            1.86553072961922       -2.70529728735069       -1.27211163616905
H            1.04818174035903       -4.95625054855013       -0.64949115521823
H            0.39903551325968       -5.42726776299652        1.68383409657987
H            0.56597082163014       -3.65482489855264        3.39222040116859
H            1.37754496709058       -1.40537189029210        2.76179277650821
H           -0.48990111270131       -0.95898725497476        0.50274400812040
H           -1.29094342204377       -1.08995576060233       -1.98775234276351
H           -2.32236375051370       -2.96576338805575       -3.18080976089714
H           -4.72099634604182       -3.50329898873258       -2.84975553646606
H           -6.09756478440830       -2.10555846117045       -1.32779472083949
H           -6.62426704702584        1.43998202598042        1.54655228457164
H           -5.70833700307701        3.30905016829175        2.90137654825413
H           -3.27597414615825        3.78908786156859        2.85301737270221
H           -1.77628856090589        2.48499713720277        1.41482992151031
H           -1.61560411317951        2.75415681079341       -1.30703258182273
H            0.80700521146949        3.30658784378211       -1.60082625712705

          :  Hamiltonian                  GFN2-xTB          :
         :: gradient norm              0.000148205994 Eh/a0 ::
         :: HOMO-LUMO gap              0.043148639233 eV    ::
         :: SCC energy               -97.236936861372 Eh    ::
         :: -> dispersion             -0.081790830344 Eh    ::
         :: -> Gsolv                  -0.050328416262 Eh    ::
         :: repulsion energy           1.542403150118 Eh    ::

    * Orbital Energies and Occupations

         #    Occupation            Energy/Eh            Energy/eV
      -------------------------------------------------------------
         1        2.0000           -0.7660579             -20.8455
       ...           ...                  ...                  ...
        76        2.0000           -0.4292597             -11.6808
        77        2.0000           -0.4271720             -11.6239
        78        2.0000           -0.4246550             -11.5555
        79        2.0000           -0.4216338             -11.4732
        80        2.0000           -0.4205513             -11.4438
        81        2.0000           -0.4198799             -11.4255
        82        2.0000           -0.4193303             -11.4106
        83        2.0000           -0.4185481             -11.3893
        84        2.0000           -0.4037381             -10.9863
        85        2.0000           -0.4015274             -10.9261
        86        2.0000           -0.3737357             -10.1699
        87        1.0000           -0.3523853              -9.5889
        88        0.6972           -0.2580969              -7.0232 (HOMO)
        89        0.3024           -0.2565106              -6.9800 (LUMO)
        90        0.0004           -0.2499490              -6.8015
        91        0.0000           -0.2429017              -6.6097
        92                         -0.2417448              -6.5782
        93                         -0.2391801              -6.5084
        94                         -0.2359177              -6.4196
        95                         -0.2210012              -6.0137
        96                         -0.2146587              -5.8412
        97                         -0.2088052              -5.6819
        98                         -0.1279779              -3.4825
        99                         -0.1192200              -3.2441
       ...                                ...                  ...
       169                          1.1606140              31.5819
      -------------------------------------------------------------
                  HL-Gap            0.0015863 Eh            0.0432 eV

     #   Z          covCN         q      C6AA      α(0)
     1   8 O        0.860    -0.593    25.958     6.831
     2  16 S        3.854     0.929   108.721    17.549
     3   8 O        0.860    -0.604    26.221     6.866
     4   6 C        2.973    -0.095    30.377     9.041
     5   6 C        2.975    -0.025    28.616     8.775
     6   6 C        2.918    -0.038    28.950     8.823
     7   6 C        2.919    -0.025    28.627     8.774
     8   6 C        2.926    -0.055    29.362     8.886
     9   6 C        2.953     0.061    26.642     8.466
    10   7 N        2.750    -0.064    22.475     7.041
    11   6 C        2.934     0.062    26.616     8.461
    12   6 C        2.921    -0.036    28.900     8.816
    13   6 C        2.920    -0.024    28.613     8.772
    14   6 C        2.919    -0.027    28.678     8.782
    15   6 C        2.920    -0.026    28.644     8.777
    16   6 C        2.920    -0.038    28.947     8.823
    17   6 C        2.952     0.058    26.690     8.474
    18   6 C        2.925    -0.070    29.748     8.944
    19   6 C        2.928     0.036    27.199     8.553
    20   7 N        2.750     0.022    20.869     6.785
    21   6 C        2.926     0.024    27.470     8.595
    22   6 C        2.912    -0.048    29.187     8.859
    23   6 C        2.914    -0.041    29.020     8.834
    24   6 C        2.915    -0.037    28.926     8.819
    25   6 C        2.909    -0.051    29.277     8.872
    26   6 C        2.885     0.117    25.417     8.265
    27   8 O        1.710    -0.187    17.129     5.588
    28   6 C        2.884     0.117    25.428     8.267
    29   6 C        2.908    -0.051    29.273     8.872
    30   6 C        2.915    -0.040    28.986     8.828
    31   6 C        2.914    -0.040    28.996     8.830
    32   6 C        2.911    -0.047    29.179     8.858
    33   6 C        2.926     0.022    27.523     8.604
    34   6 C        2.914    -0.047    29.168     8.856
    35   6 C        2.970    -0.030    28.736     8.793
    36   6 C        2.969    -0.117    30.967     9.128
    37   1 H        0.926     0.039     2.464     2.455
    38   1 H        0.926     0.052     2.293     2.368
    39   1 H        0.926     0.059     2.215     2.328
    40   1 H        0.926     0.057     2.233     2.337
    41   1 H        0.926     0.044     2.398     2.421
    42   1 H        0.926     0.051     2.302     2.373
    43   1 H        0.926     0.051     2.306     2.375
    44   1 H        0.926     0.052     2.297     2.370
    45   1 H        0.926     0.050     2.320     2.382
    46   1 H        0.926     0.056     2.240     2.341
    47   1 H        0.926     0.048     2.351     2.398
    48   1 H        0.926     0.048     2.348     2.396
    49   1 H        0.926     0.051     2.307     2.375
    50   1 H        0.926     0.058     2.217     2.328
    51   1 H        0.926     0.058     2.228     2.334
    52   1 H        0.926     0.049     2.331     2.388
    53   1 H        0.926     0.046     2.367     2.406
    54   1 H        0.926     0.047     2.353     2.399
    55   1 H        0.926     0.054     2.274     2.358
    56   1 H        0.926     0.041     2.441     2.443

molecular dipole:
                 x           y           z       tot (Debye)
 q only:       -3.041      -3.398       2.327
   full:       -2.814      -3.080       2.107      11.879

 projected vibrational frequencies (cm⁻¹)
eigval :       -0.00    -0.00    -0.00     0.00     0.00     0.00
eigval :        7.41    14.05    17.08    24.57    37.62    53.47
eigval :       55.33    77.26    79.56    90.14    99.66   123.95
eigval :      133.93   157.70   183.66   202.08   225.46   228.78
eigval :      233.79   236.45   253.36   268.61   287.80   301.69
eigval :      343.56   354.80   374.54   375.96   381.65   386.67
eigval :      389.79   404.93   411.27   421.58   431.47   434.63
eigval :      458.70   461.33   476.73   488.38   503.86   512.28
eigval :      524.76   535.51   561.35   578.69   585.83   592.48
eigval :      597.70   611.98   618.02   620.90   628.07   642.38
eigval :      658.90   666.43   670.10   714.69   727.80   738.34
eigval :      740.66   761.38   769.14   792.42   797.70   826.54
eigval :      836.28   837.98   839.43   858.69   873.83   878.98
eigval :      883.22   885.85   886.90   887.34   890.56   897.12
eigval :      902.78   903.49   908.79   918.42   931.00   931.84
eigval :      981.64   991.38  1028.34  1034.95  1045.65  1058.79
eigval :     1070.46  1075.66  1089.97  1111.91  1114.42  1118.04
eigval :     1133.08  1149.50  1151.61  1155.20  1163.44  1165.40
eigval :     1173.74  1174.74  1175.85  1181.76  1188.83  1200.94
eigval :     1223.21  1226.69  1237.38  1252.64  1258.70  1269.40
eigval :     1287.72  1306.01  1307.86  1312.33  1318.91  1325.65
eigval :     1327.12  1336.42  1358.57  1371.91  1388.57  1402.01
eigval :     1417.93  1421.95  1428.30  1433.88  1438.75  1447.99
eigval :     1453.54  1463.50  1467.31  1467.98  1483.35  1521.66
eigval :     1544.22  1559.04  1579.46  1585.61  3083.62  3084.84
eigval :     3087.47  3090.62  3090.96  3095.10  3095.93  3096.94
eigval :     3097.28  3098.09  3100.65  3102.40  3106.31  3107.04
eigval :     3107.36  3108.78  3114.27  3114.62  3114.80  3115.89

   temp. (K)  partition function   enthalpy   heat capacity  entropy
                                   cal/mol     cal/K/mol   cal/K/mol   J/K/mol
 298.15  VIB  0.988E+13            16627.100    106.369    102.859
         ROT  0.306E+08              888.752      2.981     37.231
         INT  0.302E+21            17515.852    109.350    140.090
         TR   0.104E+29             1481.254      4.968     44.426
         TOT                       18997.1058   114.3180   184.5164   772.0166

       T/K    H(0)-H(T)+PV         H(T)/Eh          T*S/Eh         G(T)/Eh
   ------------------------------------------------------------------------
    298.15    0.302738E-01    0.437824E+00    0.876697E-01    0.350154E+00
   ------------------------------------------------------------------------

         :::::::::::::::::::::::::::::::::::::::::::::::::::::
         ::                  THERMODYNAMIC                  ::
         :::::::::::::::::::::::::::::::::::::::::::::::::::::
         :: total free energy         -95.344379734052 Eh   ::
         ::.................................................::
         :: total energy              -95.694533714431 Eh   ::
         :: zero point energy           0.407549855939 Eh   ::
         :: G(RRHO) w/o ZPVE           -0.057395875559 Eh   ::
         :: G(RRHO) contrib.            0.350153980380 Eh   ::
         :::::::::::::::::::::::::::::::::::::::::::::::::::::

           -------------------------------------------------
          | TOTAL ENERGY              -95.694533714431 Eh   |
          | TOTAL ENTHALPY            -95.256710043360 Eh   |
          | TOTAL FREE ENERGY         -95.344379734052 Eh   |
          | GRADIENT NORM               0.000148609570 Eh/α |
          | HOMO-LUMO GAP               0.043165745891 eV   |
           -------------------------------------------------

 * finished run on 2025/08/29 at 19:55:10.680
