   * xtb version 6.7.1 (edcfbbe) compiled by 'albert@albert-system' on 2024-07-22

   ID    Z sym.   atoms
    1    8 O      1, 3, 27
    2   16 S      2
    3    6 C      4-9, 11-19, 21-26, 28-36
    4    7 N      10, 20
    5    1 H      37-56

          program call               : xtb data2507/toluene/PXZ2PTO/PXZ2PTO_toluene_T1_crest.xyz --gfn 2 --uhf 2 --gbsa toluene --ohess vtight --parallel 40 --molden --ceasefiles --namespace data2507/toluene/PXZ2PTO/PXZ2PTO_toluene_T1_finalOpt
      * Solvation model:               GBSA
        Solvent                        toluene
        Solvent mass                       9.2140E+01 g/mol
          :  Hamiltonian                  GFN2-xTB          :
 * total energy  :   -95.6940195 Eh     change        0.4872902E-10 Eh
 * total energy  :   -95.6942016 Eh     change       -0.1820464E-03 Eh
 * total energy  :   -95.6943207 Eh     change       -0.1191238E-03 Eh
 * total energy  :   -95.6943371 Eh     change       -0.1636490E-04 Eh
 * total energy  :   -95.6943554 Eh     change       -0.1836420E-04 Eh
 * total energy  :   -95.6943619 Eh     change       -0.6488055E-05 Eh
 * total energy  :   -95.6943778 Eh     change       -0.1586352E-04 Eh
 * total energy  :   -95.6943895 Eh     change       -0.1172688E-04 Eh
 * total energy  :   -95.6944021 Eh     change       -0.1255190E-04 Eh
 * total energy  :   -95.6944282 Eh     change       -0.2616829E-04 Eh
 * total energy  :   -95.6945502 Eh     change       -0.1896897E-06 Eh
 * total energy  :   -95.6945501 Eh     change        0.2315639E-07 Eh
 * total energy  :   -95.6945504 Eh     change       -0.2114823E-06 Eh
 * total energy  :   -95.6945506 Eh     change       -0.2688504E-06 Eh
 * total energy  :   -95.6945509 Eh     change       -0.2900793E-06 Eh
 * total energy  :   -95.6945511 Eh     change       -0.2370118E-06 Eh
 * total energy  :   -95.6945513 Eh     change       -0.1932297E-06 Eh
 * total energy  :   -95.6945516 Eh     change       -0.2097351E-06 Eh
 * total energy  :   -95.6945516 Eh     change       -0.2991186E-08 Eh
   *** GEOMETRY OPTIMIZATION CONVERGED AFTER 68 ITERATIONS ***

 final structure:
================
56
 xtb: 6.7.1 (edcfbbe)
O            3.42744482273964       -1.55051084265395       -2.49628476753177
S            3.14257962080683       -1.90734640240686       -1.11393579933585
O            3.41467853559420       -3.29102467400848       -0.77208069277098
C            4.07332951644200       -0.81876212001457       -0.06748165347020
C            5.41201993602687       -1.10269714091873        0.12544503505137
C            6.21600679860727       -0.23299645014542        0.84070703426520
C            5.65243198594432        0.93347455774400        1.33861304045855
C            4.31481401119840        1.21475195033070        1.15449964351451
C            3.47596871695045        0.32916234295349        0.45251476511111
N            2.12890895751923        0.61132712692123        0.31832524537871
C            1.67877183839344        1.90889203828061        0.73483046335280
C            1.31044930518289        2.13922306513508        2.05479794941274
C            0.87159725682882        3.39668829073062        2.43285465028562
C            0.79730168854783        4.41773532031196        1.49876866284857
C            1.16340196627908        4.18403633380367        0.18337449216370
C            1.60585140665623        2.92954153726265       -0.20232173610247
C            1.16216176197785       -0.27053387418051       -0.13284457689581
C           -0.18703424956840        0.03832627858907        0.02910563553748
C           -1.18359453341314       -0.84560529716926       -0.39466751799687
N           -2.54542176977354       -0.48808187139644       -0.21936132329861
C           -3.32895422708056       -1.20534698451848        0.64551758948507
C           -2.82898589476889       -2.22919228602871        1.46726795391780
C           -3.66408186624015       -2.93944023350531        2.28808560217634
C           -5.05216840562539       -2.65750171551664        2.32815295284851
C           -5.56921963949804       -1.64174163750773        1.55999858537648
C           -4.73814196514032       -0.89582983498844        0.72807833347054
O           -5.27295831889557        0.11554161794640        0.01647270874211
C           -4.48217106773703        0.84561283438173       -0.79381973168583
C           -5.05773448895325        1.88931795700640       -1.51889124416195
C           -4.29581306942316        2.63645683046306       -2.38291149455875
C           -2.92523844224570        2.33323522645660       -2.56065205006502
C           -2.33979747865175        1.30626605190521       -1.86437191654177
C           -3.07859653220379        0.54848393465800       -0.94552027252723
C           -0.85338433812903       -2.07635785321766       -0.98034486198746
C            0.47224575420320       -2.38639744937382       -1.14884661808640
C            1.47404054427694       -1.50189309613615       -0.73818896719987
H            5.79476225125512       -2.01554916990945       -0.30519902497077
H            7.26003277472349       -0.45331133258345        0.99433311357562
H            6.26521182500845        1.63552077467892        1.88374416944458
H            3.90729907214309        2.12806756058718        1.55615502121348
H            1.37248176402689        1.33475170906500        2.77241723470410
H            0.58710663038140        3.57760136072078        3.45836498649865
H            0.45434629696498        5.39682793546912        1.79703812259902
H            1.10665164429030        4.97828925526271       -0.54527323663355
H            1.89722425319899        2.73338275599253       -1.22352426425938
H           -0.48545366853552        0.96394344363955        0.49384046203064
H           -1.77265536164439       -2.44621942841734        1.44207874278451
H           -3.26503601352574       -3.72127283140600        2.91415036454919
H           -5.69606575426927       -3.23483435366833        2.97093985831256
H           -6.61855298802305       -1.39211045529605        1.58547124537564
H           -6.11006480348538        2.08193059416185       -1.37987669105186
H           -4.74087618549803        3.44498715263289       -2.93941153733094
H           -2.34014902342087        2.91023432312286       -3.25828862272846
H           -1.30032230362506        1.06708343834062       -2.02109877364540
H           -1.63195580752676       -2.74916918169022       -1.30245618424613
H            0.78784977943478       -3.31206604089584       -1.60328774941016

          :  Hamiltonian                  GFN2-xTB          :
         :: gradient norm              0.000042328674 Eh/a0 ::
         :: HOMO-LUMO gap              0.045057260833 eV    ::
         :: SCC energy               -97.237003357678 Eh    ::
         :: -> dispersion             -0.081675911992 Eh    ::
         :: -> Gsolv                  -0.050372630196 Eh    ::
         :: repulsion energy           1.542451803395 Eh    ::

    * Orbital Energies and Occupations

         #    Occupation            Energy/Eh            Energy/eV
      -------------------------------------------------------------
         1        2.0000           -0.7660538             -20.8454
       ...           ...                  ...                  ...
        76        2.0000           -0.4292207             -11.6797
        77        2.0000           -0.4271792             -11.6241
        78        2.0000           -0.4247246             -11.5573
        79        2.0000           -0.4217173             -11.4755
        80        2.0000           -0.4205586             -11.4440
        81        2.0000           -0.4198484             -11.4247
        82        2.0000           -0.4192983             -11.4097
        83        2.0000           -0.4186612             -11.3924
        84        2.0000           -0.4038266             -10.9887
        85        2.0000           -0.4015214             -10.9260
        86        2.0000           -0.3738050             -10.1718
        87        1.0000           -0.3523465              -9.5878
        88        0.7048           -0.2581074              -7.0235 (HOMO)
        89        0.2948           -0.2564521              -6.9784 (LUMO)
        90        0.0004           -0.2499534              -6.8016
        91        0.0000           -0.2429528              -6.6111
        92                         -0.2418359              -6.5807
        93                         -0.2392132              -6.5093
        94                         -0.2359063              -6.4193
        95                         -0.2209798              -6.0132
        96                         -0.2145721              -5.8388
        97                         -0.2088894              -5.6842
        98                         -0.1280463              -3.4843
        99                         -0.1190894              -3.2406
       ...                                ...                  ...
       169                          1.1605296              31.5796
      -------------------------------------------------------------
                  HL-Gap            0.0016553 Eh            0.0450 eV

     #   Z          covCN         q      C6AA      α(0)
     1   8 O        0.860    -0.604    26.219     6.865
     2  16 S        3.854     0.929   108.723    17.549
     3   8 O        0.860    -0.594    25.960     6.831
     4   6 C        2.973    -0.095    30.376     9.040
     5   6 C        2.976    -0.025    28.616     8.775
     6   6 C        2.918    -0.038    28.949     8.823
     7   6 C        2.919    -0.025    28.626     8.774
     8   6 C        2.926    -0.055    29.362     8.886
     9   6 C        2.953     0.060    26.644     8.466
    10   7 N        2.750    -0.064    22.470     7.040
    11   6 C        2.934     0.062    26.615     8.461
    12   6 C        2.920    -0.038    28.944     8.822
    13   6 C        2.920    -0.026    28.642     8.776
    14   6 C        2.919    -0.027    28.677     8.782
    15   6 C        2.920    -0.024    28.613     8.772
    16   6 C        2.921    -0.036    28.900     8.816
    17   6 C        2.952     0.058    26.688     8.473
    18   6 C        2.925    -0.070    29.748     8.944
    19   6 C        2.928     0.036    27.197     8.552
    20   7 N        2.750     0.022    20.873     6.785
    21   6 C        2.926     0.022    27.522     8.603
    22   6 C        2.911    -0.047    29.177     8.857
    23   6 C        2.914    -0.040    28.996     8.830
    24   6 C        2.915    -0.040    28.986     8.829
    25   6 C        2.908    -0.051    29.272     8.872
    26   6 C        2.884     0.117    25.430     8.267
    27   8 O        1.710    -0.187    17.127     5.588
    28   6 C        2.885     0.117    25.419     8.266
    29   6 C        2.909    -0.051    29.277     8.872
    30   6 C        2.915    -0.037    28.926     8.819
    31   6 C        2.914    -0.041    29.021     8.834
    32   6 C        2.912    -0.048    29.184     8.859
    33   6 C        2.926     0.024    27.467     8.595
    34   6 C        2.914    -0.047    29.169     8.856
    35   6 C        2.970    -0.030    28.736     8.793
    36   6 C        2.969    -0.117    30.969     9.128
    37   1 H        0.926     0.039     2.465     2.455
    38   1 H        0.926     0.052     2.293     2.368
    39   1 H        0.926     0.059     2.215     2.328
    40   1 H        0.926     0.057     2.235     2.338
    41   1 H        0.926     0.050     2.323     2.383
    42   1 H        0.926     0.052     2.297     2.370
    43   1 H        0.926     0.051     2.305     2.374
    44   1 H        0.926     0.051     2.301     2.372
    45   1 H        0.926     0.044     2.392     2.419
    46   1 H        0.926     0.056     2.241     2.341
    47   1 H        0.926     0.047     2.355     2.400
    48   1 H        0.926     0.046     2.367     2.406
    49   1 H        0.926     0.049     2.331     2.388
    50   1 H        0.926     0.057     2.228     2.334
    51   1 H        0.926     0.058     2.217     2.328
    52   1 H        0.926     0.051     2.307     2.375
    53   1 H        0.926     0.048     2.350     2.397
    54   1 H        0.926     0.047     2.352     2.398
    55   1 H        0.926     0.053     2.277     2.360
    56   1 H        0.926     0.041     2.441     2.443

molecular dipole:
                 x           y           z       tot (Debye)
 q only:       -3.009       3.410       2.350
   full:       -2.785       3.091       2.130      11.880

 projected vibrational frequencies (cm⁻¹)
eigval :       -0.00    -0.00    -0.00     0.00     0.00     0.00
eigval :        8.17    14.85    17.77    24.56    30.70    51.07
eigval :       54.64    76.07    79.18    90.06    99.24   123.87
eigval :      133.79   157.02   183.38   202.12   225.42   228.60
eigval :      233.05   235.96   252.40   267.64   287.21   301.00
eigval :      343.82   354.05   373.55   374.59   381.63   386.08
eigval :      389.86   404.53   411.13   421.69   431.72   434.48
eigval :      458.92   461.70   476.24   488.30   503.58   512.15
eigval :      524.44   535.36   561.72   579.17   585.81   592.57
eigval :      597.81   611.55   618.23   620.90   627.96   642.49
eigval :      658.96   666.14   668.84   714.44   727.81   736.28
eigval :      740.83   759.72   769.79   792.08   797.55   825.64
eigval :      833.03   838.32   839.37   859.58   873.91   876.25
eigval :      883.29   885.84   887.45   888.06   890.67   894.45
eigval :      901.30   903.76   907.68   918.20   928.62   929.79
eigval :      981.69   991.49  1028.40  1035.12  1045.87  1058.85
eigval :     1070.55  1076.15  1090.40  1112.21  1115.22  1118.63
eigval :     1133.09  1150.03  1152.12  1156.58  1163.61  1165.58
eigval :     1174.15  1175.12  1175.74  1182.40  1189.06  1200.98
eigval :     1223.89  1226.93  1237.53  1252.87  1259.31  1270.61
eigval :     1288.31  1305.84  1307.74  1312.95  1319.36  1325.89
eigval :     1327.13  1336.69  1358.08  1371.88  1389.68  1405.04
eigval :     1417.88  1422.23  1428.54  1434.34  1439.40  1448.52
eigval :     1453.81  1463.96  1467.57  1468.32  1484.46  1521.21
eigval :     1543.92  1558.70  1579.87  1586.34  3083.50  3084.82
eigval :     3087.71  3090.64  3090.94  3095.01  3095.80  3096.88
eigval :     3097.50  3098.20  3101.23  3102.10  3105.93  3107.05
eigval :     3107.37  3109.13  3113.94  3114.69  3115.17  3116.06

   temp. (K)  partition function   enthalpy   heat capacity  entropy
                                   cal/mol     cal/K/mol   cal/K/mol   J/K/mol
 298.15  VIB  0.108E+14            16649.961    106.225    102.848
         ROT  0.306E+08              888.752      2.981     37.235
         INT  0.331E+21            17538.713    109.206    140.083
         TR   0.104E+29             1481.254      4.968     44.426
         TOT                       19019.9672   114.1737   184.5096   771.9881

       T/K    H(0)-H(T)+PV         H(T)/Eh          T*S/Eh         G(T)/Eh
   ------------------------------------------------------------------------
    298.15    0.303102E-01    0.437822E+00    0.876665E-01    0.350155E+00
   ------------------------------------------------------------------------

         :::::::::::::::::::::::::::::::::::::::::::::::::::::
         ::                  THERMODYNAMIC                  ::
         :::::::::::::::::::::::::::::::::::::::::::::::::::::
         :: total free energy         -95.344396134660 Eh   ::
         ::.................................................::
         :: total energy              -95.694551554504 Eh   ::
         :: zero point energy           0.407511632872 Eh   ::
         :: G(RRHO) w/o ZPVE           -0.057356213028 Eh   ::
         :: G(RRHO) contrib.            0.350155419844 Eh   ::
         :::::::::::::::::::::::::::::::::::::::::::::::::::::

           -------------------------------------------------
          | TOTAL ENERGY              -95.694551554504 Eh   |
          | TOTAL ENTHALPY            -95.256729674572 Eh   |
          | TOTAL FREE ENERGY         -95.344396134660 Eh   |
          | GRADIENT NORM               0.000042782265 Eh/α |
          | HOMO-LUMO GAP               0.045041745696 eV   |
           -------------------------------------------------

 * finished run on 2025/08/29 at 19:58:24.495
