   * xtb version 6.7.1 (edcfbbe) compiled by 'albert@albert-system' on 2024-07-22

   ID    Z sym.   atoms
    1   35 Br     1, 23
    2    6 C      2-10, 12, 14-22, 24-31, 33, 35-42
    3    7 N      11, 13, 32, 34
    4    1 H      43-66

          program call               : xtb data2507/toluene/3BrBI/3BrBI_toluene_S0_finalOpt.xtbopt.xyz --gfn 2 --uhf 2 --gbsa toluene --ohess vtight --parallel 40 --molden --ceasefiles --namespace data2507/toluene/3BrBI/3BrBI_toluene_T1_preOpt
      * Solvation model:               GBSA
        Solvent                        toluene
        Solvent mass                       9.2140E+01 g/mol
          :  Hamiltonian                  GFN2-xTB          :
 * total energy  :  -109.1824224 Eh     change       -0.1250982E-08 Eh
 * total energy  :  -109.1896328 Eh     change       -0.7210354E-02 Eh
 * total energy  :  -109.1920785 Eh     change       -0.2445748E-02 Eh
 * total energy  :  -109.1923496 Eh     change       -0.2710869E-03 Eh
 * total energy  :  -109.1926219 Eh     change       -0.2722686E-03 Eh
 * total energy  :  -109.1927298 Eh     change       -0.1079102E-03 Eh
 * total energy  :  -109.1927986 Eh     change       -0.6885834E-04 Eh
 * total energy  :  -109.1928311 Eh     change       -0.3248340E-04 Eh
 * total energy  :  -109.1928507 Eh     change       -0.1961805E-04 Eh
 * total energy  :  -109.1928910 Eh     change       -0.4029643E-04 Eh
 * total energy  :  -109.1936078 Eh     change       -0.1340003E-05 Eh
 * total energy  :  -109.1936092 Eh     change       -0.1457628E-05 Eh
 * total energy  :  -109.1936108 Eh     change       -0.1517354E-05 Eh
 * total energy  :  -109.1936122 Eh     change       -0.1418943E-05 Eh
 * total energy  :  -109.1936134 Eh     change       -0.1226729E-05 Eh
 * total energy  :  -109.1936146 Eh     change       -0.1172976E-05 Eh
 * total energy  :  -109.1936155 Eh     change       -0.9218274E-06 Eh
 * total energy  :  -109.1936159 Eh     change       -0.4320615E-06 Eh
 * total energy  :  -109.1936160 Eh     change       -0.1614666E-07 Eh
   *** GEOMETRY OPTIMIZATION CONVERGED AFTER 68 ITERATIONS ***

 final structure:
================
66
 xtb: 6.7.1 (edcfbbe)
Br          -1.25786469442239        2.72754607576833       -0.50231259245255
C           -0.56913533221090        0.94760075275567       -0.30296339496906
C            0.77920842223776        0.81043917323818       -0.29060582240237
C            1.42189056040998       -0.45778792779843       -0.14965341599041
C            2.80866192055790       -0.61574191049613       -0.12961183162262
C            3.76002040075467        0.38966542458594       -0.22003873337643
C            5.16223843098134        0.20614652301067       -0.20095426846585
C            5.79622419923961       -1.05457651031902       -0.09782864531437
C            7.16281553320123       -1.16546869402256       -0.08546903679995
C            7.97234252208415       -0.02586905876987       -0.16849956506092
N            9.36047623543419       -0.15403285388777       -0.16542839297267
C           10.07962147901170       -1.12566998260961       -0.81409684610278
N           11.36231389577163       -0.99943480821311       -0.70693861418637
C           11.55603197176546        0.11421371212550        0.07715450021343
C           12.73431103673450        0.69273735031588        0.53241588996066
C           12.63056921435689        1.80800781040263        1.33928069560797
C           11.38932075374344        2.33271865637250        1.70173907849007
C           10.20605168143224        1.77334227365700        1.25865354478915
C           10.30076873633018        0.66863788041589        0.42556221392144
C            7.36883451143985        1.23222859523576       -0.28157288656931
C            6.00269435044351        1.34143618961623       -0.29739896886167
C            0.51547249875809       -1.56248698239566       -0.02917043263769
Br           1.20405097064689       -3.34440343527221        0.15595074672559
C           -0.83286234756906       -1.42480278257734       -0.03787259857692
C           -1.47550165554225       -0.15601748437771       -0.17342766119810
C           -2.86239574095976        0.00223797207160       -0.18669833116259
C           -3.81276873473636       -0.99694388348415       -0.03722596205231
C           -5.21519233078930       -0.81632087176531       -0.06994577363968
C           -5.84962150331057        0.42243292124617       -0.32321508460895
C           -7.21650257519119        0.53327470661785       -0.34150306070948
C           -8.02487375627750       -0.58472510602821       -0.10567085843380
N           -9.41472974131690       -0.47968119662606       -0.13118624024133
C          -10.28084793586369       -1.38816463025227       -0.68448765133407
N          -11.52594668780002       -1.04391774181416       -0.62020920665921
C          -11.53735936264269        0.16715367412729        0.03215410196045
C          -12.60618278199530        0.97656409895240        0.39639715972443
C          -12.32262667462217        2.14497175202460        1.07473219592784
C          -11.01301606542641        2.49988450492613        1.40110540490594
C           -9.93622087845362        1.70908811994480        1.04844265747684
C          -10.20940574450970        0.54649976334424        0.34354890285599
C           -7.42070622906064       -1.82555861633605        0.13238185803879
C           -6.05487963027988       -1.93490651587617        0.15054446442072
H            1.39935733935798        1.68597558511234       -0.39321016437157
H            3.16799972708518       -1.62926931238291       -0.02870799958569
H            3.42942484927850        1.41461145343812       -0.30997205311367
H            5.20338799436888       -1.95166390208727       -0.02050866115997
H            7.62498573372912       -2.13695648625438        0.00986703408139
H            9.60125479223970       -1.89731613157113       -1.38632708262040
H           13.68914315951885        0.26908595300514        0.26451006648017
H           13.52753395086112        2.28184721735561        1.70948490709139
H           11.35266883362767        3.19665841516289        2.34850333689887
H            9.25311979045122        2.17693276850621        1.56370045802501
H            7.98654767065386        2.11089052772224       -0.38636777279673
H            5.55002208386827        2.31722858688151       -0.39611036785985
H           -1.45303891145487       -2.30126820542115        0.05628473253239
H           -3.22255934505424        1.01169350180382       -0.32041670727343
H           -3.48134916009626       -2.01196680586643        0.12939181947559
H           -5.25672518999293        1.30039692919763       -0.52309252684612
H           -7.67841011355385        1.48197684771911       -0.56820002738778
H           -9.93325844894725       -2.28656304468115       -1.15762259030749
H          -13.61693564764000        0.68562815632597        0.15830180298669
H          -13.13080141142290        2.79689604400230        1.37129445899064
H          -10.83697323551447        3.41450049354584        1.94737973833569
H           -8.93049199615911        1.98393219456643        1.32606965575666
H           -8.03908420961853       -2.69047079560961        0.32170888535421
H           -5.60175194381600       -2.89546567181242        0.34742116971165

          :  Hamiltonian                  GFN2-xTB          :
         :: gradient norm              0.000091525922 Eh/a0 ::
         :: HOMO-LUMO gap              0.958088892211 eV    ::
         :: SCC energy              -111.037411847226 Eh    ::
         :: -> dispersion             -0.085473976063 Eh    ::
         :: -> Gsolv                  -0.053152139511 Eh    ::
         :: repulsion energy           1.843795892396 Eh    ::

    * Orbital Energies and Occupations

         #    Occupation            Energy/Eh            Energy/eV
      -------------------------------------------------------------
         1        2.0000           -0.8456567             -23.0115
       ...           ...                  ...                  ...
        90        2.0000           -0.4252529             -11.5717
        91        2.0000           -0.4189613             -11.4005
        92        2.0000           -0.4168220             -11.3423
        93        2.0000           -0.4065862             -11.0638
        94        2.0000           -0.4063239             -11.0566
        95        2.0000           -0.3994619             -10.8699
        96        2.0000           -0.3989065             -10.8548
        97        2.0000           -0.3958488             -10.7716
        98        2.0000           -0.3914892             -10.6530
        99        2.0000           -0.3914147             -10.6509
       100        2.0000           -0.3872771             -10.5383
       101        1.0000           -0.3681537             -10.0180
       102        1.0000           -0.3120988              -8.4926 (HOMO)
       103                         -0.2768896              -7.5345 (LUMO)
       104                         -0.2531579              -6.8888
       105                         -0.2499516              -6.8015
       106                         -0.2494588              -6.7881
       107                         -0.2392909              -6.5114
       108                         -0.2392795              -6.5111
       109                         -0.2335958              -6.3565
       110                         -0.2200847              -5.9888
       111                         -0.2166768              -5.8961
       112                         -0.2105984              -5.7307
       113                         -0.2102460              -5.7211
       ...                                ...                  ...
       202                          0.6943945              18.8954
      -------------------------------------------------------------
                  HL-Gap            0.0352092 Eh            0.9581 eV

     #   Z          covCN         q      C6AA      α(0)
     1  35 Br       1.071    -0.187   190.251    22.240
     2   6 C        2.907     0.068    26.473     8.437
     3   6 C        3.021    -0.043    29.054     8.842
     4   6 C        3.007     0.003    27.945     8.671
     5   6 C        2.903    -0.033    28.821     8.803
     6   6 C        2.904    -0.039    28.966     8.825
     7   6 C        2.966     0.020    27.570     8.613
     8   6 C        2.919    -0.030    28.748     8.792
     9   6 C        2.916    -0.041    29.025     8.835
    10   6 C        2.912     0.058    26.690     8.471
    11   7 N        2.822    -0.027    21.772     6.930
    12   6 C        3.155     0.104    25.428     8.246
    13   7 N        1.879    -0.286    28.264     7.881
    14   6 C        3.213     0.067    25.878     8.279
    15   6 C        2.910    -0.042    29.035     8.836
    16   6 C        2.922    -0.037    28.924     8.820
    17   6 C        2.925    -0.036    28.901     8.816
    18   6 C        2.908    -0.048    29.190     8.859
    19   6 C        3.094     0.033    27.149     8.540
    20   6 C        2.914    -0.040    28.995     8.830
    21   6 C        2.926    -0.032    28.800     8.801
    22   6 C        2.907     0.068    26.471     8.436
    23  35 Br       1.071    -0.188   190.266    22.240
    24   6 C        3.021    -0.043    29.054     8.842
    25   6 C        3.007     0.003    27.944     8.671
    26   6 C        2.903    -0.033    28.821     8.803
    27   6 C        2.904    -0.039    28.965     8.825
    28   6 C        2.966     0.020    27.570     8.613
    29   6 C        2.919    -0.031    28.764     8.795
    30   6 C        2.915    -0.040    28.984     8.828
    31   6 C        2.912     0.058    26.690     8.471
    32   7 N        2.822    -0.027    21.773     6.930
    33   6 C        3.155     0.104    25.430     8.246
    34   7 N        1.879    -0.286    28.269     7.882
    35   6 C        3.213     0.067    25.878     8.278
    36   6 C        2.910    -0.042    29.037     8.836
    37   6 C        2.922    -0.037    28.923     8.819
    38   6 C        2.925    -0.036    28.898     8.816
    39   6 C        2.908    -0.048    29.189     8.859
    40   6 C        3.094     0.033    27.148     8.540
    41   6 C        2.915    -0.042    29.035     8.836
    42   6 C        2.926    -0.031    28.784     8.798
    43   1 H        0.926     0.060     2.194     2.317
    44   1 H        0.926     0.060     2.200     2.319
    45   1 H        0.926     0.044     2.391     2.418
    46   1 H        0.926     0.053     2.287     2.365
    47   1 H        0.926     0.044     2.400     2.422
    48   1 H        0.926     0.042     2.417     2.431
    49   1 H        0.926     0.045     2.377     2.411
    50   1 H        0.926     0.041     2.437     2.441
    51   1 H        0.926     0.042     2.424     2.435
    52   1 H        0.926     0.041     2.435     2.440
    53   1 H        0.926     0.049     2.331     2.388
    54   1 H        0.926     0.048     2.341     2.393
    55   1 H        0.926     0.060     2.196     2.317
    56   1 H        0.926     0.060     2.196     2.317
    57   1 H        0.926     0.044     2.394     2.420
    58   1 H        0.926     0.053     2.283     2.363
    59   1 H        0.926     0.050     2.324     2.384
    60   1 H        0.926     0.042     2.422     2.434
    61   1 H        0.926     0.045     2.378     2.412
    62   1 H        0.926     0.041     2.437     2.441
    63   1 H        0.926     0.042     2.422     2.434
    64   1 H        0.926     0.041     2.430     2.438
    65   1 H        0.926     0.043     2.407     2.426
    66   1 H        0.926     0.048     2.345     2.395

molecular dipole:
                 x           y           z       tot (Debye)
 q only:        0.051       0.679       0.439
   full:        0.070       0.846       0.605       2.649

 projected vibrational frequencies (cm⁻¹)
eigval :       -0.00    -0.00     0.00     0.00     0.00     0.00
eigval :        5.36    12.02    15.12    20.00    23.91    27.49
eigval :       35.66    55.05    58.89    62.28    65.06    75.83
eigval :       78.25    92.05   103.39   109.33   130.09   152.89
eigval :      157.93   182.74   185.57   191.64   199.10   210.89
eigval :      217.40   218.00   230.99   235.92   247.94   298.35
eigval :      312.67   337.55   352.48   353.68   367.62   373.61
eigval :      376.07   383.25   391.93   393.87   398.70   401.10
eigval :      413.55   459.48   463.36   484.46   498.08   499.08
eigval :      529.71   536.70   548.15   549.30   549.72   554.81
eigval :      561.85   595.20   595.64   596.09   605.98   615.93
eigval :      616.14   634.02   654.75   673.10   674.65   681.44
eigval :      689.63   713.08   714.42   765.35   767.51   775.49
eigval :      776.13   799.47   800.16   809.52   812.31   823.07
eigval :      827.30   828.68   830.44   831.66   837.77   840.59
eigval :      853.70   856.61   868.42   870.21   872.03   872.50
eigval :      877.29   878.51   901.26   901.64   908.66   912.70
eigval :      914.26   919.46   919.93   925.72   926.00   951.80
eigval :      962.45   999.95  1014.92  1015.59  1060.53  1060.81
eigval :     1093.37  1095.31  1131.45  1137.30  1138.66  1146.43
eigval :     1148.62  1161.39  1171.50  1172.24  1185.24  1197.15
eigval :     1197.65  1208.81  1209.72  1219.94  1221.87  1236.46
eigval :     1244.49  1246.37  1261.82  1263.41  1275.76  1277.04
eigval :     1285.97  1287.22  1298.27  1308.74  1313.37  1338.82
eigval :     1342.55  1356.77  1358.00  1366.16  1368.58  1374.01
eigval :     1393.54  1394.80  1406.77  1414.69  1426.26  1431.63
eigval :     1440.19  1474.85  1477.97  1482.99  1486.92  1489.85
eigval :     1501.74  1502.39  1507.94  1508.54  1518.29  1554.23
eigval :     1569.55  1580.31  1581.68  1582.36  1607.21  1607.47
eigval :     3070.92  3071.23  3078.51  3079.99  3080.48  3080.55
eigval :     3085.20  3086.56  3087.00  3090.34  3091.22  3092.20
eigval :     3094.81  3095.72  3096.08  3100.00  3103.90  3104.60
eigval :     3106.62  3107.21  3112.23  3112.56  3158.20  3158.38

   temp. (K)  partition function   enthalpy   heat capacity  entropy
                                   cal/mol     cal/K/mol   cal/K/mol   J/K/mol
 298.15  VIB  0.238E+18            20674.976    125.592    131.437
         ROT  0.143E+09              888.752      2.981     40.305
         INT  0.341E+26            21563.729    128.573    171.742
         TR   0.169E+29             1481.254      4.968     45.378
         TOT                       23044.9824   133.5409   217.1201   908.4303

       T/K    H(0)-H(T)+PV         H(T)/Eh          T*S/Eh         G(T)/Eh
   ------------------------------------------------------------------------
    298.15    0.367245E-01    0.522310E+00    0.103161E+00    0.419150E+00
   ------------------------------------------------------------------------

         :::::::::::::::::::::::::::::::::::::::::::::::::::::
         ::                  THERMODYNAMIC                  ::
         :::::::::::::::::::::::::::::::::::::::::::::::::::::
         :: total free energy        -108.774466343861 Eh   ::
         ::.................................................::
         :: total energy             -109.193615964391 Eh   ::
         :: zero point energy           0.485585849715 Eh   ::
         :: G(RRHO) w/o ZPVE           -0.066436229184 Eh   ::
         :: G(RRHO) contrib.            0.419149620530 Eh   ::
         :::::::::::::::::::::::::::::::::::::::::::::::::::::

           -------------------------------------------------
          | TOTAL ENERGY             -109.193615964391 Eh   |
          | TOTAL ENTHALPY           -108.671305597553 Eh   |
          | TOTAL FREE ENERGY        -108.774466343861 Eh   |
          | GRADIENT NORM               0.000091515256 Eh/α |
          | HOMO-LUMO GAP               0.958090289496 eV   |
           -------------------------------------------------

 * finished run on 2025/09/12 at 04:39:17.330
