   * xtb version 6.7.1 (edcfbbe) compiled by 'albert@albert-system' on 2024-07-22

   ID    Z sym.   atoms
    1   35 Br     1, 23
    2    6 C      2-10, 12, 14-22, 24-31, 33, 35-42
    3    7 N      11, 13, 32, 34
    4    1 H      43-66

          program call               : xtb data2507/toluene/3BrBI/3BrBI.xyz --gfn 2 --gbsa toluene --ohess vtight --parallel 40 --molden --ceasefiles --namespace data2507/toluene/3BrBI/3BrBI_toluene_S0_preOpt
      * Solvation model:               GBSA
        Solvent                        toluene
        Solvent mass                       9.2140E+01 g/mol
          :  Hamiltonian                  GFN2-xTB          :
 * total energy  :  -109.2336837 Eh     change       -0.2148312E-08 Eh
 * total energy  :  -109.2444740 Eh     change       -0.1079026E-01 Eh
 * total energy  :  -109.2470347 Eh     change       -0.2560652E-02 Eh
 * total energy  :  -109.2482153 Eh     change       -0.1180614E-02 Eh
 * total energy  :  -109.2497142 Eh     change       -0.1498941E-02 Eh
 * total energy  :  -109.2508248 Eh     change       -0.1110569E-02 Eh
 * total energy  :  -109.2518244 Eh     change       -0.9995793E-03 Eh
 * total energy  :  -109.2526908 Eh     change       -0.8664801E-03 Eh
 * total energy  :  -109.2532730 Eh     change       -0.5821547E-03 Eh
 * total energy  :  -109.2536722 Eh     change       -0.3992127E-03 Eh
 * total energy  :  -109.2580642 Eh     change       -0.9647649E-06 Eh
 * total energy  :  -109.2580642 Eh     change       -0.5426145E-07 Eh
 * total energy  :  -109.2580652 Eh     change       -0.9586264E-06 Eh
 * total energy  :  -109.2580660 Eh     change       -0.7747059E-06 Eh
 * total energy  :  -109.2580666 Eh     change       -0.6419929E-06 Eh
 * total energy  :  -109.2580670 Eh     change       -0.4421312E-06 Eh
 * total energy  :  -109.2580674 Eh     change       -0.3291321E-06 Eh
 * total energy  :  -109.2580676 Eh     change       -0.2677258E-06 Eh
 * total energy  :  -109.2580677 Eh     change       -0.3702148E-07 Eh
   *** GEOMETRY OPTIMIZATION CONVERGED AFTER 139 ITERATIONS ***

 final structure:
================
66
 xtb: 6.7.1 (edcfbbe)
Br          -1.29750201615652        2.27426103721876        1.48169943663486
C           -0.60371058639832        1.02290520246089        0.20412004311879
C            0.76612913228655        0.95598572148754        0.08207608017009
C            1.38487235853533        0.07695787050823       -0.81381164077781
C            2.82173692739587        0.01597620882749       -0.96120410103780
C            3.71849112208928        0.47060178804036       -0.07128953102619
C            5.15935006237585        0.42061795909478       -0.21248633579757
C            5.80507880101428        0.02980753946007       -1.39042496790366
C            7.18078041967502        0.00449490290228       -1.47155414610151
C            7.95653820081580        0.37217956164641       -0.37394694047506
N            9.35403565618161        0.36011514951389       -0.46903165767993
C           10.09481818467329        0.81345449879007       -1.52680217931243
N           11.37520842956576        0.73518774114941       -1.35411680906855
C           11.54001219170882        0.18091412004609       -0.10621439603936
C           12.70188525676056       -0.14653101436315        0.58356006724809
C           12.56635531522367       -0.71857710765868        1.83120263475749
C           11.31048970720996       -0.97762975255324        2.38404275033849
C           10.14413439864428       -0.65928502364155        1.71706819799898
C           10.27140732057988       -0.06015715353066        0.47302769216042
C            7.33078239907980        0.77500483405652        0.80301068526817
C            5.95433027333189        0.79561179828970        0.87661392266361
C            0.52098920525674       -0.71909085497797       -1.58061650626404
Br           1.21394412564351       -1.97105966580555       -2.85866283797406
C           -0.84862794795963       -0.65663609637733       -1.45391838310703
C           -1.46700247989698        0.21526591611379       -0.55099047639074
C           -2.90521079365644        0.29710422886018       -0.42635098220925
C           -3.77659889215125       -0.64181155789919       -0.82864229871727
C           -5.21880813110311       -0.57186738321273       -0.71275557127503
C           -5.90497631791335        0.58191127598326       -0.31928722150631
C           -7.28053476334030        0.59571694127711       -0.22964234296857
C           -8.01466588491255       -0.55160533097136       -0.52269199246982
N           -9.41272606209256       -0.54347017312024       -0.43862714824892
C          -10.27799481530771       -1.09943582543195       -1.34167612848678
N          -11.52901536425040       -0.92817540467779       -1.05744975975025
C          -11.53963669428036       -0.22178779864457        0.12255289532847
C          -12.60932891029924        0.21721905823908        0.89443226690287
C          -12.32147541970673        0.89324304178136        2.06161555212332
C          -11.00532626632038        1.12206677513478        2.46816973050101
C           -9.92841602235762        0.69614042669762        1.71612068846042
C          -10.20879238147005        0.03652161940114        0.52903246246963
C           -7.34844745343939       -1.70661957585090       -0.92554367580458
C           -5.97339872933388       -1.70939629036882       -1.02199809167168
H            1.37941576473917        1.61151594177938        0.67938190614913
H            3.16933404230898       -0.46535306031331       -1.86364314143846
H            3.37583069685870        0.89727167671940        0.86212226132903
H            5.23000989999049       -0.25657361177468       -2.25642251837359
H            7.66449510636232       -0.31044804554505       -2.38434167642887
H            9.63397336826407        1.22372327265164       -2.40527582558663
H           13.66876801596072        0.03981712511761        0.14343739400408
H           13.44946253390635       -0.98379907082524        2.39358256295104
H           11.25068221128072       -1.44236963817421        3.35708238293060
H            9.17819529387554       -0.88146983267766        2.14427553116857
H            7.92683903143099        1.09068510937667        1.64551745918870
H            5.48099919116792        1.11288557243056        1.79451526437267
H           -1.46326062179150       -1.28187725439557       -2.08154403449421
H           -3.27384457123765        1.18848808070763        0.05993292330906
H           -3.40721329870382       -1.56363506745131       -1.25821993291439
H           -5.36235460278725        1.48664901335401       -0.09581261239513
H           -7.79632138614654        1.50226661458460        0.04786677310406
H           -9.92867234761051       -1.60548111964961       -2.22159465169515
H          -13.62332774724550        0.02291462992052        0.58238152350023
H          -13.12970964190866        1.24770568288259        2.68421751082059
H          -10.82591172071825        1.64229296753099        3.39739080716293
H           -8.91513652729961        0.86108144454494        2.04922917936015
H           -7.91267652545455       -2.59948499145732       -1.15067367974185
H           -5.46875072095822       -2.61292964725861       -1.33201639035344

          :  Hamiltonian                  GFN2-xTB          :
         :: gradient norm              0.000172235054 Eh/a0 ::
         :: HOMO-LUMO gap              2.024087944816 eV    ::
         :: SCC energy              -111.116570778333 Eh    ::
         :: -> dispersion             -0.085382029890 Eh    ::
         :: -> Gsolv                  -0.054357833698 Eh    ::
         :: repulsion energy           1.858503100666 Eh    ::

    * Orbital Energies and Occupations

         #    Occupation            Energy/Eh            Energy/eV
      -------------------------------------------------------------
         1        2.0000           -0.8472657             -23.0553
       ...           ...                  ...                  ...
        89        2.0000           -0.4244787             -11.5507
        90        2.0000           -0.4243852             -11.5481
        91        2.0000           -0.4207069             -11.4480
        92        2.0000           -0.4185815             -11.3902
        93        2.0000           -0.4081214             -11.1055
        94        2.0000           -0.4080025             -11.1023
        95        2.0000           -0.3968563             -10.7990
        96        2.0000           -0.3955382             -10.7631
        97        2.0000           -0.3944098             -10.7324
        98        2.0000           -0.3878919             -10.5551
        99        2.0000           -0.3877479             -10.5512
       100        2.0000           -0.3857861             -10.4978
       101        2.0000           -0.3779006             -10.2832 (HOMO)
       102                         -0.3035168              -8.2591 (LUMO)
       103                         -0.2730309              -7.4295
       104                         -0.2605691              -7.0904
       105                         -0.2501524              -6.8070
       106                         -0.2458900              -6.6910
       107                         -0.2411004              -6.5607
       108                         -0.2410731              -6.5599
       109                         -0.2335011              -6.3539
       110                         -0.2184032              -5.9431
       111                         -0.2164622              -5.8902
       112                         -0.2143476              -5.8327
       ...                                ...                  ...
       202                          0.6965147              18.9531
      -------------------------------------------------------------
                  HL-Gap            0.0743838 Eh            2.0241 eV

     #   Z          covCN         q      C6AA      α(0)
     1  35 Br       1.065    -0.183   190.129    22.232
     2   6 C        2.917     0.073    26.375     8.422
     3   6 C        3.020    -0.041    28.987     8.831
     4   6 C        3.018     0.013    27.693     8.632
     5   6 C        2.902    -0.036    28.902     8.815
     6   6 C        2.902    -0.030    28.760     8.793
     7   6 C        2.970     0.016    27.646     8.625
     8   6 C        2.923    -0.029    28.721     8.788
     9   6 C        2.919    -0.042    29.051     8.839
    10   6 C        2.912     0.061    26.632     8.462
    11   7 N        2.824    -0.037    21.952     6.959
    12   6 C        3.159     0.106    25.372     8.235
    13   7 N        1.880    -0.295    28.498     7.914
    14   6 C        3.216     0.066    25.861     8.273
    15   6 C        2.910    -0.044    29.092     8.844
    16   6 C        2.922    -0.040    28.984     8.829
    17   6 C        2.926    -0.038    28.933     8.821
    18   6 C        2.908    -0.051    29.263     8.870
    19   6 C        3.098     0.034    27.124     8.535
    20   6 C        2.918    -0.041    29.020     8.834
    21   6 C        2.929    -0.030    28.760     8.795
    22   6 C        2.917     0.073    26.374     8.422
    23  35 Br       1.065    -0.184   190.142    22.233
    24   6 C        3.020    -0.041    28.987     8.831
    25   6 C        3.018     0.013    27.693     8.632
    26   6 C        2.902    -0.036    28.902     8.815
    27   6 C        2.902    -0.030    28.759     8.793
    28   6 C        2.970     0.016    27.647     8.625
    29   6 C        2.923    -0.029    28.733     8.790
    30   6 C        2.919    -0.041    29.006     8.832
    31   6 C        2.912     0.061    26.632     8.462
    32   7 N        2.824    -0.037    21.952     6.959
    33   6 C        3.160     0.105    25.374     8.235
    34   7 N        1.879    -0.295    28.501     7.914
    35   6 C        3.216     0.066    25.857     8.272
    36   6 C        2.910    -0.044    29.093     8.845
    37   6 C        2.922    -0.040    28.982     8.828
    38   6 C        2.926    -0.037    28.931     8.821
    39   6 C        2.908    -0.051    29.261     8.870
    40   6 C        3.098     0.034    27.126     8.535
    41   6 C        2.918    -0.043    29.067     8.841
    42   6 C        2.928    -0.030    28.748     8.793
    43   1 H        0.926     0.068     2.108     2.270
    44   1 H        0.926     0.062     2.172     2.305
    45   1 H        0.925     0.050     2.320     2.382
    46   1 H        0.926     0.053     2.283     2.363
    47   1 H        0.926     0.044     2.400     2.423
    48   1 H        0.926     0.039     2.467     2.456
    49   1 H        0.926     0.042     2.426     2.436
    50   1 H        0.926     0.037     2.486     2.466
    51   1 H        0.926     0.038     2.469     2.457
    52   1 H        0.926     0.037     2.488     2.467
    53   1 H        0.926     0.048     2.340     2.392
    54   1 H        0.926     0.050     2.324     2.384
    55   1 H        0.926     0.068     2.108     2.271
    56   1 H        0.926     0.062     2.170     2.304
    57   1 H        0.925     0.050     2.322     2.383
    58   1 H        0.926     0.053     2.281     2.362
    59   1 H        0.926     0.049     2.331     2.388
    60   1 H        0.926     0.038     2.470     2.457
    61   1 H        0.926     0.042     2.426     2.436
    62   1 H        0.926     0.037     2.486     2.465
    63   1 H        0.926     0.039     2.466     2.456
    64   1 H        0.926     0.038     2.481     2.463
    65   1 H        0.926     0.043     2.410     2.427
    66   1 H        0.926     0.049     2.328     2.386

molecular dipole:
                 x           y           z       tot (Debye)
 q only:        0.029       0.023       0.550
   full:        0.050      -0.038       0.799       2.038

 projected vibrational frequencies (cm⁻¹)
eigval :       -0.00    -0.00    -0.00     0.00     0.00     0.00
eigval :        7.16    10.73    13.98    21.90    22.55    27.85
eigval :       39.06    52.66    56.64    63.70    65.91    67.83
eigval :       76.37    83.30    90.56    95.91   108.47   143.53
eigval :      159.79   168.47   172.32   194.04   209.86   218.43
eigval :      220.77   223.02   232.15   235.99   255.45   308.78
eigval :      314.73   335.49   355.02   361.15   374.23   380.02
eigval :      388.30   391.09   399.18   402.62   409.79   415.52
eigval :      426.69   461.51   472.60   481.13   504.22   515.35
eigval :      525.86   541.85   548.70   550.22   553.71   562.19
eigval :      587.91   596.62   597.68   600.21   615.76   619.78
eigval :      620.37   653.94   661.94   679.31   682.19   691.93
eigval :      697.90   713.64   715.20   774.52   774.84   779.77
eigval :      782.00   802.43   802.87   820.93   823.44   825.79
eigval :      836.61   837.52   849.15   855.72   860.62   861.82
eigval :      864.42   865.79   872.25   873.15   875.91   877.51
eigval :      899.49   900.77   915.90   918.24   920.92   922.68
eigval :      926.87   930.60   939.43   973.15   973.77   979.38
eigval :      980.55  1025.41  1026.66  1038.67  1061.11  1061.24
eigval :     1096.88  1097.84  1138.61  1139.59  1149.55  1150.49
eigval :     1166.87  1170.10  1170.81  1188.90  1191.15  1198.62
eigval :     1201.17  1213.55  1214.73  1226.26  1235.39  1241.36
eigval :     1250.21  1264.17  1266.34  1277.88  1279.26  1279.97
eigval :     1291.18  1291.63  1306.49  1309.02  1322.44  1331.69
eigval :     1337.43  1338.46  1359.57  1359.76  1369.93  1381.28
eigval :     1382.81  1409.31  1410.86  1416.40  1419.06  1452.37
eigval :     1481.54  1482.15  1492.22  1493.29  1495.53  1511.16
eigval :     1511.45  1540.86  1556.90  1557.77  1580.52  1583.87
eigval :     1583.94  1585.99  1614.73  1614.81  1631.34  1632.13
eigval :     3060.11  3060.27  3076.97  3077.03  3077.73  3078.91
eigval :     3082.61  3082.64  3085.75  3086.66  3088.05  3091.07
eigval :     3091.95  3092.48  3094.45  3099.33  3102.10  3102.67
eigval :     3106.33  3106.34  3109.05  3109.30  3154.35  3154.51

   temp. (K)  partition function   enthalpy   heat capacity  entropy
                                   cal/mol     cal/K/mol   cal/K/mol   J/K/mol
 298.15  VIB  0.290E+18            20547.331    123.929    131.433
         ROT  0.144E+09              888.752      2.981     40.308
         INT  0.417E+26            21436.083    126.910    171.742
         TR   0.169E+29             1481.254      4.968     45.378
         TOT                       22917.3368   131.8785   217.1198   908.4291

       T/K    H(0)-H(T)+PV         H(T)/Eh          T*S/Eh         G(T)/Eh
   ------------------------------------------------------------------------
    298.15    0.365211E-01    0.525154E+00    0.103161E+00    0.421993E+00
   ------------------------------------------------------------------------

         :::::::::::::::::::::::::::::::::::::::::::::::::::::
         ::                  THERMODYNAMIC                  ::
         :::::::::::::::::::::::::::::::::::::::::::::::::::::
         :: total free energy        -108.836074707244 Eh   ::
         ::.................................................::
         :: total energy             -109.258067675491 Eh   ::
         :: zero point energy           0.488632477964 Eh   ::
         :: G(RRHO) w/o ZPVE           -0.066639509718 Eh   ::
         :: G(RRHO) contrib.            0.421992968247 Eh   ::
         :::::::::::::::::::::::::::::::::::::::::::::::::::::

           -------------------------------------------------
          | TOTAL ENERGY             -109.258067675491 Eh   |
          | TOTAL ENTHALPY           -108.732914096683 Eh   |
          | TOTAL FREE ENERGY        -108.836074707244 Eh   |
          | GRADIENT NORM               0.000172086380 Eh/α |
          | HOMO-LUMO GAP               2.024087283721 eV   |
           -------------------------------------------------

 * finished run on 2025/09/12 at 04:34:27.774
