   * xtb version 6.7.1 (edcfbbe) compiled by 'albert@albert-system' on 2024-07-22

   ID    Z sym.   atoms
    1   35 Br     1, 23
    2    6 C      2-10, 12, 14-22, 24-31, 33, 35-42
    3    7 N      11, 13, 32, 34
    4    1 H      43-66

          program call               : xtb data2507/toluene/3BrBI/3BrBI_toluene_S0_crest.xyz --gfn 2 --gbsa toluene --ohess vtight --parallel 40 --molden --ceasefiles --namespace data2507/toluene/3BrBI/3BrBI_toluene_S0_finalOpt
      * Solvation model:               GBSA
        Solvent                        toluene
        Solvent mass                       9.2140E+01 g/mol
          :  Hamiltonian                  GFN2-xTB          :
 * total energy  :  -109.2578830 Eh     change       -0.1422109E-08 Eh
 * total energy  :  -109.2579602 Eh     change       -0.7721231E-04 Eh
 * total energy  :  -109.2579863 Eh     change       -0.2613443E-04 Eh
 * total energy  :  -109.2579928 Eh     change       -0.6512765E-05 Eh
 * total energy  :  -109.2579979 Eh     change       -0.5091962E-05 Eh
 * total energy  :  -109.2580023 Eh     change       -0.4348237E-05 Eh
 * total energy  :  -109.2580060 Eh     change       -0.3701297E-05 Eh
 * total energy  :  -109.2580082 Eh     change       -0.2211357E-05 Eh
 * total energy  :  -109.2580101 Eh     change       -0.1871661E-05 Eh
 * total energy  :  -109.2580116 Eh     change       -0.1597071E-05 Eh
 * total energy  :  -109.2580317 Eh     change       -0.3217544E-06 Eh
 * total energy  :  -109.2580318 Eh     change       -0.3348927E-07 Eh
 * total energy  :  -109.2580320 Eh     change       -0.2001941E-06 Eh
 * total energy  :  -109.2580322 Eh     change       -0.2149583E-06 Eh
 * total energy  :  -109.2580324 Eh     change       -0.1886250E-06 Eh
 * total energy  :  -109.2580326 Eh     change       -0.2120547E-06 Eh
 * total energy  :  -109.2580327 Eh     change       -0.1702992E-06 Eh
 * total energy  :  -109.2580329 Eh     change       -0.1088141E-06 Eh
 * total energy  :  -109.2580329 Eh     change       -0.6579232E-07 Eh
   *** GEOMETRY OPTIMIZATION CONVERGED AFTER 37 ITERATIONS ***

 final structure:
================
66
 xtb: 6.7.1 (edcfbbe)
Br          -1.28691671447722        2.74341729737217       -0.52475656877028
C           -0.58998775741950        0.96161591329736       -0.38304225090236
C            0.78021126422242        0.82956224081830       -0.40149775462471
C            1.40410072062645       -0.41910830597136       -0.30013370356313
C            2.84086466157137       -0.56872954292248       -0.34411012399588
C            3.73932716294733        0.41382756586711       -0.16771887644302
C            5.17980746624378        0.27293945533326       -0.22268001867581
C            5.82853550843190       -0.93549804806078       -0.49964839304486
C            7.20396440926774       -1.01041772100757       -0.54152521079950
C            7.97835440243913        0.12521148843275       -0.31084638326790
N            9.37524744688225        0.04200920318973       -0.36915056467603
C           10.10349323725856       -0.65000511616595       -1.29898737081374
N           11.38581860972340       -0.54296535060558       -1.16035268279610
C           11.56598737853555        0.26037425043715       -0.05863632456216
C           12.73709736225058        0.68869863884825        0.55606326175670
C           12.61830666601034        1.48558727591676        1.67544874511220
C           11.36979868608898        1.84145130271375        2.18956034501500
C           10.19445629444620        1.42676281800488        1.59506140165542
C           10.30449885003041        0.64621109013898        0.45423381161680
C            7.34963675569897        1.33885368350109       -0.04467270488666
C            5.97333624315295        1.40384942884677        0.00242226294909
C            0.54228468577455       -1.52045863352243       -0.18315694238708
Br           1.23772293442397       -3.30244669285594       -0.03151123882413
C           -0.82784064125706       -1.38796309465999       -0.16069227672509
C           -1.45137040080196       -0.13890352365712       -0.25813837965934
C           -2.88968258842064        0.00394448858519       -0.26570466338970
C           -3.77149639496868       -0.92234722983738        0.14400061846961
C           -5.21414286795991       -0.79403757735788        0.12329247322189
C           -5.88474205606261        0.28075320752072       -0.47031905294444
C           -7.26158809563854        0.34769929345288       -0.47096144845035
C           -8.01370087961443       -0.65774156906097        0.13289446828326
N           -9.41314026168347       -0.60037784969726        0.12816811555023
C          -10.26212604319597       -1.64380690139850       -0.12450323953692
N          -11.51689035159558       -1.32688899740681       -0.10889343414812
C          -11.54839078513595        0.01603061332147        0.18632109527369
C          -12.63100580384596        0.87308454414969        0.34822633415259
C          -12.36429679696340        2.18783599203717        0.66842050322170
C          -11.05700272853039        2.64755714737951        0.84027778412006
C           -9.96743387336773        1.81403260834291        0.68264825063230
C          -10.22549852714146        0.49658405582950        0.33548225883797
C           -7.36307685150741       -1.73891714318980        0.72266331414972
C           -5.98624203152410       -1.80292536262169        0.71105630243365
H            1.38990197424488        1.71130238111998       -0.51602581242974
H            3.18863035366824       -1.57599856280527       -0.52014905140485
H            3.39867874409558        1.41720479777529        0.05085363158681
H            5.25676337294449       -1.83188097957063       -0.67897156254923
H            7.68869270296485       -1.95455083444469       -0.74148513306553
H            9.63249602611606       -1.20490859342422       -2.08798113281713
H           13.69796549966441        0.39511759070161        0.16388634901134
H           13.50888732298885        1.83654663432459        2.17559792328682
H           11.32317331876163        2.45392376585629        3.07785234008672
H            9.23491692339237        1.69066779604064        2.01267710520493
H            7.94233701492914        2.22845316447034        0.10355391717694
H            5.49869573995990        2.35237995980743        0.20814378630605
H           -1.43901021833902       -2.27301653450626       -0.08585408033938
H           -3.25230235456695        0.95757197007443       -0.62057373982759
H           -3.41313912324319       -1.85708944491615        0.55439636025787
H           -5.32865506216979        1.06893514577095       -0.95237190372115
H           -7.76405012173837        1.16889715583588       -0.95890536757256
H           -9.89703037089566       -2.62897517880822       -0.34472284222081
H          -13.63886749167675        0.50736256476304        0.23097777429288
H          -13.18293283437319        2.87990364264414        0.80025510334999
H          -10.89481268614726        3.68142141225389        1.10696763344122
H           -8.96188421921686        2.17467414480535        0.83655562872781
H           -7.94112551372498       -2.51898515987201        1.19550552456476
H           -5.49435213805553       -2.64569232583475        1.17469762009015

          :  Hamiltonian                  GFN2-xTB          :
         :: gradient norm              0.000065095018 Eh/a0 ::
         :: HOMO-LUMO gap              2.006003223384 eV    ::
         :: SCC energy              -111.116320979463 Eh    ::
         :: -> dispersion             -0.085399683932 Eh    ::
         :: -> Gsolv                  -0.054269498214 Eh    ::
         :: repulsion energy           1.858288056752 Eh    ::

    * Orbital Energies and Occupations

         #    Occupation            Energy/Eh            Energy/eV
      -------------------------------------------------------------
         1        2.0000           -0.8473002             -23.0562
       ...           ...                  ...                  ...
        89        2.0000           -0.4244350             -11.5495
        90        2.0000           -0.4244311             -11.5494
        91        2.0000           -0.4207397             -11.4489
        92        2.0000           -0.4185700             -11.3899
        93        2.0000           -0.4081445             -11.1062
        94        2.0000           -0.4080292             -11.1030
        95        2.0000           -0.3969034             -10.8003
        96        2.0000           -0.3955793             -10.7643
        97        2.0000           -0.3944387             -10.7332
        98        2.0000           -0.3879521             -10.5567
        99        2.0000           -0.3877906             -10.5523
       100        2.0000           -0.3858315             -10.4990
       101        2.0000           -0.3777183             -10.2782 (HOMO)
       102                         -0.3039991              -8.2722 (LUMO)
       103                         -0.2732027              -7.4342
       104                         -0.2604932              -7.0884
       105                         -0.2502242              -6.8089
       106                         -0.2459329              -6.6922
       107                         -0.2410963              -6.5606
       108                         -0.2410544              -6.5594
       109                         -0.2334526              -6.3526
       110                         -0.2185019              -5.9457
       111                         -0.2165862              -5.8936
       112                         -0.2144689              -5.8360
       ...                                ...                  ...
       202                          0.6965575              18.9543
      -------------------------------------------------------------
                  HL-Gap            0.0737192 Eh            2.0060 eV

     #   Z          covCN         q      C6AA      α(0)
     1  35 Br       1.065    -0.183   190.133    22.233
     2   6 C        2.917     0.073    26.379     8.422
     3   6 C        3.020    -0.041    28.986     8.831
     4   6 C        3.017     0.013    27.693     8.632
     5   6 C        2.901    -0.037    28.908     8.816
     6   6 C        2.902    -0.030    28.758     8.793
     7   6 C        2.969     0.016    27.648     8.625
     8   6 C        2.923    -0.029    28.720     8.788
     9   6 C        2.919    -0.042    29.053     8.839
    10   6 C        2.912     0.061    26.630     8.462
    11   7 N        2.824    -0.037    21.948     6.958
    12   6 C        3.160     0.106    25.372     8.235
    13   7 N        1.879    -0.295    28.494     7.913
    14   6 C        3.216     0.066    25.859     8.272
    15   6 C        2.910    -0.044    29.091     8.844
    16   6 C        2.922    -0.040    28.983     8.828
    17   6 C        2.926    -0.038    28.933     8.821
    18   6 C        2.908    -0.051    29.263     8.870
    19   6 C        3.098     0.034    27.126     8.536
    20   6 C        2.918    -0.041    29.024     8.834
    21   6 C        2.929    -0.030    28.760     8.795
    22   6 C        2.917     0.073    26.378     8.422
    23  35 Br       1.065    -0.184   190.145    22.233
    24   6 C        3.021    -0.041    28.985     8.831
    25   6 C        3.017     0.013    27.695     8.632
    26   6 C        2.901    -0.036    28.905     8.815
    27   6 C        2.902    -0.030    28.758     8.793
    28   6 C        2.969     0.016    27.648     8.625
    29   6 C        2.923    -0.029    28.733     8.790
    30   6 C        2.919    -0.041    29.006     8.832
    31   6 C        2.912     0.061    26.631     8.462
    32   7 N        2.824    -0.037    21.951     6.959
    33   6 C        3.160     0.105    25.373     8.235
    34   7 N        1.879    -0.295    28.499     7.914
    35   6 C        3.216     0.066    25.859     8.272
    36   6 C        2.910    -0.044    29.093     8.844
    37   6 C        2.922    -0.040    28.982     8.828
    38   6 C        2.926    -0.037    28.930     8.821
    39   6 C        2.908    -0.051    29.261     8.870
    40   6 C        3.098     0.034    27.125     8.535
    41   6 C        2.918    -0.043    29.067     8.841
    42   6 C        2.928    -0.030    28.747     8.793
    43   1 H        0.926     0.068     2.109     2.271
    44   1 H        0.926     0.062     2.172     2.305
    45   1 H        0.925     0.050     2.323     2.383
    46   1 H        0.926     0.053     2.281     2.362
    47   1 H        0.926     0.044     2.401     2.423
    48   1 H        0.926     0.039     2.465     2.455
    49   1 H        0.926     0.042     2.425     2.435
    50   1 H        0.926     0.037     2.485     2.465
    51   1 H        0.926     0.039     2.468     2.457
    52   1 H        0.926     0.037     2.485     2.465
    53   1 H        0.926     0.049     2.338     2.391
    54   1 H        0.926     0.050     2.324     2.384
    55   1 H        0.926     0.068     2.110     2.272
    56   1 H        0.926     0.062     2.170     2.304
    57   1 H        0.925     0.050     2.324     2.384
    58   1 H        0.926     0.053     2.280     2.361
    59   1 H        0.926     0.049     2.331     2.387
    60   1 H        0.926     0.038     2.469     2.457
    61   1 H        0.926     0.042     2.426     2.436
    62   1 H        0.926     0.037     2.485     2.465
    63   1 H        0.926     0.039     2.466     2.456
    64   1 H        0.926     0.038     2.481     2.463
    65   1 H        0.926     0.043     2.409     2.427
    66   1 H        0.926     0.049     2.327     2.386

molecular dipole:
                 x           y           z       tot (Debye)
 q only:        0.043       0.491       0.360
   full:        0.058       0.666       0.569       2.230

 projected vibrational frequencies (cm⁻¹)
eigval :       -0.00    -0.00    -0.00     0.00     0.00     0.00
eigval :        4.17    10.84    15.57    20.09    20.85    26.93
eigval :       33.83    52.74    57.18    61.62    66.54    68.03
eigval :       74.80    79.05    88.42    96.61   108.73   142.28
eigval :      158.85   165.98   170.51   194.06   206.34   214.44
eigval :      219.12   221.15   232.12   237.94   252.62   307.79
eigval :      313.08   335.67   356.06   358.47   373.74   375.87
eigval :      387.32   389.42   399.38   399.94   409.00   414.56
eigval :      424.97   460.59   472.65   480.94   504.37   514.13
eigval :      525.64   541.53   546.62   550.02   553.60   562.06
eigval :      589.42   596.55   597.92   600.01   615.50   619.46
eigval :      620.75   654.46   661.77   680.01   683.27   691.28
eigval :      696.81   709.54   714.76   772.87   774.90   777.93
eigval :      780.33   802.22   802.60   821.23   822.06   823.87
eigval :      834.28   835.73   847.67   854.66   858.38   859.49
eigval :      862.15   862.75   871.55   871.66   875.19   876.67
eigval :      898.93   900.99   911.43   915.61   920.09   921.01
eigval :      926.19   930.37   938.61   973.04   973.40   977.46
eigval :      978.28  1025.27  1026.63  1038.40  1060.82  1061.05
eigval :     1096.24  1099.21  1139.03  1140.08  1150.13  1151.43
eigval :     1167.20  1171.73  1172.55  1189.11  1191.90  1199.08
eigval :     1201.84  1213.43  1214.76  1226.32  1236.10  1242.63
eigval :     1252.21  1264.47  1266.72  1278.78  1279.93  1280.68
eigval :     1291.28  1291.56  1306.68  1309.20  1323.95  1332.96
eigval :     1337.98  1340.02  1359.36  1359.63  1370.76  1381.26
eigval :     1382.78  1409.10  1411.07  1416.20  1418.67  1452.47
eigval :     1481.75  1482.20  1492.35  1493.30  1495.10  1511.37
eigval :     1511.63  1539.52  1556.70  1557.58  1579.78  1583.51
eigval :     1583.76  1585.69  1614.63  1614.67  1630.38  1631.33
eigval :     3060.82  3061.20  3077.01  3077.10  3077.69  3078.73
eigval :     3082.78  3083.66  3086.07  3087.11  3089.49  3091.45
eigval :     3092.31  3092.99  3094.94  3099.60  3102.18  3102.88
eigval :     3106.48  3106.78  3110.63  3111.30  3153.71  3154.79

   temp. (K)  partition function   enthalpy   heat capacity  entropy
                                   cal/mol     cal/K/mol   cal/K/mol   J/K/mol
 298.15  VIB  0.712E+18            20609.646    123.894    132.440
         ROT  0.143E+09              888.752      2.981     40.301
         INT  0.102E+27            21498.398    126.875    172.741
         TR   0.169E+29             1481.254      4.968     45.378
         TOT                       22979.6523   131.8431   218.1188   912.6091

       T/K    H(0)-H(T)+PV         H(T)/Eh          T*S/Eh         G(T)/Eh
   ------------------------------------------------------------------------
    298.15    0.366204E-01    0.525068E+00    0.103635E+00    0.421432E+00
   ------------------------------------------------------------------------

         :::::::::::::::::::::::::::::::::::::::::::::::::::::
         ::                  THERMODYNAMIC                  ::
         :::::::::::::::::::::::::::::::::::::::::::::::::::::
         :: total free energy        -108.836600600626 Eh   ::
         ::.................................................::
         :: total energy             -109.258032925918 Eh   ::
         :: zero point energy           0.488447203050 Eh   ::
         :: G(RRHO) w/o ZPVE           -0.067014877758 Eh   ::
         :: G(RRHO) contrib.            0.421432325292 Eh   ::
         :::::::::::::::::::::::::::::::::::::::::::::::::::::

           -------------------------------------------------
          | TOTAL ENERGY             -109.258032925918 Eh   |
          | TOTAL ENTHALPY           -108.732965315892 Eh   |
          | TOTAL FREE ENERGY        -108.836600600626 Eh   |
          | GRADIENT NORM               0.000065012334 Eh/α |
          | HOMO-LUMO GAP               2.006002153411 eV   |
           -------------------------------------------------

 * finished run on 2025/09/12 at 04:39:10.444
