   * xtb version 6.7.1 (edcfbbe) compiled by 'albert@albert-system' on 2024-07-22

   ID    Z sym.   atoms
    1   35 Br     1, 23
    2    6 C      2-10, 12, 14-22, 24-31, 33, 35-42
    3    7 N      11, 13, 32, 34
    4    1 H      43-66

          program call               : xtb data2507/toluene/3BrBI/3BrBI_toluene_T1_crest.xyz --gfn 2 --uhf 2 --gbsa toluene --ohess vtight --parallel 40 --molden --ceasefiles --namespace data2507/toluene/3BrBI/3BrBI_toluene_T1_finalOpt
      * Solvation model:               GBSA
        Solvent                        toluene
        Solvent mass                       9.2140E+01 g/mol
          :  Hamiltonian                  GFN2-xTB          :
 * total energy  :  -109.1934942 Eh     change       -0.1790823E-08 Eh
 * total energy  :  -109.1935507 Eh     change       -0.5651990E-04 Eh
 * total energy  :  -109.1935681 Eh     change       -0.1739232E-04 Eh
 * total energy  :  -109.1935737 Eh     change       -0.5561351E-05 Eh
 * total energy  :  -109.1935774 Eh     change       -0.3700982E-05 Eh
 * total energy  :  -109.1935804 Eh     change       -0.3026758E-05 Eh
 * total energy  :  -109.1935831 Eh     change       -0.2671270E-05 Eh
 * total energy  :  -109.1935853 Eh     change       -0.2207304E-05 Eh
 * total energy  :  -109.1935872 Eh     change       -0.1924129E-05 Eh
 * total energy  :  -109.1935893 Eh     change       -0.2090498E-05 Eh
 * total energy  :  -109.1936730 Eh     change       -0.1911425E-06 Eh
 * total energy  :  -109.1936732 Eh     change       -0.1943617E-06 Eh
 * total energy  :  -109.1936732 Eh     change       -0.1694126E-07 Eh
 * total energy  :  -109.1936734 Eh     change       -0.1339986E-06 Eh
 * total energy  :  -109.1936735 Eh     change       -0.1696266E-06 Eh
 * total energy  :  -109.1936735 Eh     change        0.1567746E-07 Eh
 * total energy  :  -109.1936737 Eh     change       -0.1773453E-06 Eh
 * total energy  :  -109.1936738 Eh     change       -0.1422896E-06 Eh
 * total energy  :  -109.1936738 Eh     change       -0.3519546E-08 Eh
   *** GEOMETRY OPTIMIZATION CONVERGED AFTER 61 ITERATIONS ***

 final structure:
================
66
 xtb: 6.7.1 (edcfbbe)
Br          -1.25936675570597        2.63842968077596       -0.93502009474388
C           -0.56678099944871        0.90601531561191       -0.48773087343844
C            0.78190228385652        0.77590699438538       -0.45316207218944
C            1.42719042735632       -0.45784615205228       -0.13303663882816
C            2.81418651006330       -0.60831290481766       -0.08857260857377
C            3.76428163765396        0.37214663290560       -0.33352848341669
C            5.16664384978171        0.19563057720220       -0.28241166596516
C            5.80080139251728       -1.02885230042554        0.03446129590008
C            7.16741792427363       -1.13548890228363        0.06655908181809
C            7.97616321306999       -0.02609215679468       -0.20849274015743
N            9.36433356763637       -0.15021042260826       -0.18148132975181
C           10.08767521151919       -1.21313118097176       -0.65969104446463
N           11.36976821299908       -1.06670734720846       -0.57226063192605
C           11.55822760354621        0.16164084073792        0.01805375092774
C           12.73303580766038        0.81248047259154        0.37378537073073
C           12.62267501732788        2.04533445245977        0.98499979101847
C           11.37859618876917        2.61660831111840        1.25600309429202
C           10.19867193187791        1.98686355906466        0.90905137060350
C           10.30047996817304        0.76138550932051        0.26801127116682
C            7.37278664435453        1.19426827331527       -0.53465916080637
C            6.00659798879654        1.29874488859690       -0.56915026896398
C            0.52331038709116       -1.53633763217987        0.14287176792544
Br           1.21560664640640       -3.26917646079671        0.59043745453568
C           -0.82532623103609       -1.40635340326663        0.10731917286117
C           -1.47068622132297       -0.17224208715078       -0.21115588268089
C           -2.85788293051024       -0.02152064463204       -0.25140215114127
C           -3.80624437935949       -1.00480598786547       -0.01120435271332
C           -5.20912132232383       -0.82973447270336       -0.05269831257226
C           -5.84724973506265        0.39703131436973       -0.35104014161398
C           -7.21444951369856        0.50379319924528       -0.36909353685208
C           -8.01906577549427       -0.60736304446256       -0.09189108157224
N           -9.40922603913373       -0.50597457408770       -0.11798970289910
C          -10.27512759535809       -1.42935277306708       -0.64611373189179
N          -11.52025521712638       -1.08361186364505       -0.59085076126033
C          -11.53174126982251        0.14458915352254        0.02878291331156
C          -12.60041220258717        0.96287802485192        0.37315993076550
C          -12.31664006224215        2.14681040499784        1.02391463458634
C          -11.00695836988958        2.50937848003343        1.34163044071704
C           -9.93018352511418        1.71079536710144        1.00697533369934
C          -10.20382736917803        0.53200625386141        0.32984732545425
C           -7.41146637948819       -1.83700698934636        0.19056381422801
C           -6.04528089187241       -1.94118896481875        0.21297272528181
H            1.40004434102612        1.63062121740984       -0.67458076982751
H            3.17495889653699       -1.59417577069823        0.16529118162315
H            3.43283703982513        1.36877893692852       -0.58808882034803
H            5.20818356838723       -1.89954931322245        0.26439383010959
H            7.63020580868139       -2.07615922351430        0.32645586105148
H            9.61178496851730       -2.06943261391065       -1.09798677729189
H           13.69045160465110        0.35515151633039        0.18103932017846
H           13.51686004378368        2.57806018418358        1.27270227030491
H           11.33702243417064        3.57432342673987        1.75301217911023
H            9.24268543209494        2.42921966062618        1.14287355648159
H            7.99078022931385        2.04227302225544       -0.78678332529084
H            5.55347869800689        2.24337842842459       -0.83231073611813
H           -1.44327632186602       -2.26127593953067        0.32834910118394
H           -3.21984566145696        0.96571319572976       -0.49820214355083
H           -3.47269445913032       -2.00410086261201        0.22960211513397
H           -5.25720885155477        1.26957772144154       -0.58077551263938
H           -7.67989652822875        1.44288184789887       -0.62676669711923
H           -9.92655564994491       -2.34013140668525       -1.09424141075041
H          -13.61127950157881        0.66634021954904        0.14264218293670
H          -13.12473659172929        2.80546038940299        1.30540304586738
H          -10.83095755687898        3.43640894511431        1.86656754687608
H           -8.92398431912427        1.99190881017101        1.27668626396137
H           -8.02744528406624       -2.69615754706348        0.41136139658343
H           -5.58914813279697       -2.89238215934797        0.44522669923108

          :  Hamiltonian                  GFN2-xTB          :
         :: gradient norm              0.000191951231 Eh/a0 ::
         :: HOMO-LUMO gap              0.959004328773 eV    ::
         :: SCC energy              -111.037714359391 Eh    ::
         :: -> dispersion             -0.085486431679 Eh    ::
         :: -> Gsolv                  -0.053193796054 Eh    ::
         :: repulsion energy           1.844040521732 Eh    ::

    * Orbital Energies and Occupations

         #    Occupation            Energy/Eh            Energy/eV
      -------------------------------------------------------------
         1        2.0000           -0.8456911             -23.0124
       ...           ...                  ...                  ...
        90        2.0000           -0.4252943             -11.5728
        91        2.0000           -0.4189893             -11.4013
        92        2.0000           -0.4168372             -11.3427
        93        2.0000           -0.4065651             -11.0632
        94        2.0000           -0.4063343             -11.0569
        95        2.0000           -0.3994491             -10.8696
        96        2.0000           -0.3989058             -10.8548
        97        2.0000           -0.3958294             -10.7711
        98        2.0000           -0.3914738             -10.6525
        99        2.0000           -0.3913954             -10.6504
       100        2.0000           -0.3873007             -10.5390
       101        1.0000           -0.3681942             -10.0191
       102        1.0000           -0.3121221              -8.4933 (HOMO)
       103                         -0.2768794              -7.5343 (LUMO)
       104                         -0.2531021              -6.8873
       105                         -0.2499744              -6.8021
       106                         -0.2494530              -6.7880
       107                         -0.2393200              -6.5122
       108                         -0.2393138              -6.5121
       109                         -0.2335667              -6.3557
       110                         -0.2200124              -5.9868
       111                         -0.2166136              -5.8944
       112                         -0.2105541              -5.7295
       113                         -0.2102851              -5.7221
       ...                                ...                  ...
       202                          0.6943696              18.8948
      -------------------------------------------------------------
                  HL-Gap            0.0352427 Eh            0.9590 eV

     #   Z          covCN         q      C6AA      α(0)
     1  35 Br       1.072    -0.187   190.247    22.239
     2   6 C        2.907     0.068    26.472     8.437
     3   6 C        3.021    -0.043    29.054     8.842
     4   6 C        3.007     0.003    27.945     8.671
     5   6 C        2.903    -0.033    28.822     8.803
     6   6 C        2.904    -0.039    28.966     8.825
     7   6 C        2.966     0.020    27.570     8.613
     8   6 C        2.919    -0.030    28.748     8.792
     9   6 C        2.916    -0.041    29.024     8.834
    10   6 C        2.912     0.058    26.690     8.471
    11   7 N        2.822    -0.027    21.774     6.930
    12   6 C        3.155     0.104    25.428     8.246
    13   7 N        1.879    -0.286    28.263     7.881
    14   6 C        3.213     0.067    25.879     8.279
    15   6 C        2.910    -0.042    29.035     8.836
    16   6 C        2.922    -0.037    28.925     8.820
    17   6 C        2.925    -0.036    28.901     8.816
    18   6 C        2.908    -0.048    29.191     8.859
    19   6 C        3.094     0.033    27.148     8.540
    20   6 C        2.914    -0.040    28.994     8.830
    21   6 C        2.926    -0.032    28.799     8.801
    22   6 C        2.907     0.068    26.471     8.436
    23  35 Br       1.071    -0.188   190.262    22.240
    24   6 C        3.021    -0.043    29.054     8.842
    25   6 C        3.008     0.003    27.944     8.671
    26   6 C        2.903    -0.033    28.822     8.803
    27   6 C        2.905    -0.039    28.965     8.825
    28   6 C        2.966     0.020    27.569     8.612
    29   6 C        2.919    -0.031    28.763     8.795
    30   6 C        2.915    -0.039    28.982     8.828
    31   6 C        2.912     0.058    26.691     8.472
    32   7 N        2.822    -0.028    21.776     6.931
    33   6 C        3.155     0.104    25.430     8.246
    34   7 N        1.879    -0.286    28.269     7.882
    35   6 C        3.213     0.067    25.879     8.279
    36   6 C        2.910    -0.042    29.037     8.836
    37   6 C        2.922    -0.037    28.924     8.819
    38   6 C        2.925    -0.036    28.898     8.816
    39   6 C        2.908    -0.048    29.189     8.859
    40   6 C        3.095     0.033    27.146     8.539
    41   6 C        2.915    -0.042    29.033     8.836
    42   6 C        2.926    -0.031    28.784     8.798
    43   1 H        0.926     0.060     2.195     2.317
    44   1 H        0.926     0.060     2.199     2.319
    45   1 H        0.926     0.044     2.391     2.418
    46   1 H        0.926     0.053     2.287     2.365
    47   1 H        0.926     0.044     2.399     2.422
    48   1 H        0.926     0.042     2.418     2.432
    49   1 H        0.926     0.045     2.378     2.411
    50   1 H        0.926     0.041     2.437     2.441
    51   1 H        0.926     0.042     2.425     2.435
    52   1 H        0.926     0.041     2.436     2.441
    53   1 H        0.926     0.049     2.331     2.388
    54   1 H        0.926     0.048     2.341     2.393
    55   1 H        0.926     0.060     2.196     2.317
    56   1 H        0.926     0.060     2.196     2.317
    57   1 H        0.926     0.044     2.394     2.420
    58   1 H        0.926     0.053     2.282     2.363
    59   1 H        0.926     0.050     2.325     2.384
    60   1 H        0.926     0.042     2.423     2.434
    61   1 H        0.926     0.045     2.378     2.412
    62   1 H        0.926     0.041     2.437     2.441
    63   1 H        0.926     0.042     2.423     2.434
    64   1 H        0.926     0.041     2.433     2.439
    65   1 H        0.926     0.043     2.407     2.426
    66   1 H        0.926     0.048     2.345     2.395

molecular dipole:
                 x           y           z       tot (Debye)
 q only:        0.053       0.710       0.353
   full:        0.071       0.890       0.491       2.589

 projected vibrational frequencies (cm⁻¹)
eigval :       -0.00    -0.00    -0.00     0.00     0.00     0.00
eigval :       -2.15     7.44    11.65    13.80    21.00    26.30
eigval :       32.83    55.60    57.69    61.97    64.18    72.67
eigval :       77.89    91.82   102.87   109.33   130.25   153.24
eigval :      157.36   182.24   185.02   191.53   199.57   209.35
eigval :      214.69   215.80   230.21   234.22   247.42   297.94
eigval :      312.51   338.49   352.06   353.46   368.34   372.99
eigval :      375.85   383.66   391.87   393.85   397.46   397.58
eigval :      413.54   459.10   462.81   483.87   498.40   498.74
eigval :      530.14   536.48   546.63   547.18   548.78   553.94
eigval :      561.34   594.58   595.07   596.03   605.92   615.81
eigval :      616.16   632.69   654.89   674.13   674.43   681.20
eigval :      689.45   712.66   713.88   764.74   770.26   773.78
eigval :      774.19   799.47   800.24   809.77   812.58   823.29
eigval :      826.63   829.54   830.74   833.04   836.89   841.06
eigval :      853.45   856.24   868.01   868.22   871.63   872.04
eigval :      877.00   882.69   899.71   900.47   907.61   913.05
eigval :      914.44   918.32   919.11   923.97   924.47   951.60
eigval :      962.43   999.46  1014.69  1015.31  1060.09  1060.85
eigval :     1091.05  1093.44  1131.35  1136.54  1137.60  1145.72
eigval :     1148.04  1161.18  1169.71  1171.48  1184.12  1196.57
eigval :     1197.36  1208.17  1208.91  1219.23  1221.16  1236.58
eigval :     1244.41  1245.61  1261.37  1263.33  1275.28  1276.52
eigval :     1285.37  1286.89  1298.07  1308.81  1312.74  1338.82
eigval :     1342.54  1356.80  1358.05  1366.02  1368.62  1374.11
eigval :     1393.42  1394.91  1406.42  1414.77  1426.02  1431.61
eigval :     1440.26  1474.72  1477.78  1482.94  1486.81  1489.90
eigval :     1501.81  1502.42  1507.91  1508.51  1518.57  1554.17
eigval :     1569.44  1580.32  1581.79  1582.39  1607.24  1607.55
eigval :     3070.40  3071.21  3078.33  3079.21  3080.26  3080.63
eigval :     3084.03  3085.97  3086.18  3090.21  3091.03  3091.94
eigval :     3094.45  3095.51  3095.61  3099.59  3103.95  3104.10
eigval :     3106.48  3107.24  3111.86  3112.23  3156.89  3157.39

   temp. (K)  partition function   enthalpy   heat capacity  entropy
                                   cal/mol     cal/K/mol   cal/K/mol   J/K/mol
 298.15  VIB  0.244E+19            20735.316    125.510    133.755
         ROT  0.144E+09              888.752      2.981     40.306
         INT  0.350E+27            21624.068    128.491    174.061
         TR   0.169E+29             1481.254      4.968     45.378
         TOT                       23105.3219   133.4592   219.4386   918.1312

       T/K    H(0)-H(T)+PV         H(T)/Eh          T*S/Eh         G(T)/Eh
   ------------------------------------------------------------------------
    298.15    0.368207E-01    0.522191E+00    0.104262E+00    0.417929E+00
   ------------------------------------------------------------------------

         :::::::::::::::::::::::::::::::::::::::::::::::::::::
         ::                  THERMODYNAMIC                  ::
         :::::::::::::::::::::::::::::::::::::::::::::::::::::
         :: total free energy        -108.775745055317 Eh   ::
         ::.................................................::
         :: total energy             -109.193673841968 Eh   ::
         :: zero point energy           0.485370485391 Eh   ::
         :: G(RRHO) w/o ZPVE           -0.067441698740 Eh   ::
         :: G(RRHO) contrib.            0.417928786651 Eh   ::
         :::::::::::::::::::::::::::::::::::::::::::::::::::::

           -------------------------------------------------
          | TOTAL ENERGY             -109.193673841968 Eh   |
          | TOTAL ENTHALPY           -108.671482682452 Eh   |
          | TOTAL FREE ENERGY        -108.775745055317 Eh   |
          | GRADIENT NORM               0.000192027886 Eh/α |
          | HOMO-LUMO GAP               0.959003549922 eV   |
           -------------------------------------------------

 * finished run on 2025/09/12 at 04:43:13.049
