   * xtb version 6.7.1 (edcfbbe) compiled by 'albert@albert-system' on 2024-07-22

   ID    Z sym.   atoms
    1    7 N      1, 20
    2    6 C      2-19, 21-34, 36-45
    3    8 O      35
    4    1 H      46-69

          program call               : xtb data2507/gas/p-PO-ABN/p-PO-ABN.xyz --gfn 2 --ohess vtight --parallel 40 --molden --ceasefiles --namespace data2507/gas/p-PO-ABN/p-PO-ABN_gas_S0_preOpt
          :  Hamiltonian                  GFN2-xTB          :
 * total energy  :  -112.0741561 Eh     change       -0.4446065E-08 Eh
 * total energy  :  -112.0888688 Eh     change       -0.1471268E-01 Eh
 * total energy  :  -112.0927325 Eh     change       -0.3863727E-02 Eh
 * total energy  :  -112.0933106 Eh     change       -0.5780907E-03 Eh
 * total energy  :  -112.0935248 Eh     change       -0.2141815E-03 Eh
 * total energy  :  -112.0935774 Eh     change       -0.5260926E-04 Eh
 * total energy  :  -112.0935030 Eh     change        0.7443334E-04 Eh
 * total energy  :  -112.0936326 Eh     change       -0.1296569E-03 Eh
 * total energy  :  -112.0936664 Eh     change       -0.3372841E-04 Eh
 * total energy  :  -112.0936819 Eh     change       -0.1556445E-04 Eh
 * total energy  :  -112.0937648 Eh     change       -0.3208421E-06 Eh
 * total energy  :  -112.0937651 Eh     change       -0.3752619E-06 Eh
 * total energy  :  -112.0937655 Eh     change       -0.3982995E-06 Eh
 * total energy  :  -112.0937660 Eh     change       -0.4554081E-06 Eh
 * total energy  :  -112.0937665 Eh     change       -0.4832430E-06 Eh
 * total energy  :  -112.0937668 Eh     change       -0.3763610E-06 Eh
 * total energy  :  -112.0937671 Eh     change       -0.2264226E-06 Eh
 * total energy  :  -112.0937672 Eh     change       -0.1026611E-06 Eh
 * total energy  :  -112.0937673 Eh     change       -0.8681457E-07 Eh
   *** GEOMETRY OPTIMIZATION CONVERGED AFTER 35 ITERATIONS ***

 final structure:
================
69
 xtb: 6.7.1 (edcfbbe)
N          -12.00100099516312       -0.11922607686835       -0.00316733624301
C          -10.85480727044646       -0.09105497814235       -0.00242538399896
C           -9.44174903519954       -0.05700281082036       -0.00125132626185
C           -8.77331432363643        1.16795638802394        0.01459726937442
C           -7.39339248715218        1.19435946801781        0.01534999616549
C           -6.66275414969496        0.00903977761096        0.00044848880849
C           -5.18229529471473        0.04125799134108        0.00086063695629
C           -4.48905153868628        0.03786852225895        1.21717121484375
C           -5.16652537185502        0.01396412557763        2.46465148274892
C           -4.47790076846404        0.01138899829548        3.63815869820635
C           -3.06807534161379        0.03197194337227        3.63766574055937
C           -2.38087499288362        0.05402559507714        2.46354210453497
C           -3.05990692744526        0.05788118324275        1.21680023398073
C           -2.36572654348051        0.08019703416246        0.00109046641952
C           -0.88495575072261        0.08579596423862        0.00099785123872
C           -0.18128882601824       -1.11508585256985       -0.01125308328561
C            1.19855329462314       -1.11903178501449       -0.01157234206559
C            1.90006903638952        0.08645771261747        0.00059521100418
C            3.34417902572201        0.10343222773840        0.00073537226911
N            4.09491183695625        1.16729372145665        0.01277469837737
C            5.37716256470651        0.69960283341362        0.00761137548440
C            6.61465223482905        1.40239126506516        0.01586259765114
C            6.66087461560800        2.79963548955596        0.03190213037174
C            7.86834166776705        3.45280663243418        0.03972491527645
C            9.04782201303322        2.71107223216310        0.03153273838332
C            9.01448444799782        1.33616193746594        0.01572132627882
C            7.80185724274373        0.62975317862053        0.00728457896968
C            7.74438258722373       -0.82230766442342       -0.00940176037447
C            8.89348687033903       -1.62635902048847       -0.01854960359186
C            8.81586341275619       -2.99977645927913       -0.03435282391085
C            7.58049367433353       -3.64450389430675       -0.04184828504383
C            6.42988126797155       -2.89711816515911       -0.03334100096954
C            6.49651662368038       -1.49822844542470       -0.01728190985182
C            5.33837080363313       -0.68533517092289       -0.00809270640598
O            4.03983275610061       -1.06481839906401       -0.01244209345356
C            1.19729987283919        1.29231630062256        0.01293470285882
C           -0.18160808629984        1.28800568693205        0.01301423087724
C           -3.06015367226430        0.09043963499329       -1.21464544046286
C           -2.38136620482406        0.11939608665692       -2.46119052885861
C           -3.06879877038324        0.12851513914093       -3.63534778210878
C           -4.47862464751691        0.10815153567937       -3.63609673285086
C           -5.16701260035193        0.07965750113879       -2.46279547094731
C           -4.48929344867073        0.07041975380119       -1.21525466011281
C           -7.33653238657677       -1.20962369950343       -0.01517110907469
C           -8.71602063719520       -1.24894610571812       -0.01611725768478
H           -9.34167229591905        2.08639397296104        0.02609144395657
H           -6.86909942930742        2.13868091489479        0.02749720731854
H           -6.24688764348588       -0.00118115809215        2.46463970766488
H           -5.00564247234080       -0.00599816148880        4.58029200033215
H           -2.53989569051085        0.03045561219019        4.57964225243559
H           -1.30083600672622        0.07082647399981        2.45969511686746
H           -0.72723284561749       -2.04741003407172       -0.02057856531617
H            1.74250930239780       -2.05136819275039       -0.02114726180313
H            5.72527507349664        3.33701617459601        0.03782975262604
H            7.90874024388969        4.53177067547287        0.05212789417960
H           10.00016243769537        3.22115011358903        0.03768529906342
H            9.95180761692844        0.80308047432646        0.00990970450864
H            9.87066955664305       -1.17093938521915       -0.01324790716533
H            9.72330671822561       -3.58562305540981       -0.04100353984087
H            7.53294069654254       -4.72309283948116       -0.05425350227356
H            5.45767382901183       -3.36716198633039       -0.03885202584564
H            1.75524928384571        2.21487622075704        0.02234554803781
H           -0.72899715159708        2.21927770643148        0.02242617374845
H           -1.30132322202625        0.13576294938767       -2.45712889831726
H           -2.54079973529114        0.15176495043015       -4.57713921349908
H           -5.00656295439450        0.11573777021735       -4.57824692829934
H           -6.24737141149891        0.06448413414388       -2.46298865445648
H           -6.76791010376074       -2.12795963402227       -0.02670386570739
H           -9.24010957419656       -2.19334402954044       -0.02831916229655

          :  Hamiltonian                  GFN2-xTB          :
         :: gradient norm              0.000053648553 Eh/a0 ::
         :: HOMO-LUMO gap              2.195662893369 eV    ::
         :: SCC energy              -114.222349621669 Eh    ::
         :: -> dispersion             -0.096909587800 Eh    ::
         :: repulsion energy           2.128582358803 Eh    ::

    * Orbital Energies and Occupations

         #    Occupation            Energy/Eh            Energy/eV
      -------------------------------------------------------------
         1        2.0000           -0.7506067             -20.4250
       ...           ...                  ...                  ...
        92        2.0000           -0.4222416             -11.4898
        93        2.0000           -0.4187351             -11.3944
        94        2.0000           -0.4179858             -11.3740
        95        2.0000           -0.4173367             -11.3563
        96        2.0000           -0.4144447             -11.2776
        97        2.0000           -0.4130160             -11.2387
        98        2.0000           -0.4128136             -11.2332
        99        2.0000           -0.4079968             -11.1022
       100        2.0000           -0.4058119             -11.0427
       101        2.0000           -0.3944112             -10.7325
       102        2.0000           -0.3907458             -10.6327
       103        2.0000           -0.3743602             -10.1869
       104        2.0000           -0.3688340             -10.0365 (HOMO)
       105                         -0.2881449              -7.8408 (LUMO)
       106                         -0.2754948              -7.4966
       107                         -0.2738779              -7.4526
       108                         -0.2570272              -6.9941
       109                         -0.2501764              -6.8076
       110                         -0.2459002              -6.6913
       111                         -0.2398514              -6.5267
       112                         -0.2347194              -6.3870
       113                         -0.2288370              -6.2270
       114                         -0.2152304              -5.8567
       115                         -0.2063156              -5.6141
       ...                                ...                  ...
       204                          1.1709170              31.8623
      -------------------------------------------------------------
                  HL-Gap            0.0806891 Eh            2.1957 eV

     #   Z          covCN         q      C6AA      α(0)
     1   7 N        0.911    -0.235    26.148     7.396
     2   6 C        1.912     0.111    28.352     8.599
     3   6 C        2.974     0.017    27.629     8.622
     4   6 C        2.925    -0.020    28.516     8.757
     5   6 C        2.923    -0.029    28.722     8.789
     6   6 C        2.977     0.026    27.421     8.590
     7   6 C        2.978    -0.009    28.230     8.715
     8   6 C        2.984     0.007    27.855     8.657
     9   6 C        2.917    -0.034    28.847     8.807
    10   6 C        2.914    -0.028    28.705     8.786
    11   6 C        2.914    -0.028    28.712     8.787
    12   6 C        2.917    -0.033    28.821     8.803
    13   6 C        2.985     0.007    27.853     8.657
    14   6 C        2.978    -0.005    28.133     8.700
    15   6 C        2.978     0.020    27.556     8.611
    16   6 C        2.923    -0.031    28.776     8.797
    17   6 C        2.922    -0.028    28.706     8.786
    18   6 C        2.975    -0.004    28.114     8.697
    19   6 C        3.234     0.214    22.759     7.742
    20   7 N        1.882    -0.291    28.407     7.901
    21   6 C        3.168     0.056    26.402     8.395
    22   6 C        2.986     0.002    27.983     8.677
    23   6 C        2.921    -0.029    28.721     8.788
    24   6 C        2.917    -0.029    28.717     8.788
    25   6 C        2.917    -0.030    28.761     8.794
    26   6 C        2.922    -0.033    28.818     8.803
    27   6 C        2.978    -0.000    28.032     8.685
    28   6 C        2.981     0.002    27.964     8.674
    29   6 C        2.921    -0.032    28.793     8.800
    30   6 C        2.917    -0.030    28.756     8.794
    31   6 C        2.917    -0.029    28.724     8.789
    32   6 C        2.920    -0.031    28.763     8.795
    33   6 C        2.983    -0.006    28.157     8.704
    34   6 C        3.116     0.106    25.498     8.271
    35   8 O        1.724    -0.220    17.652     5.673
    36   6 C        2.924    -0.029    28.713     8.787
    37   6 C        2.922    -0.030    28.738     8.791
    38   6 C        2.985     0.007    27.853     8.657
    39   6 C        2.917    -0.033    28.821     8.803
    40   6 C        2.914    -0.028    28.712     8.787
    41   6 C        2.914    -0.028    28.705     8.786
    42   6 C        2.917    -0.034    28.847     8.807
    43   6 C        2.984     0.007    27.855     8.657
    44   6 C        2.923    -0.029    28.722     8.789
    45   6 C        2.925    -0.020    28.516     8.757
    46   1 H        0.926     0.042     2.416     2.431
    47   1 H        0.926     0.039     2.463     2.454
    48   1 H        0.926     0.028     2.611     2.527
    49   1 H        0.926     0.032     2.555     2.500
    50   1 H        0.926     0.032     2.551     2.498
    51   1 H        0.926     0.032     2.551     2.498
    52   1 H        0.926     0.036     2.503     2.474
    53   1 H        0.926     0.046     2.368     2.406
    54   1 H        0.926     0.052     2.295     2.369
    55   1 H        0.926     0.034     2.526     2.485
    56   1 H        0.926     0.033     2.551     2.498
    57   1 H        0.926     0.035     2.518     2.482
    58   1 H        0.926     0.038     2.480     2.462
    59   1 H        0.926     0.034     2.534     2.489
    60   1 H        0.926     0.034     2.529     2.487
    61   1 H        0.926     0.040     2.450     2.448
    62   1 H        0.926     0.059     2.208     2.324
    63   1 H        0.926     0.039     2.466     2.455
    64   1 H        0.926     0.032     2.551     2.498
    65   1 H        0.926     0.032     2.551     2.498
    66   1 H        0.926     0.032     2.555     2.500
    67   1 H        0.926     0.028     2.611     2.527
    68   1 H        0.926     0.039     2.468     2.457
    69   1 H        0.926     0.042     2.418     2.431

molecular dipole:
                 x           y           z       tot (Debye)
 q only:        1.328      -0.032       0.000
   full:        1.880      -0.415      -0.004       4.893

 projected vibrational frequencies (cm⁻¹)
eigval :       -0.00    -0.00    -0.00    -0.00     0.00     0.00
eigval :      -26.97   -14.15    11.58    11.61    24.49    32.82
eigval :       36.24    49.42    67.88    76.40    79.76    86.27
eigval :      102.78   103.93   111.68   115.42   133.76   169.13
eigval :      180.47   180.76   194.64   206.13   209.41   225.33
eigval :      246.73   257.17   278.72   288.25   302.36   358.91
eigval :      363.88   374.03   374.38   383.19   396.59   399.34
eigval :      407.46   409.28   412.89   432.55   439.40   443.46
eigval :      446.49   451.66   457.63   489.04   492.14   523.56
eigval :      525.73   534.08   535.06   543.10   578.86   583.18
eigval :      585.39   589.00   592.93   605.50   621.12   630.97
eigval :      641.70   656.64   662.72   664.56   677.26   682.91
eigval :      691.52   691.80   695.12   714.67   732.07   738.09
eigval :      739.81   768.05   771.42   773.41   775.04   784.45
eigval :      787.40   811.31   819.38   866.68   869.84   872.31
eigval :      873.52   875.20   877.06   898.43   910.00   911.58
eigval :      915.32   915.65   916.78   917.71   918.05   925.58
eigval :      925.70   926.34   927.48   928.00   928.14   928.43
eigval :      933.42   940.41   955.41  1010.68  1019.39  1022.18
eigval :     1054.34  1078.08  1078.95  1081.28  1086.34  1099.70
eigval :     1127.30  1130.97  1135.18  1142.83  1144.86  1158.44
eigval :     1179.86  1182.75  1182.87  1183.61  1185.10  1185.87
eigval :     1206.10  1208.66  1216.14  1226.66  1242.75  1252.86
eigval :     1255.36  1257.88  1262.97  1263.41  1265.96  1279.44
eigval :     1289.96  1305.73  1312.60  1317.05  1330.53  1343.48
eigval :     1344.67  1349.87  1373.92  1385.84  1391.94  1399.82
eigval :     1404.80  1407.31  1419.79  1430.10  1431.22  1434.67
eigval :     1445.47  1466.17  1485.68  1496.06  1517.18  1518.09
eigval :     1527.13  1534.79  1544.36  1548.87  1549.19  1557.73
eigval :     1567.61  1577.75  1591.00  1594.24  1595.31  1605.70
eigval :     1608.36  1623.27  2375.61  3075.07  3075.15  3075.84
eigval :     3078.02  3079.13  3079.15  3080.92  3082.40  3083.68
eigval :     3084.26  3085.08  3087.26  3087.52  3088.00  3093.82
eigval :     3094.14  3094.45  3095.31  3095.34  3097.60  3099.67
eigval :     3104.94  3110.43  3113.02

   temp. (K)  partition function   enthalpy   heat capacity  entropy
                                   cal/mol     cal/K/mol   cal/K/mol   J/K/mol
 298.15  VIB  0.117E+16            19476.242    125.290    120.497
         ROT  0.833E+08              888.752      2.981     39.225
         INT  0.972E+23            20364.994    128.271    159.722
         TR   0.133E+29             1481.254      4.968     44.899
         TOT                       21846.2483   133.2393   204.6216   856.1367

       T/K    H(0)-H(T)+PV         H(T)/Eh          T*S/Eh         G(T)/Eh
   ------------------------------------------------------------------------
    298.15    0.348142E-01    0.550742E+00    0.972223E-01    0.453520E+00
   ------------------------------------------------------------------------

         :::::::::::::::::::::::::::::::::::::::::::::::::::::
         ::                  THERMODYNAMIC                  ::
         :::::::::::::::::::::::::::::::::::::::::::::::::::::
         :: total free energy        -111.640247213108 Eh   ::
         ::.................................................::
         :: total energy             -112.093767262863 Eh   ::
         :: zero point energy           0.515928157668 Eh   ::
         :: G(RRHO) w/o ZPVE           -0.062408107913 Eh   ::
         :: G(RRHO) contrib.            0.453520049755 Eh   ::
         :::::::::::::::::::::::::::::::::::::::::::::::::::::

           -------------------------------------------------
          | TOTAL ENERGY             -112.093767262863 Eh   |
          | TOTAL ENTHALPY           -111.543024892548 Eh   |
          | TOTAL FREE ENERGY        -111.640247213108 Eh   |
          | GRADIENT NORM               0.000053638767 Eh/α |
          | HOMO-LUMO GAP               2.195662938287 eV   |
           -------------------------------------------------

 * finished run on 2025/09/02 at 19:28:06.254
