   * xtb version 6.7.1 (edcfbbe) compiled by 'albert@albert-system' on 2024-07-22

   ID    Z sym.   atoms
    1    7 N      1, 20
    2    6 C      2-19, 21-34, 36-45
    3    8 O      35
    4    1 H      46-69

          program call               : xtb data2507/gas/p-PO-ABN/p-PO-ABN_gas_S0_finalOpt.xtbopt.xyz --gfn 2 --spinpol --tblite --uhf 2 --ohess vtight --parallel 40 --molden --ceasefiles --namespace data2507/gas/p-PO-ABN/p-PO-ABN_gas_T1_preOpt
 * total energy  :  -112.0229711 Eh     change       -0.1253713E-07 Eh
 * total energy  :  -112.0290468 Eh     change       -0.6075683E-02 Eh
 * total energy  :  -112.0305537 Eh     change       -0.1506889E-02 Eh
 * total energy  :  -112.0307247 Eh     change       -0.1710128E-03 Eh
 * total energy  :  -112.0309216 Eh     change       -0.1968534E-03 Eh
 * total energy  :  -112.0311078 Eh     change       -0.1862654E-03 Eh
 * total energy  :  -112.0312731 Eh     change       -0.1652816E-03 Eh
 * total energy  :  -112.0315565 Eh     change       -0.2833566E-03 Eh
 * total energy  :  -112.0317241 Eh     change       -0.1676479E-03 Eh
 * total energy  :  -112.0318416 Eh     change       -0.1175459E-03 Eh
 * total energy  :  -112.0326356 Eh     change       -0.6470167E-06 Eh
 * total energy  :  -112.0326363 Eh     change       -0.6369147E-06 Eh
 * total energy  :  -112.0326369 Eh     change       -0.6379066E-06 Eh
 * total energy  :  -112.0326375 Eh     change       -0.6237278E-06 Eh
 * total energy  :  -112.0326382 Eh     change       -0.6281485E-06 Eh
 * total energy  :  -112.0326388 Eh     change       -0.6112849E-06 Eh
 * total energy  :  -112.0326395 Eh     change       -0.6933540E-06 Eh
 * total energy  :  -112.0326401 Eh     change       -0.5991324E-06 Eh
 * total energy  :  -112.0326401 Eh     change       -0.2656067E-07 Eh
   *** GEOMETRY OPTIMIZATION CONVERGED AFTER 152 ITERATIONS ***

 final structure:
================
69
 xtb: 6.7.1 (edcfbbe)
N          -11.90138089203053        0.07404320255354        0.03727305377260
C          -10.75375106581926        0.05955895672711        0.02894644336024
C           -9.34391909073817        0.04209349009873        0.01884095991696
C           -8.64750621474286        0.17924533382115       -1.18591134338080
C           -7.27122821185999        0.17058155600689       -1.18955389384836
C           -6.54658629976186        0.00858917403966       -0.00097993001775
C           -5.08924303417866       -0.00791366870046       -0.01103744660065
C           -4.36848113567301        1.08391578414579       -0.59012410139339
C           -5.02126338881112        2.21768103451599       -1.08220137125521
C           -4.32447846683521        3.23556109067318       -1.72673252043054
C           -2.96078208651538        3.12907371662210       -1.89827711601468
C           -2.27838074002145        2.04045112662332       -1.36240103158992
C           -2.94466837582129        1.03868514983340       -0.65207159106415
C           -2.23742647590294       -0.03868491090010       -0.02806020666773
C           -0.78362752874162       -0.05050134868749       -0.03219701436320
C           -0.05413658256017        1.04846846880600        0.44448548364974
C            1.32069597264073        1.03529160947782        0.45754321705551
C            2.02029173165319       -0.07053294376694       -0.03643972551717
C            3.45739967844757       -0.09676475179053       -0.04663264293386
N            4.20192433165219       -1.05005257807920       -0.53717953811444
C            5.48545608926143       -0.64444182519595       -0.32805576182292
C            6.71704571998779       -1.27453954875384       -0.66268981489333
C            6.75030345210273       -2.50862930049774       -1.31879019458579
C            7.95175932411224       -3.09168296843023       -1.63772271742773
C            9.13785537428846       -2.44268494915300       -1.30154005833580
C            9.11723395173098       -1.22889024535930       -0.65451776527447
C            7.91132949566242       -0.59929510368467       -0.31021255914061
C            7.86720639926087        0.68273108918570        0.37292948537321
C            9.02325923743464        1.37813274934238        0.75519675963630
C            8.95819257583413        2.59098756477829        1.40167418704840
C            7.72874674935213        3.17532585490323        1.70049678299924
C            6.57143354901511        2.52983600905294        1.34541080087215
C            6.62500871324373        1.29358439244300        0.68823098606966
C            5.45989714015959        0.58729525860346        0.31017110182699
O            4.16576817374732        0.93720436658952        0.48710095997181
C            1.30283236994940       -1.16653329405186       -0.52933341203180
C           -0.07096619051923       -1.16026947918732       -0.51232703471411
C           -2.95989849379650       -1.10259616998711        0.60162185879903
C           -2.30702848590397       -2.12093306654870        1.30076583912881
C           -3.00682344476777       -3.19502343651230        1.84349676573942
C           -4.37480446113015       -3.27009704621131        1.69041838376809
C           -5.05682683739140       -2.23548931078220        1.05687338171782
C           -4.38509654533585       -1.11601528130770        0.55763315498223
C           -7.25799742693443       -0.13664116279124        1.19771590536383
C           -8.63399490013978       -0.11228347842536        1.21358612650084
H           -9.19798318460403        0.28759810172673       -2.10908442358955
H           -6.73566951278317        0.25500227431883       -2.12394427659514
H           -6.08894841921922        2.31375828691132       -0.95791310471246
H           -4.86067665488917        4.09432989599852       -2.10136203553054
H           -2.41329999181227        3.89030147424312       -2.43328014685285
H           -1.21159230689719        1.96864961256551       -1.50750666410753
H           -0.58837302940483        1.89735968457975        0.84623884246292
H            1.87062046563149        1.87703759332055        0.85071744913933
H            5.80972545624411       -2.97737630853951       -1.56319468073178
H            7.98209143517521       -4.04399290761954       -2.14572646790596
H           10.08546688657103       -2.89697193670742       -1.55213487206373
H           10.05941909989325       -0.76221362108810       -0.41520859413775
H            9.99622252563253        0.96357947288670        0.54588278922685
H            9.87093563257194        3.09615912546535        1.68160301249207
H            7.69127542497910        4.12737991814993        2.20833737149196
H            5.60353809515262        2.95554533560003        1.56462901752387
H            1.85384272400950       -2.00666144507437       -0.92094481716093
H           -0.61942592848105       -2.00030934937121       -0.91304297678268
H           -1.23693266153451       -2.07473963427054        1.43081623435984
H           -2.46942016804963       -3.96983389280998        2.36905025017462
H           -4.92532093249456       -4.11721265114787        2.07074304860528
H           -6.12800663298125       -2.30694659514123        0.94682607585427
H           -6.71144170420733       -0.23436158061452        2.12442060238337
H           -9.17378627547315       -0.20769533836594        2.14446862180224

 projected vibrational frequencies (cm⁻¹)
eigval :       -0.00    -0.00    -0.00     0.00     0.00     0.00
eigval :        8.17    12.08    13.22    30.71    37.81    52.60
eigval :       53.87    58.15    72.54    83.05    84.96    86.85
eigval :      102.85   120.56   125.75   132.79   138.12   171.06
eigval :      180.78   181.55   203.98   217.45   218.50   234.89
eigval :      251.14   268.99   278.53   291.02   306.25   360.86
eigval :      365.76   369.72   372.74   373.90   393.09   394.13
eigval :      399.02   407.52   410.44   415.34   424.22   438.27
eigval :      442.01   445.18   468.86   487.81   491.23   523.05
eigval :      526.94   532.95   534.47   540.89   568.30   578.42
eigval :      582.46   583.04   590.70   602.90   613.60   623.42
eigval :      625.94   656.12   660.83   663.70   674.62   676.35
eigval :      681.72   688.83   693.41   707.17   719.19   728.79
eigval :      737.96   749.92   763.02   767.60   770.92   782.28
eigval :      784.04   816.20   824.32   848.33   853.65   866.38
eigval :      867.83   874.57   876.83   893.94   895.32   896.30
eigval :      908.00   908.22   908.86   909.89   915.77   923.38
eigval :      925.24   925.49   927.70   929.14   934.71   937.23
eigval :      940.05   946.67   947.78  1004.52  1015.33  1018.99
eigval :     1054.56  1079.11  1083.95  1099.67  1103.14  1106.25
eigval :     1116.58  1125.84  1131.12  1134.85  1143.09  1158.07
eigval :     1178.60  1181.28  1181.70  1182.50  1183.24  1184.95
eigval :     1190.64  1194.35  1211.91  1233.64  1239.33  1252.52
eigval :     1253.40  1255.59  1260.82  1266.00  1270.81  1279.42
eigval :     1285.37  1296.88  1301.08  1309.89  1312.05  1322.48
eigval :     1336.88  1342.74  1344.13  1359.00  1363.40  1379.57
eigval :     1400.97  1401.35  1405.86  1409.30  1411.45  1423.85
eigval :     1430.27  1433.46  1451.29  1464.86  1476.48  1492.62
eigval :     1508.20  1515.38  1519.39  1523.21  1524.40  1530.95
eigval :     1544.28  1553.08  1560.70  1566.82  1571.41  1575.43
eigval :     1592.78  1603.86  2358.98  3075.79  3078.03  3078.75
eigval :     3079.03  3080.00  3081.24  3081.55  3082.00  3085.09
eigval :     3087.28  3088.73  3089.13  3090.81  3091.18  3094.77
eigval :     3095.47  3096.93  3097.56  3098.85  3100.66  3101.25
eigval :     3104.61  3110.36  3110.64

   temp. (K)  partition function   enthalpy   heat capacity  entropy
                                   cal/mol     cal/K/mol   cal/K/mol   J/K/mol
 298.15  VIB  0.184E+16            19922.274    128.333    123.722
         ROT  0.838E+08              888.752      2.981     39.236
         INT  0.155E+24            20811.026    131.314    162.958
         TR   0.133E+29             1481.254      4.968     44.899
         TOT                       22292.2803   136.2818   207.8575   869.6758

       T/K    H(0)-H(T)+PV         H(T)/Eh          T*S/Eh         G(T)/Eh
   ------------------------------------------------------------------------
    298.15    0.355250E-01    0.549419E+00    0.987598E-01    0.450659E+00
   ------------------------------------------------------------------------

         :::::::::::::::::::::::::::::::::::::::::::::::::::::
         ::                  THERMODYNAMIC                  ::
         :::::::::::::::::::::::::::::::::::::::::::::::::::::
         :: total free energy        -111.581981257072 Eh   ::
         ::.................................................::
         :: total energy             -112.032640083056 Eh   ::
         :: zero point energy           0.513893624457 Eh   ::
         :: G(RRHO) w/o ZPVE           -0.063234798473 Eh   ::
         :: G(RRHO) contrib.            0.450658825984 Eh   ::
         :::::::::::::::::::::::::::::::::::::::::::::::::::::

           -------------------------------------------------
          | TOTAL ENERGY             -112.032640083056 Eh   |
          | TOTAL ENTHALPY           -111.483221448746 Eh   |
          | TOTAL FREE ENERGY        -111.581981257072 Eh   |
          | GRADIENT NORM               0.000066093414 Eh/α |
           -------------------------------------------------

 * finished run on 2025/09/02 at 19:35:17.545
