   * xtb version 6.7.1 (edcfbbe) compiled by 'albert@albert-system' on 2024-07-22

   ID    Z sym.   atoms
    1    7 N      1, 20
    2    6 C      2-19, 21-34, 36-45
    3    8 O      35
    4    1 H      46-69

          program call               : xtb data2507/gas/p-PO-ABN/p-PO-ABN_gas_T1_crest.xyz --gfn 2 --spinpol --tblite --uhf 2 --ohess vtight --parallel 40 --molden --ceasefiles --namespace data2507/gas/p-PO-ABN/p-PO-ABN_gas_T1_finalOpt
 * total energy  :  -112.0325704 Eh     change       -0.1188178E-07 Eh
 * total energy  :  -112.0326304 Eh     change       -0.6001810E-04 Eh
 * total energy  :  -112.0326562 Eh     change       -0.2587530E-04 Eh
 * total energy  :  -112.0326630 Eh     change       -0.6732750E-05 Eh
 * total energy  :  -112.0326592 Eh     change        0.3760131E-05 Eh
 * total energy  :  -112.0326716 Eh     change       -0.1240983E-04 Eh
 * total energy  :  -112.0326774 Eh     change       -0.5786967E-05 Eh
 * total energy  :  -112.0326812 Eh     change       -0.3746029E-05 Eh
 * total energy  :  -112.0326870 Eh     change       -0.5792003E-05 Eh
 * total energy  :  -112.0326895 Eh     change       -0.2578122E-05 Eh
 * total energy  :  -112.0326925 Eh     change       -0.7099439E-06 Eh
 * total energy  :  -112.0326929 Eh     change       -0.4689972E-06 Eh
 * total energy  :  -112.0326933 Eh     change       -0.3115181E-06 Eh
 * total energy  :  -112.0326936 Eh     change       -0.3024584E-06 Eh
 * total energy  :  -112.0326939 Eh     change       -0.2937221E-06 Eh
 * total energy  :  -112.0326941 Eh     change       -0.2907115E-06 Eh
 * total energy  :  -112.0326944 Eh     change       -0.2900762E-06 Eh
 * total energy  :  -112.0326944 Eh     change        0.2316435E-07 Eh
 * total energy  :  -112.0326944 Eh     change       -0.2908111E-07 Eh
   *** GEOMETRY OPTIMIZATION CONVERGED AFTER 23 ITERATIONS ***

 final structure:
================
69
 xtb: 6.7.1 (edcfbbe)
N          -11.90176586266573        0.05209492934511        0.06775133914341
C          -10.75413307220679        0.04206512410599        0.05575364286099
C           -9.34430365492373        0.03005972052251        0.04040420653099
C           -8.65147087288505        0.32261303641999       -1.13846394871373
C           -7.27521940654277        0.31800548023403       -1.14656876832441
C           -6.54687972799735        0.00661903198679        0.00960703128726
C           -5.08968444824825       -0.00540357875021       -0.00599404287013
C           -4.37200798434174        1.15052775329114       -0.44744655217493
C           -5.02792958980001        2.33631091627325       -0.79085538723561
C           -4.33608322394429        3.42445266071713       -1.31355293514973
C           -2.97486488200406        3.33678271898104       -1.51454013241490
C           -2.28908376506703        2.19115848318997       -1.12114371070868
C           -2.94867257430071        1.11347184541151       -0.52477062556902
C           -2.23665918753446       -0.02807139853126       -0.03264221820112
C           -0.78446490013896       -0.03786610923276       -0.04188354586915
C           -0.05233359400996        1.01553635712232        0.52720086278205
C            1.32218827327383        1.00238466902773        0.53425024920999
C            2.02128666377607       -0.05943160600945       -0.04965795111744
C            3.45773284846829       -0.08859728575849       -0.05850082680892
N            4.20066587286386       -1.04699148525926       -0.54221319834900
C            5.48471391838918       -0.64573971426606       -0.32936080772877
C            6.71502986750911       -1.28841948059423       -0.64416234906087
C            6.74571770151571       -2.53715720307996       -1.27206383639624
C            7.94592530178745       -3.13764434802590       -1.56205964178816
C            9.13331950922908       -2.49151513034195       -1.22496502452594
C            9.11521096205481       -1.26236157548995       -0.60750465343966
C            7.91066424338369       -0.61434136837873       -0.29404697091535
C            7.86916161580511        0.68390877220696        0.35792505618108
C            9.02664560271173        1.38953854963138        0.71629600998503
C            8.96405513564986        2.61790720557342        1.33308195158641
C            7.73574379695459        3.20784406693893        1.62557257130430
C            6.57708950616467        2.55314879221824        1.29247402241993
C            6.62813865800249        1.30210397937560        0.66360874641728
C            5.46162442518769        0.59118218299145        0.29917180974144
O            4.16826285575926        0.94571439334733        0.47214231875287
C            1.30215255074225       -1.10989791835909       -0.63202512058311
C           -0.07122989569851       -1.10196321237504       -0.61767701200559
C           -2.95716689010056       -1.15951802803482        0.47059077109909
C           -2.30399372425138       -2.24896747529817        1.05250305424641
C           -3.00088798884282       -3.38394165631539        1.45708981180689
C           -4.36699618872610       -3.44893297857716        1.28244428502667
C           -5.05077813157535       -2.34864127211219        0.77483140128535
C           -4.38214273161047       -1.17326939948142        0.42027358855909
C           -7.25477209107474       -0.29295680068432        1.18152785998811
C           -8.63073478537979       -0.27444831878954        1.20372662374378
H           -9.20473476545631        0.54712108067958       -2.03874401103907
H           -6.74244694513205        0.52295969662975       -2.06372436172672
H           -6.09414649846807        2.41665020722134       -0.64462521256729
H           -4.87387980888582        4.32356009763227       -1.57378177949103
H           -2.43183550092025        4.15576123696214       -1.96157316777004
H           -1.22479260488499        2.13550467087505       -1.28948505299803
H           -0.58470490731749        1.82431432960762        1.00659967136454
H            1.87292894624042        1.80729943196967        0.99723314004305
H            5.80418141382986       -3.00437688205216       -1.51569432141707
H            7.97427330477609       -4.10221970600737       -2.04648808392003
H           10.07997262538650       -2.96065692260970       -1.45055970074353
H           10.05836094848464       -0.79957395527892       -0.36447625443872
H            9.99884031657391        0.97214850388732        0.50906591202022
H            9.87788545780040        3.13142213691567        1.59359402970985
H            7.70024088290340        4.17218502713110        2.10981985110345
H            5.61002025519621        2.98406596756639        1.50505986482467
H            1.85225345957028       -1.91498807722030       -1.09245566182237
H           -0.61966905906436       -1.90142249930915       -1.09419387218651
H           -1.23583001626366       -2.21203305061493        1.19983190294357
H           -2.46255300527690       -4.21256881522390        1.89171784647427
H           -4.91437218724880       -4.33961043132878        1.55147803403033
H           -6.12081097004351       -2.41107625197509        0.64913951618534
H           -6.70545141399341       -0.50743985923539        2.08667564325082
H           -9.16774055796444       -0.48999087058737        2.11596200166217

 projected vibrational frequencies (cm⁻¹)
eigval :       -0.00    -0.00     0.00     0.00     0.00     0.00
eigval :        8.14    12.22    13.17    30.39    38.02    53.25
eigval :       53.82    57.57    73.10    83.94    85.17    86.75
eigval :      102.95   120.78   126.26   132.77   141.41   172.58
eigval :      180.39   181.20   203.26   218.42   219.15   236.09
eigval :      251.86   269.48   278.40   291.42   306.14   360.60
eigval :      366.10   369.94   372.08   375.16   393.19   394.40
eigval :      399.67   407.89   410.50   415.46   425.87   438.09
eigval :      443.11   444.93   469.01   488.06   490.85   523.06
eigval :      527.28   532.96   534.36   540.87   568.61   578.91
eigval :      582.60   583.21   590.77   602.93   613.60   623.47
eigval :      625.81   656.08   660.97   663.63   675.02   676.33
eigval :      681.67   688.80   693.41   706.77   719.53   728.59
eigval :      737.92   750.31   763.29   767.40   770.91   782.25
eigval :      783.85   815.97   824.71   848.53   854.77   866.10
eigval :      867.35   874.71   876.56   894.07   895.52   896.89
eigval :      907.84   908.12   908.80   909.65   915.56   923.41
eigval :      925.01   925.20   927.52   930.92   934.40   938.84
eigval :      939.98   946.43   947.33  1003.70  1015.04  1018.79
eigval :     1054.42  1079.03  1083.68  1099.47  1103.05  1106.19
eigval :     1116.54  1125.72  1131.50  1134.84  1142.78  1157.86
eigval :     1178.20  1180.97  1181.44  1182.29  1183.06  1184.84
eigval :     1190.87  1194.33  1211.80  1233.39  1239.46  1252.37
eigval :     1253.07  1255.56  1261.03  1266.12  1271.50  1279.41
eigval :     1285.69  1295.86  1301.53  1309.95  1312.16  1322.79
eigval :     1336.40  1342.70  1344.13  1358.11  1362.45  1380.14
eigval :     1400.86  1400.93  1405.85  1409.63  1412.46  1423.30
eigval :     1430.35  1433.34  1450.38  1464.71  1476.20  1493.49
eigval :     1507.24  1515.22  1519.29  1522.40  1523.98  1530.76
eigval :     1543.46  1552.58  1560.40  1566.53  1571.18  1575.19
eigval :     1592.58  1603.69  2358.94  3076.28  3078.43  3078.96
eigval :     3079.30  3080.46  3081.40  3081.77  3082.27  3085.46
eigval :     3087.78  3088.86  3089.29  3091.19  3091.47  3094.98
eigval :     3095.70  3097.39  3098.00  3099.42  3101.31  3102.05
eigval :     3104.99  3110.69  3110.85

   temp. (K)  partition function   enthalpy   heat capacity  entropy
                                   cal/mol     cal/K/mol   cal/K/mol   J/K/mol
 298.15  VIB  0.175E+16            19908.421    128.323    123.585
         ROT  0.838E+08              888.752      2.981     39.236
         INT  0.147E+24            20797.173    131.304    162.821
         TR   0.133E+29             1481.254      4.968     44.899
         TOT                       22278.4268   136.2717   207.7201   869.1009

       T/K    H(0)-H(T)+PV         H(T)/Eh          T*S/Eh         G(T)/Eh
   ------------------------------------------------------------------------
    298.15    0.355029E-01    0.549434E+00    0.986945E-01    0.450740E+00
   ------------------------------------------------------------------------

         :::::::::::::::::::::::::::::::::::::::::::::::::::::
         ::                  THERMODYNAMIC                  ::
         :::::::::::::::::::::::::::::::::::::::::::::::::::::
         :: total free energy        -111.581954660321 Eh   ::
         ::.................................................::
         :: total energy             -112.032694437285 Eh   ::
         :: zero point energy           0.513931366221 Eh   ::
         :: G(RRHO) w/o ZPVE           -0.063191589257 Eh   ::
         :: G(RRHO) contrib.            0.450739776964 Eh   ::
         :::::::::::::::::::::::::::::::::::::::::::::::::::::

           -------------------------------------------------
          | TOTAL ENERGY             -112.032694437285 Eh   |
          | TOTAL ENTHALPY           -111.483260138062 Eh   |
          | TOTAL FREE ENERGY        -111.581954660321 Eh   |
          | GRADIENT NORM               0.000102640974 Eh/α |
           -------------------------------------------------

 * finished run on 2025/09/02 at 19:41:47.501
