   * xtb version 6.7.1 (edcfbbe) compiled by 'albert@albert-system' on 2024-07-22

   ID    Z sym.   atoms
    1    7 N      1, 20
    2    6 C      2-19, 21-34, 36-45
    3    8 O      35
    4    1 H      46-69

          program call               : xtb data2507/gas/p-PO-ABN/p-PO-ABN_gas_S0_crest.xyz --gfn 2 --ohess vtight --parallel 40 --molden --ceasefiles --namespace data2507/gas/p-PO-ABN/p-PO-ABN_gas_S0_finalOpt
          :  Hamiltonian                  GFN2-xTB          :
 * total energy  :  -112.0943032 Eh     change       -0.2981324E-08 Eh
 * total energy  :  -112.0943043 Eh     change       -0.1121871E-05 Eh
 * total energy  :  -112.0943050 Eh     change       -0.6325618E-06 Eh
 * total energy  :  -112.0943071 Eh     change       -0.2185774E-05 Eh
 * total energy  :  -112.0943092 Eh     change       -0.2064202E-05 Eh
 * total energy  :  -112.0943113 Eh     change       -0.2073979E-05 Eh
 * total energy  :  -112.0943126 Eh     change       -0.1350319E-05 Eh
 * total energy  :  -112.0943133 Eh     change       -0.6499269E-06 Eh
 * total energy  :  -112.0943139 Eh     change       -0.5832160E-06 Eh
 * total energy  :  -112.0943147 Eh     change       -0.8877841E-06 Eh
 * total energy  :  -112.0943183 Eh     change       -0.6957505E-06 Eh
 * total energy  :  -112.0943189 Eh     change       -0.6500639E-06 Eh
 * total energy  :  -112.0943194 Eh     change       -0.4907245E-06 Eh
 * total energy  :  -112.0943198 Eh     change       -0.3956045E-06 Eh
 * total energy  :  -112.0943202 Eh     change       -0.3373581E-06 Eh
 * total energy  :  -112.0943205 Eh     change       -0.3473215E-06 Eh
 * total energy  :  -112.0943209 Eh     change       -0.4193103E-06 Eh
 * total energy  :  -112.0943214 Eh     change       -0.4523743E-06 Eh
 * total energy  :  -112.0943214 Eh     change       -0.7462891E-07 Eh
   *** GEOMETRY OPTIMIZATION CONVERGED AFTER 22 ITERATIONS ***

 final structure:
================
69
 xtb: 6.7.1 (edcfbbe)
N          -11.89346323299923        0.07463189499333        0.06489094918439
C          -10.74701921240213        0.06068364969591        0.04974223791088
C           -9.33405706085395        0.04273711348919        0.03278926934290
C           -8.65245556634636       -0.18631827160619       -1.16333669887729
C           -7.27274218587732       -0.19937541727684       -1.17322980512827
C           -6.55167363098942        0.00905107417427        0.00105447437651
C           -5.07459069888511       -0.00793276933097       -0.01476974834711
C           -4.37357296429947        1.02505652101538       -0.65305215470048
C           -5.04273055797745        2.11663400934998       -1.26711430467777
C           -4.35125608409164        3.10036869528846       -1.90396142301145
C           -2.94470308125533        3.05108175161050       -1.97140929648750
C           -2.26404076894383        2.03491602881865       -1.37504491326582
C           -2.94437152650509        1.00199099008391       -0.67765161664835
C           -2.25252415511731       -0.03640022605691       -0.03712750431408
C           -0.77578283875452       -0.04773416609534       -0.04381730283108
C           -0.06076068192343        0.92161400546619        0.65637152206664
C            1.31867727407681        0.91425017905270        0.65673626403769
C            2.01248036259255       -0.06689968899180       -0.05175802805748
C            3.45596586358358       -0.09128031608494       -0.06492548458152
N            4.19881117274820       -0.97373406781465       -0.66939776713634
C            5.48439482197817       -0.59852114452774       -0.40666100407920
C            6.71659061877079       -1.18883889361901       -0.80494663197975
C            6.75235197039887       -2.34280382801013       -1.59346665006988
C            7.95487562155465       -2.89322500805643       -1.96177263267192
C            9.13986096392838       -2.29177716781700       -1.54288364400942
C            9.11682044253232       -1.15606996176758       -0.76739846161562
C            7.90954094189049       -0.56152579795955       -0.36924152760566
C            7.86298185604999        0.63823758523829        0.44958792960938
C            9.01806933711187        1.29414946580090        0.89963992372266
C            8.95073080965692        2.42933569927285        1.67383214858737
C            7.72023856377971        2.97087822018606        2.04056297840523
C            6.56406099190970        2.36176434825712        1.62251122679141
C            6.62023294294305        1.20571465803637        0.83383969650815
C            5.45603456552883        0.54344838747370        0.37764232666195
O            4.16047782766959        0.86605887701904        0.59560874638977
C            1.30066945797401       -1.03882194828636       -0.75694063104265
C           -0.07767071886780       -1.02736907213136       -0.74887038299499
C           -2.95474239608311       -1.06245909354835        0.61197325515370
C           -2.28453126516552       -2.11072174594410        1.29615902758009
C           -2.97639229707446       -3.11393537692385        1.90156207715278
C           -4.38457878141702       -3.13379207277908        1.85750101031378
C           -5.06589398390442       -2.13470489115211        1.23372223809164
C           -4.38434313491605       -1.05624977113390        0.61022402239221
C           -7.24058380532862        0.23428243905298        1.19158473697175
C           -8.61993917693142        0.25466309302889        1.21321195289840
H           -9.21087563432695       -0.35166007875182       -2.07304399319990
H           -6.73987576318110       -0.37868637041177       -2.09569659541818
H           -6.12088642992986        2.15670258278374       -1.21846308276266
H           -4.87522820331372        3.92380918215915       -2.36631398275219
H           -2.41261901559434        3.82928191177000       -2.49825630038599
H           -1.18628412396780        1.99800777753036       -1.42793723772241
H           -0.59888910973063        1.67848480188895        1.20882771316860
H            1.86886243595430        1.66457661135132        1.20408557607417
H            5.81278157247735       -2.77810893772992       -1.89658063643844
H            7.98720809094401       -3.78456192118153       -2.57039751266619
H           10.08834230790461       -2.72201283178350       -1.83003141378593
H           10.05808297227992       -0.72481547586183       -0.46603029432751
H            9.99181329899423        0.91105822824371        0.64004523820782
H            9.86254030234959        2.90688261318601        2.00133740225181
H            7.68080250460580        3.86243730528954        2.64828987442719
H            5.59539551555383        2.75729382849121        1.88971545046176
H            1.85182846520638       -1.78892875132059       -1.30109059816690
H           -0.63032717024954       -1.77599939005630       -1.29786748088385
H           -1.20548857725430       -2.09746555224968        1.33005853041176
H           -2.45186302105915       -3.90459386890336        2.41725383255264
H           -4.91789468808075       -3.94723944072489        2.32680517981338
H           -6.14529520658493       -2.15249699082245        1.20229620116459
H           -6.68250196000840        0.40005862570122        2.10158505733962
H           -9.15347059085620        0.43318500850938        2.13527840342287

          :  Hamiltonian                  GFN2-xTB          :
         :: gradient norm              0.000155977279 Eh/a0 ::
         :: HOMO-LUMO gap              2.060619866853 eV    ::
         :: SCC energy              -114.221398277396 Eh    ::
         :: -> dispersion             -0.097132623538 Eh    ::
         :: repulsion energy           2.127076818667 Eh    ::

    * Orbital Energies and Occupations

         #    Occupation            Energy/Eh            Energy/eV
      -------------------------------------------------------------
         1        2.0000           -0.7507003             -20.4276
       ...           ...                  ...                  ...
        92        2.0000           -0.4221304             -11.4868
        93        2.0000           -0.4187042             -11.3935
        94        2.0000           -0.4180615             -11.3760
        95        2.0000           -0.4173121             -11.3556
        96        2.0000           -0.4155577             -11.3079
        97        2.0000           -0.4129391             -11.2366
        98        2.0000           -0.4107660             -11.1775
        99        2.0000           -0.4080608             -11.1039
       100        2.0000           -0.4061598             -11.0522
       101        2.0000           -0.3945032             -10.7350
       102        2.0000           -0.3908443             -10.6354
       103        2.0000           -0.3753277             -10.2132
       104        2.0000           -0.3674003              -9.9975 (HOMO)
       105                         -0.2916739              -7.9369 (LUMO)
       106                         -0.2749250              -7.4811
       107                         -0.2714708              -7.3871
       108                         -0.2571099              -6.9963
       109                         -0.2502122              -6.8086
       110                         -0.2453888              -6.6774
       111                         -0.2399470              -6.5293
       112                         -0.2347481              -6.3878
       113                         -0.2286653              -6.2223
       114                         -0.2156369              -5.8678
       115                         -0.2059687              -5.6047
       ...                                ...                  ...
       204                          1.1712115              31.8703
      -------------------------------------------------------------
                  HL-Gap            0.0757264 Eh            2.0606 eV

     #   Z          covCN         q      C6AA      α(0)
     1   7 N        0.911    -0.235    26.159     7.397
     2   6 C        1.912     0.111    28.354     8.600
     3   6 C        2.974     0.017    27.631     8.622
     4   6 C        2.925    -0.021    28.526     8.759
     5   6 C        2.923    -0.029    28.724     8.789
     6   6 C        2.977     0.025    27.441     8.593
     7   6 C        2.977    -0.009    28.228     8.715
     8   6 C        2.984     0.007    27.850     8.657
     9   6 C        2.917    -0.035    28.868     8.811
    10   6 C        2.914    -0.028    28.712     8.787
    11   6 C        2.914    -0.029    28.721     8.788
    12   6 C        2.917    -0.034    28.844     8.807
    13   6 C        2.984     0.007    27.850     8.657
    14   6 C        2.977    -0.005    28.131     8.700
    15   6 C        2.977     0.019    27.574     8.614
    16   6 C        2.923    -0.031    28.774     8.797
    17   6 C        2.922    -0.029    28.715     8.788
    18   6 C        2.975    -0.004    28.109     8.697
    19   6 C        3.234     0.214    22.761     7.742
    20   7 N        1.883    -0.291    28.406     7.901
    21   6 C        3.168     0.056    26.400     8.395
    22   6 C        2.986     0.002    27.983     8.677
    23   6 C        2.921    -0.029    28.720     8.788
    24   6 C        2.917    -0.029    28.717     8.788
    25   6 C        2.917    -0.030    28.760     8.794
    26   6 C        2.922    -0.033    28.818     8.803
    27   6 C        2.978    -0.000    28.031     8.685
    28   6 C        2.981     0.003    27.964     8.674
    29   6 C        2.921    -0.032    28.793     8.799
    30   6 C        2.917    -0.030    28.756     8.794
    31   6 C        2.917    -0.029    28.724     8.789
    32   6 C        2.920    -0.031    28.763     8.795
    33   6 C        2.983    -0.006    28.157     8.704
    34   6 C        3.116     0.106    25.496     8.271
    35   8 O        1.724    -0.220    17.652     5.673
    36   6 C        2.923    -0.029    28.722     8.789
    37   6 C        2.922    -0.029    28.736     8.791
    38   6 C        2.984     0.007    27.849     8.657
    39   6 C        2.917    -0.034    28.846     8.807
    40   6 C        2.914    -0.029    28.718     8.788
    41   6 C        2.914    -0.028    28.710     8.786
    42   6 C        2.917    -0.035    28.868     8.811
    43   6 C        2.984     0.007    27.849     8.657
    44   6 C        2.923    -0.029    28.724     8.789
    45   6 C        2.925    -0.021    28.526     8.759
    46   1 H        0.926     0.042     2.422     2.434
    47   1 H        0.926     0.040     2.455     2.450
    48   1 H        0.926     0.030     2.591     2.517
    49   1 H        0.926     0.032     2.560     2.502
    50   1 H        0.926     0.032     2.557     2.501
    51   1 H        0.926     0.034     2.535     2.490
    52   1 H        0.926     0.037     2.487     2.466
    53   1 H        0.926     0.046     2.372     2.408
    54   1 H        0.926     0.052     2.294     2.369
    55   1 H        0.926     0.034     2.526     2.485
    56   1 H        0.926     0.033     2.551     2.497
    57   1 H        0.926     0.035     2.518     2.481
    58   1 H        0.926     0.038     2.479     2.462
    59   1 H        0.926     0.034     2.533     2.489
    60   1 H        0.926     0.034     2.529     2.487
    61   1 H        0.926     0.040     2.450     2.448
    62   1 H        0.926     0.059     2.211     2.325
    63   1 H        0.926     0.040     2.452     2.449
    64   1 H        0.926     0.034     2.526     2.485
    65   1 H        0.926     0.032     2.552     2.498
    66   1 H        0.926     0.032     2.558     2.501
    67   1 H        0.926     0.030     2.591     2.517
    68   1 H        0.926     0.039     2.458     2.452
    69   1 H        0.926     0.042     2.423     2.434

molecular dipole:
                 x           y           z       tot (Debye)
 q only:        1.361       0.032       0.024
   full:        1.917       0.350       0.241       4.991

 projected vibrational frequencies (cm⁻¹)
eigval :       -0.00    -0.00    -0.00     0.00     0.00     0.00
eigval :       10.19    10.91    13.05    34.09    36.33    36.64
eigval :       51.86    51.91    66.69    76.87    81.24    86.69
eigval :      103.07   113.22   116.37   120.03   133.83   171.78
eigval :      180.39   183.30   198.19   211.08   212.81   226.96
eigval :      250.25   262.88   278.74   289.92   304.53   362.86
eigval :      367.84   374.87   374.95   383.84   397.13   400.23
eigval :      406.54   409.53   413.29   428.98   439.36   445.23
eigval :      447.19   453.32   458.53   489.32   494.27   524.34
eigval :      526.01   534.11   535.04   544.63   579.80   583.15
eigval :      585.81   590.24   593.93   605.39   619.69   630.58
eigval :      640.29   656.58   662.46   664.91   677.74   683.19
eigval :      691.56   693.23   695.01   713.75   731.99   738.13
eigval :      740.32   768.02   771.35   774.62   775.90   784.43
eigval :      787.35   814.83   822.44   866.69   870.63   873.45
eigval :      874.49   877.07   878.16   898.51   910.02   911.50
eigval :      915.70   916.26   918.44   919.06   922.68   925.42
eigval :      925.70   927.43   927.97   929.08   930.32   932.17
eigval :      933.00   940.41   955.32  1010.33  1019.23  1021.98
eigval :     1054.32  1081.26  1082.56  1083.21  1086.44  1099.66
eigval :     1128.50  1132.04  1135.07  1142.76  1145.01  1158.48
eigval :     1181.81  1182.83  1183.65  1184.34  1185.84  1187.36
eigval :     1207.16  1209.38  1216.94  1229.66  1243.54  1252.90
eigval :     1255.62  1259.85  1260.74  1264.37  1267.72  1279.54
eigval :     1290.11  1308.19  1312.67  1319.63  1327.30  1343.46
eigval :     1344.77  1349.76  1373.22  1384.37  1392.90  1400.64
eigval :     1404.71  1407.37  1418.03  1428.83  1431.25  1434.73
eigval :     1442.51  1465.88  1482.65  1492.87  1517.23  1517.97
eigval :     1526.80  1528.69  1541.28  1548.35  1548.56  1557.18
eigval :     1567.18  1577.57  1588.87  1591.97  1595.27  1605.64
eigval :     1608.23  1622.49  2374.60  3075.85  3076.80  3076.98
eigval :     3078.05  3079.72  3081.55  3082.07  3082.58  3082.91
eigval :     3083.64  3085.11  3087.23  3091.27  3091.75  3093.35
eigval :     3093.67  3095.35  3096.65  3097.22  3097.66  3099.63
eigval :     3104.93  3110.51  3112.93

   temp. (K)  partition function   enthalpy   heat capacity  entropy
                                   cal/mol     cal/K/mol   cal/K/mol   J/K/mol
 298.15  VIB  0.345E+16            19911.279    126.909    124.074
         ROT  0.834E+08              888.752      2.981     39.226
         INT  0.287E+24            20800.031    129.890    163.301
         TR   0.133E+29             1481.254      4.968     44.899
         TOT                       22281.2853   134.8582   208.2001   871.1093

       T/K    H(0)-H(T)+PV         H(T)/Eh          T*S/Eh         G(T)/Eh
   ------------------------------------------------------------------------
    298.15    0.355075E-01    0.551847E+00    0.989226E-01    0.452924E+00
   ------------------------------------------------------------------------

         :::::::::::::::::::::::::::::::::::::::::::::::::::::
         ::                  THERMODYNAMIC                  ::
         :::::::::::::::::::::::::::::::::::::::::::::::::::::
         :: total free energy        -111.641397519004 Eh   ::
         ::.................................................::
         :: total energy             -112.094321458729 Eh   ::
         :: zero point energy           0.516339046971 Eh   ::
         :: G(RRHO) w/o ZPVE           -0.063415107245 Eh   ::
         :: G(RRHO) contrib.            0.452923939725 Eh   ::
         :::::::::::::::::::::::::::::::::::::::::::::::::::::

           -------------------------------------------------
          | TOTAL ENERGY             -112.094321458729 Eh   |
          | TOTAL ENTHALPY           -111.542474923521 Eh   |
          | TOTAL FREE ENERGY        -111.641397519004 Eh   |
          | GRADIENT NORM               0.000155994902 Eh/α |
          | HOMO-LUMO GAP               2.060619870314 eV   |
           -------------------------------------------------

 * finished run on 2025/09/02 at 19:34:46.752
