   * xtb version 6.7.1 (edcfbbe) compiled by 'albert@albert-system' on 2024-07-22

   ID    Z sym.   atoms
    1    6 C      1-5, 7-17, 19-25
    2    7 N      6, 18
    3    1 H      26-41

          program call               : xtb data2507/toluene/ImPy-1/ImPy-1_toluene_S0_crest.xyz --gfn 2 --gbsa toluene --ohess vtight --parallel 40 --molden --ceasefiles --namespace data2507/toluene/ImPy-1/ImPy-1_toluene_S0_finalOpt
      * Solvation model:               GBSA
        Solvent                        toluene
        Solvent mass                       9.2140E+01 g/mol
          :  Hamiltonian                  GFN2-xTB          :
 * total energy  :   -63.2922949 Eh     change       -0.1728921E-08 Eh
 * total energy  :   -63.2923103 Eh     change       -0.1539432E-04 Eh
 * total energy  :   -63.2923157 Eh     change       -0.5443199E-05 Eh
 * total energy  :   -63.2923177 Eh     change       -0.1956076E-05 Eh
 * total energy  :   -63.2923191 Eh     change       -0.1437969E-05 Eh
 * total energy  :   -63.2923199 Eh     change       -0.7444105E-06 Eh
 * total energy  :   -63.2923204 Eh     change       -0.5858632E-06 Eh
 * total energy  :   -63.2923208 Eh     change       -0.4030446E-06 Eh
 * total energy  :   -63.2923209 Eh     change       -0.5725305E-07 Eh
   *** GEOMETRY OPTIMIZATION CONVERGED AFTER 9 ITERATIONS ***

 final structure:
================
41
 xtb: 6.7.1 (edcfbbe)
C           -5.85634968763011        2.12367495092134        0.30932421851562
C           -5.82029215891318        0.87313889158050       -0.28552245676009
C           -4.62603096944987        0.18475950944229       -0.39485224466120
C           -3.44486907418007        0.73775729964808        0.09904458187589
C           -2.16763874747451        0.05139729516943       -0.00202469952449
N           -1.01104330770403        0.74573058254167       -0.07225710973329
C           -0.01575300321009       -0.11717424849619       -0.15116700954946
C            1.37870289088011        0.28429937692131       -0.21969855984112
C            1.68870259260760        1.47411989172294       -0.92099953133239
C            2.97383651782689        1.91964601570060       -1.00537603065313
C            4.03103186508985        1.20945911938342       -0.39391919291636
C            5.37096155856221        1.64073707122754       -0.46697979303318
C            6.36684389680982        0.93647088126271        0.15210720569067
C            6.06671093388055       -0.23112011119231        0.87182320005688
C            4.77713564327422       -0.67598385854432        0.96028112537754
C            3.72683332280203        0.02716921389314        0.33140975904762
C            2.38935517721817       -0.40865928449369        0.40858700288216
N           -0.48842284295411       -1.40098651223463       -0.14301685288365
C            0.13665556373249       -2.60312032809261       -0.29951899531378
C           -0.58295270684788       -3.75023103858183       -0.24804065241295
C           -1.98314703430140       -3.71041312137746       -0.02812673162330
C           -2.62144796753905       -2.50963290387777        0.06403311029491
C           -1.88035423852795       -1.31837398168063       -0.03454137971726
C           -3.48927594575407        2.00631603380209        0.68028604180779
C           -4.68414637043045        2.69062194505420        0.78503312447364
H           -6.79185663005336        2.65753908787909        0.39341241678057
H           -6.72850002978045        0.43398995165074       -0.67380645695936
H           -4.60539574563197       -0.77281672741070       -0.89304576015953
H            0.87567494035571        2.01476374390016       -1.38103442357092
H            3.20283474798501        2.82785678956687       -1.54470624766986
H            5.59636281555414        2.54083686219113       -1.02143891439826
H            7.39168117068357        1.27345642858404        0.09264897835742
H            6.86520806473114       -0.77527571173321        1.35547862098574
H            4.54274235723213       -1.57471893418265        1.51376067444585
H            2.17357581713282       -1.28105359855105        1.00934674147454
H            1.19917124220907       -2.57934831978005       -0.48060121522267
H           -0.08552878407530       -4.69829146605499       -0.37142965549847
H           -2.53259559982717       -4.63492484289566        0.04918627929955
H           -3.68571514250636       -2.44835071161325        0.22205630150527
H           -2.56893373492650        2.43821178800615        1.04360322207820
H           -4.70405312024966        3.67084722624378        1.24005839118486

          :  Hamiltonian                  GFN2-xTB          :
         :: gradient norm              0.000181519849 Eh/a0 ::
         :: HOMO-LUMO gap              2.387660245883 eV    ::
         :: SCC energy               -64.474593972766 Eh    ::
         :: -> dispersion             -0.049888858601 Eh    ::
         :: -> Gsolv                  -0.027950708599 Eh    ::
         :: repulsion energy           1.182273073179 Eh    ::

    * Orbital Energies and Occupations

         #    Occupation            Energy/Eh            Energy/eV
      -------------------------------------------------------------
         1        2.0000           -0.6924195             -18.8417
       ...           ...                  ...                  ...
        47        2.0000           -0.4411199             -12.0035
        48        2.0000           -0.4293879             -11.6842
        49        2.0000           -0.4229453             -11.5089
        50        2.0000           -0.4209352             -11.4542
        51        2.0000           -0.4191375             -11.4053
        52        2.0000           -0.4179864             -11.3740
        53        2.0000           -0.4162304             -11.3262
        54        2.0000           -0.4091547             -11.1337
        55        2.0000           -0.4005131             -10.8985
        56        2.0000           -0.3981389             -10.8339
        57        2.0000           -0.3827124             -10.4141
        58        2.0000           -0.3799780             -10.3397
        59        2.0000           -0.3535357              -9.6202 (HOMO)
        60                         -0.2657909              -7.2325 (LUMO)
        61                         -0.2622632              -7.1365
        62                         -0.2421170              -6.5883
        63                         -0.2314414              -6.2978
        64                         -0.2181869              -5.9372
        65                         -0.2063255              -5.6144
        66                         -0.1891392              -5.1467
        67                         -0.1626379              -4.4256
        68                         -0.1306023              -3.5539
        69                         -0.1115036              -3.0342
        70                         -0.0722332              -1.9656
       ...                                ...                  ...
       116                          0.7100264              19.3208
      -------------------------------------------------------------
                  HL-Gap            0.0877449 Eh            2.3877 eV

     #   Z          covCN         q      C6AA      α(0)
     1   6 C        2.919    -0.034    28.849     8.808
     2   6 C        2.918    -0.032    28.798     8.800
     3   6 C        2.923    -0.042    29.040     8.837
     4   6 C        2.972     0.006    27.885     8.662
     5   6 C        3.130     0.048    26.718     8.463
     6   7 N        1.914    -0.301    28.657     7.937
     7   6 C        3.123     0.108    25.440     8.260
     8   6 C        2.969    -0.001    28.055     8.688
     9   6 C        2.922    -0.032    28.791     8.799
    10   6 C        2.916    -0.035    28.868     8.811
    11   6 C        2.986     0.011    27.755     8.642
    12   6 C        2.918    -0.035    28.875     8.812
    13   6 C        2.916    -0.031    28.770     8.796
    14   6 C        2.915    -0.030    28.760     8.794
    15   6 C        2.918    -0.037    28.922     8.819
    16   6 C        2.985     0.011    27.756     8.642
    17   6 C        2.922    -0.047    29.175     8.858
    18   7 N        2.843    -0.000    21.265     6.849
    19   6 C        2.851     0.011    27.765     8.636
    20   6 C        2.914    -0.039    28.971     8.826
    21   6 C        2.919    -0.032    28.807     8.801
    22   6 C        2.907    -0.036    28.895     8.814
    23   6 C        3.072     0.024    27.390     8.581
    24   6 C        2.927    -0.032    28.792     8.800
    25   6 C        2.918    -0.031    28.771     8.796
    26   1 H        0.926     0.030     2.588     2.516
    27   1 H        0.926     0.030     2.588     2.516
    28   1 H        0.926     0.029     2.607     2.525
    29   1 H        0.926     0.043     2.407     2.426
    30   1 H        0.926     0.038     2.475     2.460
    31   1 H        0.926     0.035     2.521     2.483
    32   1 H        0.926     0.033     2.541     2.493
    33   1 H        0.926     0.033     2.543     2.494
    34   1 H        0.926     0.032     2.551     2.498
    35   1 H        0.926     0.031     2.568     2.506
    36   1 H        0.926     0.055     2.254     2.348
    37   1 H        0.926     0.053     2.282     2.362
    38   1 H        0.926     0.045     2.383     2.414
    39   1 H        0.926     0.049     2.337     2.390
    40   1 H        0.926     0.041     2.433     2.439
    41   1 H        0.926     0.030     2.579     2.511

molecular dipole:
                 x           y           z       tot (Debye)
 q only:        0.462      -1.045      -0.072
   full:        0.502      -1.434      -0.077       3.867

 projected vibrational frequencies (cm⁻¹)
eigval :       -0.00    -0.00    -0.00     0.00     0.00     0.00
eigval :       28.28    34.08    42.03    53.63    81.24    92.71
eigval :      137.45   171.35   184.28   188.79   210.30   238.96
eigval :      256.59   305.85   347.23   357.38   370.09   374.50
eigval :      397.87   418.66   450.21   470.21   492.05   497.04
eigval :      548.83   558.74   566.12   576.46   590.02   597.03
eigval :      622.43   634.34   663.78   677.59   691.59   717.84
eigval :      725.07   757.67   760.80   766.17   784.23   796.79
eigval :      835.73   842.01   854.46   875.00   876.36   884.56
eigval :      892.43   895.71   903.17   911.61   915.27   922.83
eigval :      928.01   929.30   929.85   935.00   984.60  1022.23
eigval :     1063.79  1079.10  1081.21  1116.72  1119.89  1139.96
eigval :     1153.43  1168.83  1172.92  1179.04  1180.21  1185.94
eigval :     1204.49  1224.64  1227.78  1243.42  1262.19  1272.74
eigval :     1288.22  1319.87  1325.86  1328.52  1340.73  1366.84
eigval :     1389.88  1398.69  1421.63  1426.11  1430.98  1438.80
eigval :     1470.21  1493.91  1499.09  1508.96  1539.83  1562.27
eigval :     1577.73  1595.68  1602.21  1608.14  1613.48  3063.87
eigval :     3064.52  3067.00  3067.39  3070.16  3072.07  3075.39
eigval :     3080.20  3086.65  3089.81  3094.59  3097.16  3099.37
eigval :     3105.92  3113.85  3119.27

   temp. (K)  partition function   enthalpy   heat capacity  entropy
                                   cal/mol     cal/K/mol   cal/K/mol   J/K/mol
 298.15  VIB  0.620E+07            10096.260     68.893     60.282
         ROT  0.123E+08              888.752      2.981     35.423
         INT  0.763E+14            10985.012     71.874     95.705
         TR   0.555E+28             1481.254      4.968     43.169
         TOT                       12466.2658    76.8420   138.8738   581.0480

       T/K    H(0)-H(T)+PV         H(T)/Eh          T*S/Eh         G(T)/Eh
   ------------------------------------------------------------------------
    298.15    0.198663E-01    0.335542E+00    0.659834E-01    0.269558E+00
   ------------------------------------------------------------------------

         :::::::::::::::::::::::::::::::::::::::::::::::::::::
         ::                  THERMODYNAMIC                  ::
         :::::::::::::::::::::::::::::::::::::::::::::::::::::
         :: total free energy         -63.022762475133 Eh   ::
         ::.................................................::
         :: total energy              -63.292320893646 Eh   ::
         :: zero point energy           0.315675582819 Eh   ::
         :: G(RRHO) w/o ZPVE           -0.046117164306 Eh   ::
         :: G(RRHO) contrib.            0.269558418513 Eh   ::
         :::::::::::::::::::::::::::::::::::::::::::::::::::::

           -------------------------------------------------
          | TOTAL ENERGY              -63.292320893646 Eh   |
          | TOTAL ENTHALPY            -62.956779051698 Eh   |
          | TOTAL FREE ENERGY         -63.022762475133 Eh   |
          | GRADIENT NORM               0.000181487321 Eh/α |
          | HOMO-LUMO GAP               2.387659549128 eV   |
           -------------------------------------------------

 * finished run on 2025/09/04 at 13:09:58.836
