   * xtb version 6.7.1 (edcfbbe) compiled by 'albert@albert-system' on 2024-07-22

   ID    Z sym.   atoms
    1    6 C      1-5, 7-17, 19-25
    2    7 N      6, 18
    3    1 H      26-41

          program call               : xtb data2507/toluene/ImPy-1/ImPy-1_toluene_S0_finalOpt.xtbopt.xyz --gfn 2 --uhf 2 --gbsa toluene --ohess vtight --parallel 40 --molden --ceasefiles --namespace data2507/toluene/ImPy-1/ImPy-1_toluene_T1_preOpt
      * Solvation model:               GBSA
        Solvent                        toluene
        Solvent mass                       9.2140E+01 g/mol
          :  Hamiltonian                  GFN2-xTB          :
 * total energy  :   -63.1997072 Eh     change       -0.2409776E-07 Eh
 * total energy  :   -63.2051540 Eh     change       -0.5446834E-02 Eh
 * total energy  :   -63.2066553 Eh     change       -0.1501305E-02 Eh
 * total energy  :   -63.2068763 Eh     change       -0.2209813E-03 Eh
 * total energy  :   -63.2070803 Eh     change       -0.2040452E-03 Eh
 * total energy  :   -63.2071999 Eh     change       -0.1195343E-03 Eh
 * total energy  :   -63.2073193 Eh     change       -0.1194118E-03 Eh
 * total energy  :   -63.2074348 Eh     change       -0.1155376E-03 Eh
 * total energy  :   -63.2075245 Eh     change       -0.8965561E-04 Eh
 * total energy  :   -63.2076050 Eh     change       -0.8051463E-04 Eh
 * total energy  :   -63.2079691 Eh     change       -0.1489675E-06 Eh
 * total energy  :   -63.2079693 Eh     change       -0.1790411E-06 Eh
 * total energy  :   -63.2079695 Eh     change       -0.2178902E-06 Eh
 * total energy  :   -63.2079698 Eh     change       -0.2697908E-06 Eh
 * total energy  :   -63.2079702 Eh     change       -0.3743345E-06 Eh
 * total energy  :   -63.2079705 Eh     change       -0.3169105E-06 Eh
 * total energy  :   -63.2079708 Eh     change       -0.2551831E-06 Eh
 * total energy  :   -63.2079709 Eh     change       -0.1587439E-06 Eh
 * total energy  :   -63.2079710 Eh     change       -0.8241481E-07 Eh
   *** GEOMETRY OPTIMIZATION CONVERGED AFTER 43 ITERATIONS ***

 final structure:
================
41
 xtb: 6.7.1 (edcfbbe)
C           -5.83153002443723        2.17812595142360        0.27089861017907
C           -5.86086220749338        0.80969158083318        0.02064496231373
C           -4.69475801990082        0.08596009873928       -0.07279188311963
C           -3.44175444086200        0.71664149381042        0.08529232742050
C           -2.19650237134482        0.04130080556295        0.00969753242089
N           -1.02904810830951        0.75932026475072       -0.05769828333855
C           -0.03411937448906       -0.10032018848740       -0.14130341113816
C            1.34423750037666        0.30201713807865       -0.18087750634316
C            1.64533701924247        1.56303594597564       -0.75101119099464
C            2.93008560654995        2.01067645262308       -0.81973019988852
C            4.00209046385559        1.24159543216284       -0.30143305461361
C            5.33551287753352        1.67623443968688       -0.35886509366646
C            6.34766050656340        0.91429071206331        0.17702750761269
C            6.05986705046518       -0.30849753694230        0.79348576798846
C            4.76836299430523       -0.76191670308947        0.86448716942228
C            3.70681505640607       -0.00571574291660        0.31676828319732
C            2.37769497519849       -0.45308070146274        0.36683188395970
N           -0.49978680842116       -1.40870634304960       -0.15982580914479
C            0.16655167119751       -2.58543070022812       -0.37096263697457
C           -0.54354496916080       -3.78004117644681       -0.30920745690514
C           -1.89654992508413       -3.77691049559692       -0.05958125248896
C           -2.58749522870501       -2.54034620893722        0.06953715148615
C           -1.87506538729815       -1.36306843132368       -0.02496434846655
C           -3.43290784469566        2.11385956752040        0.31463425856764
C           -4.60510356748762        2.82286704350001        0.40952607985434
H           -6.75256642991536        2.73627429714056        0.34614572129904
H           -6.81083903877694        0.31051334406735       -0.10849278274086
H           -4.74156145371136       -0.96390709788090       -0.30786228692379
H            0.82550011863230        2.14602293823213       -1.14116696251544
H            3.15202886939215        2.96571875595114       -1.27372316015534
H            5.55518250974924        2.62375288092787       -0.83008994210977
H            7.37045913061005        1.25866396976342        0.12770834236911
H            6.86432517746474       -0.89450788788178        1.21428678152648
H            4.54316160782971       -1.70707051607992        1.33815258645516
H            2.16711338750385       -1.36845161619285        0.90047548224863
H            1.20803477620902       -2.52974545235821       -0.63004295349060
H           -0.00848590036346       -4.70379731678224       -0.46056822704160
H           -2.44980872347808       -4.69848435894118        0.01357346083916
H           -3.64591966675199       -2.53905444307236        0.25220737675762
H           -2.47525244143803        2.59750462195008        0.42439113722952
H           -4.57684298277155        3.88730840905244        0.59380304617561

          :  Hamiltonian                  GFN2-xTB          :
         :: gradient norm              0.000041676723 Eh/a0 ::
         :: HOMO-LUMO gap              0.097581885088 eV    ::
         :: SCC energy               -64.370308444134 Eh    ::
         :: -> dispersion             -0.049968858051 Eh    ::
         :: -> Gsolv                  -0.027467490251 Eh    ::
         :: repulsion energy           1.162337442343 Eh    ::

    * Orbital Energies and Occupations

         #    Occupation            Energy/Eh            Energy/eV
      -------------------------------------------------------------
         1        2.0000           -0.6968349             -18.9618
       ...           ...                  ...                  ...
        48        2.0000           -0.4297926             -11.6953
        49        2.0000           -0.4270448             -11.6205
        50        2.0000           -0.4239231             -11.5355
        51        2.0000           -0.4213660             -11.4660
        52        2.0000           -0.4194164             -11.4129
        53        2.0000           -0.4164481             -11.3321
        54        2.0000           -0.4112563             -11.1909
        55        2.0000           -0.4057301             -11.0405
        56        2.0000           -0.3993144             -10.8659
        57        2.0000           -0.3847739             -10.4702
        58        2.0000           -0.3811883             -10.3727
        59        1.0000           -0.3508057              -9.5459
        60        0.8684           -0.2713213              -7.3830 (HOMO)
        61        0.1316           -0.2677354              -7.2854 (LUMO)
        62                         -0.2425660              -6.6006
        63                         -0.2375356              -6.4637
        64                         -0.2204682              -5.9992
        65                         -0.2074899              -5.6461
        66                         -0.1890375              -5.1440
        67                         -0.1663247              -4.5259
        68                         -0.1334040              -3.6301
        69                         -0.1155845              -3.1452
        70                         -0.0742685              -2.0209
        71                         -0.0577308              -1.5709
       ...                                ...                  ...
       116                          0.7105687              19.3356
      -------------------------------------------------------------
                  HL-Gap            0.0035860 Eh            0.0976 eV

     #   Z          covCN         q      C6AA      α(0)
     1   6 C        2.918    -0.031    28.774     8.796
     2   6 C        2.914    -0.030    28.737     8.791
     3   6 C        2.918    -0.040    28.994     8.830
     4   6 C        2.969     0.003    27.943     8.671
     5   6 C        3.112     0.066    26.368     8.412
     6   7 N        1.886    -0.324    29.263     8.019
     7   6 C        3.098     0.138    24.876     8.174
     8   6 C        2.969    -0.007    28.186     8.708
     9   6 C        2.921    -0.031    28.771     8.796
    10   6 C        2.915    -0.039    28.969     8.826
    11   6 C        2.985     0.014    27.686     8.631
    12   6 C        2.917    -0.039    28.975     8.827
    13   6 C        2.915    -0.031    28.773     8.796
    14   6 C        2.914    -0.031    28.777     8.797
    15   6 C        2.918    -0.041    29.007     8.832
    16   6 C        2.983     0.012    27.735     8.639
    17   6 C        2.920    -0.046    29.146     8.853
    18   7 N        2.825    -0.003    21.312     6.856
    19   6 C        2.852    -0.012    28.317     8.722
    20   6 C        2.908    -0.036    28.903     8.815
    21   6 C        2.916    -0.035    28.860     8.809
    22   6 C        2.907    -0.063    29.569     8.916
    23   6 C        3.033     0.044    26.972     8.519
    24   6 C        2.926    -0.029    28.723     8.789
    25   6 C        2.913    -0.029    28.728     8.789
    26   1 H        0.926     0.035     2.515     2.480
    27   1 H        0.926     0.034     2.528     2.486
    28   1 H        0.926     0.034     2.525     2.485
    29   1 H        0.926     0.045     2.381     2.413
    30   1 H        0.926     0.038     2.478     2.462
    31   1 H        0.926     0.033     2.545     2.495
    32   1 H        0.926     0.032     2.557     2.500
    33   1 H        0.926     0.032     2.561     2.503
    34   1 H        0.926     0.031     2.574     2.509
    35   1 H        0.926     0.034     2.527     2.486
    36   1 H        0.926     0.051     2.310     2.377
    37   1 H        0.926     0.048     2.345     2.395
    38   1 H        0.926     0.041     2.433     2.439
    39   1 H        0.926     0.042     2.422     2.434
    40   1 H        0.926     0.052     2.297     2.370
    41   1 H        0.926     0.035     2.513     2.479

molecular dipole:
                 x           y           z       tot (Debye)
 q only:        0.067      -0.633      -0.077
   full:        0.107      -1.046      -0.094       2.684

 projected vibrational frequencies (cm⁻¹)
eigval :       -0.00     0.00     0.00     0.00     0.00     0.00
eigval :       16.05    33.92    40.40    49.19    72.90   106.09
eigval :      130.49   167.46   169.65   183.01   212.79   223.75
eigval :      255.14   298.06   332.20   350.79   360.73   367.43
eigval :      369.82   401.35   443.30   446.41   470.66   490.32
eigval :      534.19   543.75   552.31   572.15   584.48   588.10
eigval :      608.57   622.17   635.14   647.46   659.39   676.43
eigval :      713.27   715.12   719.60   739.63   750.33   768.69
eigval :      791.20   796.40   827.86   835.68   836.42   854.44
eigval :      866.09   874.67   876.93   888.07   902.57   914.48
eigval :      914.95   920.40   921.64   922.72   966.31   999.51
eigval :     1046.84  1066.97  1080.46  1083.00  1099.10  1114.36
eigval :     1129.66  1141.42  1147.91  1164.79  1175.65  1176.55
eigval :     1179.88  1192.31  1212.97  1223.51  1229.84  1259.00
eigval :     1274.68  1276.63  1280.97  1309.20  1324.40  1336.09
eigval :     1359.38  1362.57  1373.00  1388.42  1402.13  1414.85
eigval :     1421.62  1432.85  1441.08  1481.72  1487.96  1505.28
eigval :     1514.52  1539.66  1545.41  1566.63  1580.92  3065.81
eigval :     3068.69  3070.29  3071.98  3074.03  3075.63  3076.49
eigval :     3086.66  3089.30  3100.23  3101.81  3111.75  3112.94
eigval :     3121.51  3138.45  3146.14

   temp. (K)  partition function   enthalpy   heat capacity  entropy
                                   cal/mol     cal/K/mol   cal/K/mol   J/K/mol
 298.15  VIB  0.175E+08            10452.331     70.970     62.559
         ROT  0.123E+08              888.752      2.981     35.423
         INT  0.215E+15            11341.083     73.951     97.982
         TR   0.555E+28             1481.254      4.968     43.169
         TOT                       12822.3369    78.9188   141.1513   590.5769

       T/K    H(0)-H(T)+PV         H(T)/Eh          T*S/Eh         G(T)/Eh
   ------------------------------------------------------------------------
    298.15    0.204337E-01    0.331150E+00    0.670655E-01    0.264085E+00
   ------------------------------------------------------------------------

         :::::::::::::::::::::::::::::::::::::::::::::::::::::
         ::                  THERMODYNAMIC                  ::
         :::::::::::::::::::::::::::::::::::::::::::::::::::::
         :: total free energy         -62.943886014642 Eh   ::
         ::.................................................::
         :: total energy              -63.207970994834 Eh   ::
         :: zero point energy           0.310716804801 Eh   ::
         :: G(RRHO) w/o ZPVE           -0.046631824609 Eh   ::
         :: G(RRHO) contrib.            0.264084980192 Eh   ::
         :::::::::::::::::::::::::::::::::::::::::::::::::::::

           -------------------------------------------------
          | TOTAL ENERGY              -63.207970994834 Eh   |
          | TOTAL ENTHALPY            -62.876820495579 Eh   |
          | TOTAL FREE ENERGY         -62.943886014642 Eh   |
          | GRADIENT NORM               0.000041767163 Eh/α |
          | HOMO-LUMO GAP               0.097579464477 eV   |
           -------------------------------------------------

 * finished run on 2025/09/04 at 13:10:01.067
