   * xtb version 6.7.1 (edcfbbe) compiled by 'albert@albert-system' on 2024-07-22

   ID    Z sym.   atoms
    1    6 C      1-5, 7-17, 19-25
    2    7 N      6, 18
    3    1 H      26-41

          program call               : xtb data2507/toluene/ImPy-1/ImPy-1_toluene_T1_crest.xyz --gfn 2 --uhf 2 --gbsa toluene --ohess vtight --parallel 40 --molden --ceasefiles --namespace data2507/toluene/ImPy-1/ImPy-1_toluene_T1_finalOpt
      * Solvation model:               GBSA
        Solvent                        toluene
        Solvent mass                       9.2140E+01 g/mol
          :  Hamiltonian                  GFN2-xTB          :
 * total energy  :   -63.2079461 Eh     change       -0.6641869E-09 Eh
 * total energy  :   -63.2079624 Eh     change       -0.1625856E-04 Eh
 * total energy  :   -63.2079675 Eh     change       -0.5174057E-05 Eh
 * total energy  :   -63.2079692 Eh     change       -0.1671098E-05 Eh
 * total energy  :   -63.2079703 Eh     change       -0.1104838E-05 Eh
 * total energy  :   -63.2079711 Eh     change       -0.7877443E-06 Eh
 * total energy  :   -63.2079718 Eh     change       -0.7171200E-06 Eh
 * total energy  :   -63.2079723 Eh     change       -0.5196714E-06 Eh
 * total energy  :   -63.2079726 Eh     change       -0.2956596E-06 Eh
 * total energy  :   -63.2079728 Eh     change       -0.1662110E-06 Eh
 * total energy  :   -63.2079729 Eh     change       -0.9372054E-07 Eh
   *** GEOMETRY OPTIMIZATION CONVERGED AFTER 11 ITERATIONS ***

 final structure:
================
41
 xtb: 6.7.1 (edcfbbe)
C           -5.83565945648997        2.15516676470757        0.29667843749172
C           -4.61011042012677        2.80662828988665        0.41003455027788
C           -3.43635891395492        2.10148290261488        0.30692521446943
C           -3.44183009989178        0.70159668485273        0.09258567885470
C           -2.19437265895571        0.03176222760998        0.00805090699759
N           -1.03084075134490        0.75631803173004       -0.06440034819607
C           -0.03174937998076       -0.09764916787920       -0.15245631569072
C            1.34496034096602        0.31078903907972       -0.19401389372161
C            1.64153354529736        1.57146176734128       -0.76700471866133
C            2.92473647887790        2.02370673302391       -0.83585505408195
C            3.99916606871018        1.26000049183260       -0.31475734023431
C            5.33101806629823        1.69977571353655       -0.37158243980867
C            6.34548244322573        0.94292434483300        0.16697155842332
C            6.06187099699300       -0.27986426057007        0.78547756249294
C            4.77210948182752       -0.73818679266053        0.85600800528523
C            3.70823520529234        0.01286962761977        0.30580352423558
C            2.38073016254409       -0.43935055419704        0.35574652535343
N           -0.49005145067838       -1.40842602995333       -0.17105038947962
C            0.18295113163603       -2.58032765271871       -0.38846400959292
C           -0.51956999393857       -3.77936154004351       -0.32929154925809
C           -1.87183113269747       -3.78516906195091       -0.07581212097090
C           -2.56978555602117       -2.55315029129713        0.06031800363619
C           -1.86515370894196       -1.37107369516703       -0.03100583573696
C           -4.69457917807721        0.06392682831476       -0.03901545772804
C           -5.86234683913574        0.78370894295149        0.06308153156841
H           -6.75801017210963        2.71015572033023        0.37880709097529
H           -4.58382200807959        3.87324831027497        0.58164700104116
H           -2.47944457276068        2.59045071277935        0.39765693605092
H            0.81984150903953        2.15050223881099       -1.15914881092718
H            3.14346948746558        2.97846438764089       -1.29200737499536
H            5.54745884023917        2.64721766468523       -0.84444341739206
H            7.36698527190877        1.29121671680390        0.11820747859988
H            6.86818345791359       -0.86195877066433        1.20816722052097
H            4.55003749598228       -1.68330398063174        1.33122407632569
H            2.17296733632973       -1.35455553383872        0.89083309630477
H            1.22335206621383       -2.51694526295942       -0.65019660901179
H            0.02051256957143       -4.69929722222822       -0.48598675067384
H           -2.41957736347842       -4.71020423307364       -0.00505708773712
H           -3.62783408199439       -2.56007748640840        0.24461113690484
H           -4.74094380876251       -0.98908100566066       -0.25904333667910
H           -6.81184831431180        0.27872473194206       -0.04537299393227

          :  Hamiltonian                  GFN2-xTB          :
         :: gradient norm              0.000052786180 Eh/a0 ::
         :: HOMO-LUMO gap              0.098437797184 eV    ::
         :: SCC energy               -64.370278305292 Eh    ::
         :: -> dispersion             -0.049969018876 Eh    ::
         :: -> Gsolv                  -0.027474111533 Eh    ::
         :: repulsion energy           1.162305418501 Eh    ::

    * Orbital Energies and Occupations

         #    Occupation            Energy/Eh            Energy/eV
      -------------------------------------------------------------
         1        2.0000           -0.6968072             -18.9611
       ...           ...                  ...                  ...
        48        2.0000           -0.4298238             -11.6961
        49        2.0000           -0.4270140             -11.6196
        50        2.0000           -0.4239602             -11.5365
        51        2.0000           -0.4213722             -11.4661
        52        2.0000           -0.4193314             -11.4106
        53        2.0000           -0.4165125             -11.3339
        54        2.0000           -0.4112692             -11.1912
        55        2.0000           -0.4057059             -11.0398
        56        2.0000           -0.3993617             -10.8672
        57        2.0000           -0.3847475             -10.4695
        58        2.0000           -0.3812283             -10.3737
        59        1.0000           -0.3507747              -9.5451
        60        0.8703           -0.2713507              -7.3838 (HOMO)
        61        0.1297           -0.2677335              -7.2854 (LUMO)
        62                         -0.2425741              -6.6008
        63                         -0.2375497              -6.4641
        64                         -0.2204033              -5.9975
        65                         -0.2074993              -5.6463
        66                         -0.1890824              -5.1452
        67                         -0.1662659              -4.5243
        68                         -0.1335271              -3.6335
        69                         -0.1155965              -3.1455
        70                         -0.0740567              -2.0152
        71                         -0.0578029              -1.5729
       ...                                ...                  ...
       116                          0.7108442              19.3431
      -------------------------------------------------------------
                  HL-Gap            0.0036172 Eh            0.0984 eV

     #   Z          covCN         q      C6AA      α(0)
     1   6 C        2.918    -0.031    28.774     8.796
     2   6 C        2.913    -0.029    28.729     8.789
     3   6 C        2.926    -0.029    28.724     8.789
     4   6 C        2.969     0.003    27.944     8.671
     5   6 C        3.112     0.066    26.370     8.413
     6   7 N        1.886    -0.324    29.264     8.020
     7   6 C        3.097     0.138    24.875     8.174
     8   6 C        2.969    -0.007    28.185     8.708
     9   6 C        2.921    -0.031    28.770     8.796
    10   6 C        2.915    -0.039    28.967     8.826
    11   6 C        2.985     0.014    27.686     8.631
    12   6 C        2.917    -0.039    28.974     8.827
    13   6 C        2.915    -0.031    28.772     8.796
    14   6 C        2.914    -0.031    28.777     8.797
    15   6 C        2.918    -0.040    29.006     8.832
    16   6 C        2.983     0.012    27.735     8.639
    17   6 C        2.920    -0.046    29.144     8.853
    18   7 N        2.825    -0.003    21.313     6.857
    19   6 C        2.852    -0.012    28.318     8.722
    20   6 C        2.908    -0.036    28.901     8.815
    21   6 C        2.916    -0.035    28.863     8.810
    22   6 C        2.907    -0.063    29.566     8.916
    23   6 C        3.032     0.044    26.972     8.519
    24   6 C        2.918    -0.040    28.995     8.830
    25   6 C        2.914    -0.030    28.738     8.791
    26   1 H        0.926     0.035     2.516     2.480
    27   1 H        0.926     0.035     2.513     2.479
    28   1 H        0.926     0.052     2.295     2.369
    29   1 H        0.926     0.045     2.383     2.414
    30   1 H        0.926     0.038     2.477     2.461
    31   1 H        0.926     0.033     2.544     2.494
    32   1 H        0.926     0.032     2.556     2.500
    33   1 H        0.926     0.032     2.561     2.502
    34   1 H        0.926     0.031     2.574     2.509
    35   1 H        0.926     0.034     2.527     2.486
    36   1 H        0.926     0.051     2.311     2.377
    37   1 H        0.926     0.048     2.345     2.395
    38   1 H        0.926     0.041     2.434     2.440
    39   1 H        0.926     0.042     2.424     2.435
    40   1 H        0.926     0.034     2.525     2.485
    41   1 H        0.926     0.034     2.528     2.486

molecular dipole:
                 x           y           z       tot (Debye)
 q only:        0.078      -0.630      -0.079
   full:        0.120      -1.043      -0.096       2.680

 projected vibrational frequencies (cm⁻¹)
eigval :       -0.00    -0.00    -0.00     0.00     0.00     0.00
eigval :       26.79    37.27    41.05    48.81    73.97   107.38
eigval :      129.67   166.56   169.84   183.03   213.56   223.05
eigval :      255.42   298.00   331.49   350.86   360.05   367.89
eigval :      371.87   401.60   444.50   447.36   470.58   490.39
eigval :      534.08   543.69   552.18   572.11   584.61   587.96
eigval :      608.60   621.94   636.74   647.60   659.35   676.05
eigval :      713.15   713.52   719.17   740.54   750.36   768.50
eigval :      791.26   795.70   827.68   834.48   836.19   854.61
eigval :      866.21   874.53   876.64   888.02   902.56   914.01
eigval :      914.60   920.61   921.69   922.67   966.16   999.67
eigval :     1047.06  1067.29  1080.27  1083.10  1099.01  1114.17
eigval :     1129.71  1141.53  1148.08  1164.71  1175.34  1176.44
eigval :     1179.69  1191.88  1213.06  1223.38  1229.74  1258.84
eigval :     1274.67  1276.63  1281.24  1309.25  1324.48  1336.60
eigval :     1359.35  1362.58  1373.32  1388.35  1402.59  1414.73
eigval :     1421.83  1432.93  1441.10  1481.90  1488.17  1505.45
eigval :     1514.57  1539.72  1545.61  1566.74  1581.05  3065.69
eigval :     3068.60  3069.96  3071.66  3073.98  3075.49  3076.36
eigval :     3086.59  3089.08  3100.32  3101.56  3110.67  3112.02
eigval :     3122.75  3138.03  3146.83

   temp. (K)  partition function   enthalpy   heat capacity  entropy
                                   cal/mol     cal/K/mol   cal/K/mol   J/K/mol
 298.15  VIB  0.963E+07            10429.694     71.108     62.122
         ROT  0.123E+08              888.752      2.981     35.424
         INT  0.119E+15            11318.446     74.088     97.546
         TR   0.555E+28             1481.254      4.968     43.169
         TOT                       12799.7004    79.0566   140.7153   588.7526

       T/K    H(0)-H(T)+PV         H(T)/Eh          T*S/Eh         G(T)/Eh
   ------------------------------------------------------------------------
    298.15    0.203976E-01    0.331149E+00    0.668584E-01    0.264291E+00
   ------------------------------------------------------------------------

         :::::::::::::::::::::::::::::::::::::::::::::::::::::
         ::                  THERMODYNAMIC                  ::
         :::::::::::::::::::::::::::::::::::::::::::::::::::::
         :: total free energy         -62.943682109461 Eh   ::
         ::.................................................::
         :: total energy              -63.207972880452 Eh   ::
         :: zero point energy           0.310751510475 Eh   ::
         :: G(RRHO) w/o ZPVE           -0.046460739484 Eh   ::
         :: G(RRHO) contrib.            0.264290770991 Eh   ::
         :::::::::::::::::::::::::::::::::::::::::::::::::::::

           -------------------------------------------------
          | TOTAL ENERGY              -63.207972880452 Eh   |
          | TOTAL ENTHALPY            -62.876823749047 Eh   |
          | TOTAL FREE ENERGY         -62.943682109461 Eh   |
          | GRADIENT NORM               0.000052326565 Eh/α |
          | HOMO-LUMO GAP               0.098428345024 eV   |
           -------------------------------------------------

 * finished run on 2025/09/04 at 13:11:36.143
