   * xtb version 6.7.1 (edcfbbe) compiled by 'albert@albert-system' on 2024-07-22

   ID    Z sym.   atoms
    1    6 C      1-5, 7-17, 19-25
    2    7 N      6, 18
    3    1 H      26-41

          program call               : xtb data2507/toluene/ImPy-1/ImPy-1.xyz --gfn 2 --gbsa toluene --ohess vtight --parallel 40 --molden --ceasefiles --namespace data2507/toluene/ImPy-1/ImPy-1_toluene_S0_preOpt
      * Solvation model:               GBSA
        Solvent                        toluene
        Solvent mass                       9.2140E+01 g/mol
          :  Hamiltonian                  GFN2-xTB          :
 * total energy  :   -63.2823021 Eh     change       -0.2573842E-08 Eh
 * total energy  :   -63.2890462 Eh     change       -0.6744096E-02 Eh
 * total energy  :   -63.2906086 Eh     change       -0.1562398E-02 Eh
 * total energy  :   -63.2908410 Eh     change       -0.2323899E-03 Eh
 * total energy  :   -63.2910490 Eh     change       -0.2080188E-03 Eh
 * total energy  :   -63.2911383 Eh     change       -0.8932137E-04 Eh
 * total energy  :   -63.2912524 Eh     change       -0.1140736E-03 Eh
 * total energy  :   -63.2913726 Eh     change       -0.1202219E-03 Eh
 * total energy  :   -63.2914740 Eh     change       -0.1013385E-03 Eh
 * total energy  :   -63.2915712 Eh     change       -0.9728925E-04 Eh
 * total energy  :   -63.2919549 Eh     change       -0.1424198E-04 Eh
 * total energy  :   -63.2919584 Eh     change       -0.3505488E-05 Eh
 * total energy  :   -63.2919603 Eh     change       -0.1950548E-05 Eh
 * total energy  :   -63.2919623 Eh     change       -0.1972660E-05 Eh
 * total energy  :   -63.2919638 Eh     change       -0.1469084E-05 Eh
 * total energy  :   -63.2919648 Eh     change       -0.1023191E-05 Eh
 * total energy  :   -63.2919653 Eh     change       -0.4700133E-06 Eh
 * total energy  :   -63.2919655 Eh     change       -0.1721033E-06 Eh
 * total energy  :   -63.2919655 Eh     change       -0.1519922E-07 Eh
   *** GEOMETRY OPTIMIZATION CONVERGED AFTER 29 ITERATIONS ***

 final structure:
================
41
 xtb: 6.7.1 (edcfbbe)
C           -5.39725695503518        2.68281210571958        0.30392785305680
C           -4.15561145240471        3.14412993024011       -0.10512122527855
C           -3.08446817173588        2.27658156012438       -0.18607726779766
C           -3.23497477854849        0.92718563965200        0.13922016087399
C           -2.08435968648144        0.04545343594586        0.04064806665941
N           -0.82789439310122        0.52678567800529        0.17146093649214
C            0.01217654909301       -0.48474429776088        0.07258674257217
C            1.45316461240158       -0.34859218026541        0.21008967291681
C            2.22170385517299       -1.30526377407409        0.91279715313656
C            3.57183888437294       -1.15230315655029        1.04114666009528
C            4.23590834675134       -0.03763075110167        0.48582923260118
C            5.63017317223482        0.14050522597609        0.59663279876386
C            6.23785349546582        1.24138175524610        0.05955561023151
C            5.47810507097617        2.21486914029712       -0.60987280287374
C            4.12447716773456        2.07165903382335       -0.73305682827778
C            3.46629382229434        0.94519564677254       -0.19260071463474
C            2.07659283346688        0.76309351516391       -0.31215473308414
N           -0.66152782279145       -1.65256779542381       -0.15922333657178
C           -0.22166405598095       -2.91249272704408       -0.44064935413603
C           -1.11486689504529       -3.89545140486862       -0.70957699525376
C           -2.50461923418271       -3.61674517277282       -0.73116692053867
C           -2.94782567419591       -2.35099714581949       -0.48728285655229
C           -2.02332473758605       -1.33475037449732       -0.18677251468453
C           -4.48237786941690        0.47830624355934        0.57259911098311
C           -5.55293151705188        1.35011429347127        0.64825293684455
H           -6.23670398593967        3.36037427872452        0.36311000056423
H           -4.02462697009899        4.18542032871125       -0.36336996679050
H           -2.11220428520196        2.62442825152398       -0.50043680912045
H            1.72882653191585       -2.14233733193951        1.38605497872820
H            4.15263759509597       -1.88462557588351        1.58437309989025
H            6.21015540651344       -0.61037943995466        1.11466735653150
H            7.30685584856109        1.37159954002035        0.14745093354907
H            5.97491266889515        3.07882598473895       -1.02735960499738
H            3.53487379219089        2.81753659667007       -1.24684767186556
H            1.48403910653577        1.50601369275100       -0.82519693542864
H            0.84585052766297       -3.06232131564227       -0.46176857338850
H           -0.76318551136485       -4.89006003149297       -0.92987849712222
H           -3.19838776178644       -4.40870352033128       -0.96392403936819
H           -3.99470921950380       -2.10210136937549       -0.54364602270982
H           -4.60872252490236       -0.54881327408135        0.87993539175966
H           -6.51419678498266        0.98861076174810        0.98564697422535

          :  Hamiltonian                  GFN2-xTB          :
         :: gradient norm              0.000142755751 Eh/a0 ::
         :: HOMO-LUMO gap              2.388078530251 eV    ::
         :: SCC energy               -64.474403638450 Eh    ::
         :: -> dispersion             -0.049874017798 Eh    ::
         :: -> Gsolv                  -0.028069814940 Eh    ::
         :: repulsion energy           1.182438172403 Eh    ::

    * Orbital Energies and Occupations

         #    Occupation            Energy/Eh            Energy/eV
      -------------------------------------------------------------
         1        2.0000           -0.6923351             -18.8394
       ...           ...                  ...                  ...
        47        2.0000           -0.4435217             -12.0688
        48        2.0000           -0.4290273             -11.6744
        49        2.0000           -0.4221588             -11.4875
        50        2.0000           -0.4200307             -11.4296
        51        2.0000           -0.4198937             -11.4259
        52        2.0000           -0.4176272             -11.3642
        53        2.0000           -0.4163046             -11.3282
        54        2.0000           -0.4080495             -11.1036
        55        2.0000           -0.4004048             -10.8956
        56        2.0000           -0.3994006             -10.8682
        57        2.0000           -0.3822156             -10.4006
        58        2.0000           -0.3798451             -10.3361
        59        2.0000           -0.3530289              -9.6064 (HOMO)
        60                         -0.2652687              -7.2183 (LUMO)
        61                         -0.2619089              -7.1269
        62                         -0.2423488              -6.5946
        63                         -0.2320385              -6.3141
        64                         -0.2179158              -5.9298
        65                         -0.2056240              -5.5953
        66                         -0.1888569              -5.1391
        67                         -0.1623666              -4.4182
        68                         -0.1325663              -3.6073
        69                         -0.1117992              -3.0422
        70                         -0.0720474              -1.9605
       ...                                ...                  ...
       116                          0.7078030              19.2603
      -------------------------------------------------------------
                  HL-Gap            0.0877603 Eh            2.3881 eV

     #   Z          covCN         q      C6AA      α(0)
     1   6 C        2.919    -0.034    28.856     8.809
     2   6 C        2.918    -0.031    28.775     8.796
     3   6 C        2.927    -0.032    28.796     8.800
     4   6 C        2.972     0.006    27.885     8.662
     5   6 C        3.131     0.048    26.716     8.462
     6   7 N        1.913    -0.302    28.677     7.940
     7   6 C        3.125     0.109    25.423     8.256
     8   6 C        2.969    -0.003    28.091     8.694
     9   6 C        2.918    -0.040    28.994     8.830
    10   6 C        2.916    -0.037    28.912     8.817
    11   6 C        2.987     0.011    27.764     8.643
    12   6 C        2.917    -0.036    28.887     8.814
    13   6 C        2.916    -0.031    28.762     8.794
    14   6 C        2.915    -0.030    28.743     8.791
    15   6 C        2.918    -0.035    28.875     8.812
    16   6 C        2.985     0.013    27.711     8.635
    17   6 C        2.927    -0.037    28.920     8.819
    18   7 N        2.843     0.000    21.259     6.848
    19   6 C        2.851     0.011    27.761     8.636
    20   6 C        2.914    -0.039    28.973     8.827
    21   6 C        2.919    -0.032    28.807     8.801
    22   6 C        2.907    -0.036    28.896     8.814
    23   6 C        3.071     0.024    27.398     8.583
    24   6 C        2.923    -0.042    29.047     8.838
    25   6 C        2.918    -0.032    28.799     8.800
    26   1 H        0.926     0.030     2.592     2.517
    27   1 H        0.926     0.030     2.581     2.513
    28   1 H        0.926     0.041     2.436     2.441
    29   1 H        0.926     0.031     2.576     2.510
    30   1 H        0.926     0.037     2.489     2.467
    31   1 H        0.926     0.035     2.520     2.483
    32   1 H        0.926     0.034     2.534     2.489
    33   1 H        0.926     0.034     2.531     2.488
    34   1 H        0.926     0.035     2.518     2.482
    35   1 H        0.926     0.041     2.431     2.438
    36   1 H        0.926     0.055     2.256     2.349
    37   1 H        0.926     0.053     2.284     2.363
    38   1 H        0.926     0.045     2.385     2.415
    39   1 H        0.926     0.048     2.339     2.391
    40   1 H        0.926     0.028     2.611     2.527
    41   1 H        0.926     0.030     2.592     2.518

molecular dipole:
                 x           y           z       tot (Debye)
 q only:        0.366      -1.073      -0.276
   full:        0.336      -1.465      -0.320       3.905

 projected vibrational frequencies (cm⁻¹)
eigval :       -0.00     0.00     0.00     0.00     0.00     0.00
eigval :       26.34    30.73    44.06    60.63    77.98    86.75
eigval :      134.98   168.15   182.90   187.63   208.41   239.49
eigval :      274.09   290.76   340.46   362.59   371.47   375.48
eigval :      399.47   411.15   447.88   477.68   484.45   496.80
eigval :      541.06   562.19   567.03   577.99   590.40   595.60
eigval :      621.57   631.88   664.22   678.68   692.14   722.58
eigval :      725.63   755.13   759.10   765.24   784.84   797.38
eigval :      828.95   836.14   858.89   871.41   874.76   879.14
eigval :      892.33   894.86   900.23   908.75   913.96   925.23
eigval :      925.70   928.58   930.37   935.12   985.27  1026.89
eigval :     1062.75  1076.93  1081.03  1116.11  1119.02  1141.47
eigval :     1151.17  1170.88  1174.95  1177.29  1179.40  1183.88
eigval :     1205.07  1220.13  1228.09  1247.91  1257.87  1272.17
eigval :     1287.33  1319.95  1326.30  1328.26  1342.67  1364.64
eigval :     1389.20  1397.06  1418.81  1428.91  1431.66  1441.14
eigval :     1469.41  1493.51  1495.12  1519.96  1539.70  1557.62
eigval :     1577.31  1595.63  1598.64  1607.78  1613.49  3064.06
eigval :     3064.99  3066.06  3067.39  3068.84  3076.46  3078.69
eigval :     3080.61  3086.21  3089.46  3090.23  3096.13  3099.82
eigval :     3105.68  3114.89  3119.18

   temp. (K)  partition function   enthalpy   heat capacity  entropy
                                   cal/mol     cal/K/mol   cal/K/mol   J/K/mol
 298.15  VIB  0.711E+07            10119.773     69.011     60.575
         ROT  0.128E+08              888.752      2.981     35.505
         INT  0.912E+14            11008.526     71.992     96.080
         TR   0.555E+28             1481.254      4.968     43.169
         TOT                       12489.7797    76.9601   139.2492   582.6188

       T/K    H(0)-H(T)+PV         H(T)/Eh          T*S/Eh         G(T)/Eh
   ------------------------------------------------------------------------
    298.15    0.199037E-01    0.335449E+00    0.661618E-01    0.269287E+00
   ------------------------------------------------------------------------

         :::::::::::::::::::::::::::::::::::::::::::::::::::::
         ::                  THERMODYNAMIC                  ::
         :::::::::::::::::::::::::::::::::::::::::::::::::::::
         :: total free energy         -63.022678055349 Eh   ::
         ::.................................................::
         :: total energy              -63.291965465579 Eh   ::
         :: zero point energy           0.315545489348 Eh   ::
         :: G(RRHO) w/o ZPVE           -0.046258079118 Eh   ::
         :: G(RRHO) contrib.            0.269287410230 Eh   ::
         :::::::::::::::::::::::::::::::::::::::::::::::::::::

           -------------------------------------------------
          | TOTAL ENERGY              -63.291965465579 Eh   |
          | TOTAL ENTHALPY            -62.956516245345 Eh   |
          | TOTAL FREE ENERGY         -63.022678055349 Eh   |
          | GRADIENT NORM               0.000142818384 Eh/α |
          | HOMO-LUMO GAP               2.388078286027 eV   |
           -------------------------------------------------

 * finished run on 2025/09/04 at 13:08:53.522
