   * xtb version 6.7.1 (edcfbbe) compiled by 'albert@albert-system' on 2024-07-22

   ID    Z sym.   atoms
    1    7 N      1, 5, 11, 30
    2    6 C      2-4, 6-10, 12-29, 31-44
    3    1 H      45-72

          program call               : xtb data2507/gas/4-DPM/4-DPM.xyz --gfn 2 --ohess vtight --parallel 40 --molden --ceasefiles --namespace data2507/gas/4-DPM/4-DPM_gas_S0_preOpt
          :  Hamiltonian                  GFN2-xTB          :
 * total energy  :  -111.4999753 Eh     change       -0.3737668E-08 Eh
 * total energy  :  -111.5137478 Eh     change       -0.1377250E-01 Eh
 * total energy  :  -111.5192163 Eh     change       -0.5468520E-02 Eh
 * total energy  :  -111.5195177 Eh     change       -0.3013994E-03 Eh
 * total energy  :  -111.5214413 Eh     change       -0.1923596E-02 Eh
 * total energy  :  -111.5215294 Eh     change       -0.8806942E-04 Eh
 * total energy  :  -111.5224257 Eh     change       -0.8962951E-03 Eh
 * total energy  :  -111.5228585 Eh     change       -0.4327805E-03 Eh
 * total energy  :  -111.5233605 Eh     change       -0.5019786E-03 Eh
 * total energy  :  -111.5239184 Eh     change       -0.5579441E-03 Eh
 * total energy  :  -111.5336338 Eh     change       -0.3907655E-06 Eh
 * total energy  :  -111.5336342 Eh     change       -0.3334728E-06 Eh
 * total energy  :  -111.5336345 Eh     change       -0.3056140E-06 Eh
 * total energy  :  -111.5336348 Eh     change       -0.2895767E-06 Eh
 * total energy  :  -111.5336351 Eh     change       -0.2893483E-06 Eh
 * total energy  :  -111.5336353 Eh     change       -0.2824042E-06 Eh
 * total energy  :  -111.5336356 Eh     change       -0.2839906E-06 Eh
 * total energy  :  -111.5336359 Eh     change       -0.2760603E-06 Eh
 * total energy  :  -111.5336359 Eh     change       -0.4511307E-08 Eh
   *** GEOMETRY OPTIMIZATION CONVERGED AFTER 152 ITERATIONS ***

 final structure:
================
72
 xtb: 6.7.1 (edcfbbe)
N            1.95698613949864        4.37776995085954        3.29187541596581
C            1.05216571584096        3.77036105156438        2.93047461765591
C           -0.09994924605502        3.09239267890916        2.48009713119630
C           -1.29198988367627        3.60940629005402        3.02889996360132
N           -2.22923165102576        4.03607329441541        3.53698657604380
C           -0.06083020413606        2.03708834299444        1.60461572869722
C            1.20835201139958        1.43206440823612        1.21702074393360
C            1.41130759154097        1.02009196622407       -0.10406219963739
C            2.60634548061579        0.46441109797259       -0.49719318236974
C            3.64147506488727        0.27646966889306        0.42546253125475
N            4.84523980847607       -0.29201803960087        0.03357565642181
C            5.35249905574399       -0.06796487462467       -1.25556562876110
C            5.23734131443996        1.18610498605806       -1.85321859467265
C            5.74634989864156        1.40015914252972       -3.11955645554783
C            6.38232796902863        0.37623266621868       -3.80242065799815
C            6.50430901831364       -0.86957784947356       -3.20919300168772
C            5.99146385253160       -1.09604560261430       -1.94645044546874
C            5.58100598784518       -1.08653641850121        0.92687334069543
C            4.93158935846056       -1.98590009460354        1.77089631141661
C            5.66124922644623       -2.77042033081580        2.64298425494415
C            7.04288192979319       -2.67813155618039        2.68022591679257
C            7.69244548593338       -1.79048725632259        1.83821998229784
C            6.97091609421651       -0.99583690489268        0.96831724222927
C            3.43284670223446        0.66627303295105        1.75225224691729
C            2.24278362845322        1.23990835589866        2.13649988871289
C           -1.28334433547038        1.48130762331184        1.04305231241515
C           -2.37135298620051        2.28875837021928        0.69689215943900
C           -3.52777369900274        1.74032035048608        0.19491584246156
C           -3.65032188495672        0.35604940314896        0.02981280109473
N           -4.82767630255875       -0.19778359222720       -0.44725235582985
C           -6.06378392104202        0.40588309680561       -0.16043613169423
C           -6.30806799943252        0.95617296096232        1.09650261790589
C           -7.52863524767600        1.54237356225987        1.37096057941482
C           -8.52157848272418        1.57951573749185        0.40572660832532
C           -8.28443463693436        1.02774743567119       -0.84249581501292
C           -7.06396921436919        0.44712720232994       -1.12972820349289
C           -4.80740442616798       -1.37577841257453       -1.20932410509648
C           -5.78840065552116       -2.34867753575911       -1.02548917756989
C           -5.77493439534165       -3.50076117264475       -1.78777161151960
C           -4.78499545486428       -3.70333150641596       -2.73542657376166
C           -3.80738972433526       -2.73956061970340       -2.92048534014642
C           -3.81691832705543       -1.58055828024843       -2.16864507701447
C           -2.55632961815354       -0.45358301648638        0.35692084384677
C           -1.39624598118689        0.10067028564129        0.84333053532683
H            0.62270508253451        1.15930458158126       -0.82950890858788
H            2.74800874225073        0.15995105729832       -1.52358649476454
H            4.75471962196206        1.98930666544873       -1.31580840476322
H            5.65453398493702        2.37671006118997       -3.57135433315058
H            6.78250604771903        0.54890407968849       -4.78979919558560
H            6.99659452730311       -1.67380858268069       -3.73563913242199
H            6.08153258133232       -2.06937170716123       -1.48664452860457
H            3.85493130420565       -2.06715897827730        1.73421246850839
H            5.14742683073412       -3.46460891007817        3.29139587518365
H            7.60969988461723       -3.29477878745627        3.36084396476082
H            8.76895379651335       -1.70970372422540        1.86393257760939
H            7.47735772889318       -0.29809205900448        0.31774094116459
H            4.21931661670786        0.52555216802037        2.47806340871391
H            2.10440592766921        1.52182102751138        3.16939833996853
H           -2.29363999051227        3.36184770872187        0.78512773103885
H           -4.34930927306181        2.38255448898897       -0.08410748364917
H           -5.53934450920410        0.91895266492396        1.85427848084408
H           -7.70649613375565        1.96549934769002        2.34815919519100
H           -9.47493118212999        2.03526474978862        0.62524968603331
H           -9.05199363182338        1.05576093739634       -1.60163689174263
H           -6.87658263512199        0.02362486236137       -2.10570681233459
H           -6.55639241201790       -2.19440859051263       -0.28187755802869
H           -6.53890507961086       -4.24853688313193       -1.63521423007619
H           -4.77634329854390       -4.60579437249790       -3.32730683990919
H           -3.03641873632590       -2.88616758215685       -3.66245951590971
H           -3.06201327566821       -0.82346064188635       -2.32353562885431
H           -2.63487716426867       -1.52442271443629        0.24212596304780
H           -0.57177041176954       -0.54251876550045        1.11498103455610

          :  Hamiltonian                  GFN2-xTB          :
         :: gradient norm              0.000045010529 Eh/a0 ::
         :: HOMO-LUMO gap              1.657210430411 eV    ::
         :: SCC energy              -113.705856047485 Eh    ::
         :: -> dispersion             -0.098649182046 Eh    ::
         :: repulsion energy           2.172220146316 Eh    ::

    * Orbital Energies and Occupations

         #    Occupation            Energy/Eh            Energy/eV
      -------------------------------------------------------------
         1        2.0000           -0.6775630             -18.4374
       ...           ...                  ...                  ...
        92        2.0000           -0.4216326             -11.4732
        93        2.0000           -0.4201403             -11.4326
        94        2.0000           -0.4174997             -11.3607
        95        2.0000           -0.4168578             -11.3433
        96        2.0000           -0.4166729             -11.3382
        97        2.0000           -0.4151068             -11.2956
        98        2.0000           -0.4140798             -11.2677
        99        2.0000           -0.4130912             -11.2408
       100        2.0000           -0.4126350             -11.2284
       101        2.0000           -0.4119921             -11.2109
       102        2.0000           -0.3996583             -10.8753
       103        2.0000           -0.3616035              -9.8397
       104        2.0000           -0.3608258              -9.8186 (HOMO)
       105                         -0.2999244              -8.1614 (LUMO)
       106                         -0.2460479              -6.6953
       107                         -0.2404257              -6.5423
       108                         -0.2395269              -6.5179
       109                         -0.2391172              -6.5067
       110                         -0.2372541              -6.4560
       111                         -0.2337347              -6.3602
       112                         -0.2321854              -6.3181
       113                         -0.2302682              -6.2659
       114                         -0.2300517              -6.2600
       115                         -0.2269265              -6.1750
       ...                                ...                  ...
       204                          1.1776722              32.0461
      -------------------------------------------------------------
                  HL-Gap            0.0609014 Eh            1.6572 eV

     #   Z          covCN         q      C6AA      α(0)
     1   7 N        0.911    -0.250    26.516     7.447
     2   6 C        1.929     0.118    28.179     8.573
     3   6 C        2.955    -0.004    28.124     8.698
     4   6 C        1.929     0.118    28.178     8.573
     5   7 N        0.911    -0.252    26.549     7.452
     6   6 C        2.975     0.031    27.293     8.569
     7   6 C        2.978     0.001    28.011     8.682
     8   6 C        2.923    -0.028    28.711     8.787
     9   6 C        2.920    -0.049    29.212     8.863
    10   6 C        2.923     0.071    26.416     8.429
    11   7 N        2.753    -0.069    22.570     7.056
    12   6 C        2.926     0.064    26.562     8.452
    13   6 C        2.922    -0.046    29.134     8.851
    14   6 C        2.920    -0.028    28.704     8.786
    15   6 C        2.919    -0.036    28.895     8.815
    16   6 C        2.920    -0.028    28.709     8.787
    17   6 C        2.922    -0.046    29.139     8.852
    18   6 C        2.926     0.064    26.559     8.451
    19   6 C        2.922    -0.046    29.136     8.852
    20   6 C        2.920    -0.028    28.705     8.786
    21   6 C        2.919    -0.036    28.884     8.813
    22   6 C        2.920    -0.028    28.693     8.784
    23   6 C        2.922    -0.045    29.114     8.848
    24   6 C        2.920    -0.046    29.153     8.854
    25   6 C        2.922    -0.026    28.655     8.778
    26   6 C        2.978     0.000    28.019     8.683
    27   6 C        2.921    -0.026    28.655     8.778
    28   6 C        2.920    -0.047    29.159     8.855
    29   6 C        2.923     0.071    26.415     8.428
    30   7 N        2.752    -0.067    22.542     7.052
    31   6 C        2.926     0.063    26.582     8.455
    32   6 C        2.922    -0.045    29.106     8.847
    33   6 C        2.920    -0.027    28.678     8.782
    34   6 C        2.919    -0.035    28.868     8.811
    35   6 C        2.920    -0.028    28.706     8.786
    36   6 C        2.922    -0.045    29.129     8.851
    37   6 C        2.925     0.064    26.559     8.451
    38   6 C        2.922    -0.045    29.121     8.850
    39   6 C        2.920    -0.028    28.699     8.785
    40   6 C        2.919    -0.036    28.892     8.814
    41   6 C        2.920    -0.029    28.714     8.787
    42   6 C        2.922    -0.046    29.139     8.852
    43   6 C        2.920    -0.049    29.221     8.865
    44   6 C        2.923    -0.028    28.709     8.787
    45   1 H        0.926     0.035     2.518     2.481
    46   1 H        0.926     0.036     2.498     2.471
    47   1 H        0.926     0.035     2.514     2.479
    48   1 H        0.926     0.036     2.509     2.477
    49   1 H        0.926     0.034     2.532     2.488
    50   1 H        0.926     0.035     2.523     2.484
    51   1 H        0.926     0.033     2.541     2.493
    52   1 H        0.926     0.032     2.563     2.503
    53   1 H        0.926     0.035     2.519     2.482
    54   1 H        0.926     0.034     2.524     2.485
    55   1 H        0.926     0.036     2.507     2.476
    56   1 H        0.926     0.035     2.520     2.483
    57   1 H        0.926     0.041     2.432     2.439
    58   1 H        0.926     0.042     2.421     2.433
    59   1 H        0.926     0.043     2.410     2.428
    60   1 H        0.926     0.041     2.431     2.438
    61   1 H        0.926     0.037     2.486     2.466
    62   1 H        0.926     0.039     2.460     2.453
    63   1 H        0.926     0.035     2.513     2.479
    64   1 H        0.926     0.035     2.517     2.481
    65   1 H        0.926     0.033     2.545     2.495
    66   1 H        0.926     0.035     2.519     2.482
    67   1 H        0.926     0.035     2.510     2.478
    68   1 H        0.926     0.034     2.529     2.487
    69   1 H        0.926     0.034     2.524     2.484
    70   1 H        0.926     0.032     2.552     2.498
    71   1 H        0.926     0.037     2.494     2.469
    72   1 H        0.926     0.035     2.511     2.478

molecular dipole:
                 x           y           z       tot (Debye)
 q only:       -0.062      -2.215      -1.788
   full:       -0.042      -2.581      -2.098       8.454

 projected vibrational frequencies (cm⁻¹)
eigval :       -0.00    -0.00    -0.00     0.00     0.00     0.00
eigval :        9.63    11.58    13.54    23.87    34.35    36.04
eigval :       43.27    46.26    55.18    57.58    60.15    64.07
eigval :       70.26    76.58    79.19    92.62   108.14   120.43
eigval :      137.75   162.41   165.98   178.62   193.32   203.27
eigval :      217.51   234.12   235.54   237.36   271.60   280.58
eigval :      309.13   309.83   331.37   341.09   359.57   377.77
eigval :      377.94   378.67   380.96   384.41   388.39   393.71
eigval :      402.00   412.08   428.90   437.40   445.76   472.28
eigval :      489.37   492.57   497.52   500.23   515.90   558.50
eigval :      579.36   582.26   585.16   585.25   587.09   593.18
eigval :      593.73   600.08   606.99   611.57   635.05   638.72
eigval :      660.50   661.17   666.11   668.63   682.16   694.43
eigval :      707.20   728.95   758.16   758.41   760.96   761.87
eigval :      816.97   819.38   865.69   867.32   875.42   875.68
eigval :      876.27   876.43   888.18   893.13   895.45   895.96
eigval :      898.14   899.91   909.96   910.06   918.81   919.65
eigval :      926.32   927.09   928.50   928.70   929.54   929.68
eigval :      930.28   930.50   931.26   932.00   936.83   951.90
eigval :      986.46   990.45  1005.48  1005.54  1020.96  1031.47
eigval :     1082.59  1082.67  1083.66  1083.71  1121.47  1121.59
eigval :     1123.27  1123.46  1148.38  1149.45  1180.27  1180.45
eigval :     1180.51  1180.54  1185.68  1186.48  1194.63  1194.67
eigval :     1196.02  1197.88  1208.02  1210.08  1218.74  1231.42
eigval :     1271.35  1272.62  1277.66  1278.14  1281.05  1281.77
eigval :     1305.41  1310.45  1314.06  1317.32  1317.77  1325.61
eigval :     1325.80  1330.13  1332.29  1341.01  1343.53  1416.78
eigval :     1419.08  1436.05  1436.17  1441.76  1441.96  1468.91
eigval :     1469.62  1473.75  1474.13  1482.59  1488.84  1521.18
eigval :     1540.95  1545.26  1578.48  1578.53  1581.13  1582.54
eigval :     1584.46  1593.55  1593.93  1595.14  1599.07  1601.86
eigval :     2333.42  2362.15  3077.34  3077.69  3077.97  3078.57
eigval :     3078.61  3079.61  3080.24  3080.34  3080.43  3082.52
eigval :     3087.17  3087.33  3087.79  3088.19  3089.56  3089.66
eigval :     3090.83  3091.42  3091.75  3092.78  3093.03  3093.82
eigval :     3099.70  3099.83  3100.17  3100.70  3101.06  3101.29

   temp. (K)  partition function   enthalpy   heat capacity  entropy
                                   cal/mol     cal/K/mol   cal/K/mol   J/K/mol
 298.15  VIB  0.555E+18            21631.864    132.213    137.342
         ROT  0.798E+08              888.752      2.981     39.138
         INT  0.443E+26            22520.616    135.194    176.480
         TR   0.130E+29             1481.254      4.968     44.858
         TOT                       24001.8702   140.1619   221.3381   926.0786

       T/K    H(0)-H(T)+PV         H(T)/Eh          T*S/Eh         G(T)/Eh
   ------------------------------------------------------------------------
    298.15    0.382494E-01    0.588543E+00    0.105165E+00    0.483378E+00
   ------------------------------------------------------------------------

         :::::::::::::::::::::::::::::::::::::::::::::::::::::
         ::                  THERMODYNAMIC                  ::
         :::::::::::::::::::::::::::::::::::::::::::::::::::::
         :: total free energy        -111.050258166994 Eh   ::
         ::.................................................::
         :: total energy             -111.533635901167 Eh   ::
         :: zero point energy           0.550293193904 Eh   ::
         :: G(RRHO) w/o ZPVE           -0.066915459730 Eh   ::
         :: G(RRHO) contrib.            0.483377734174 Eh   ::
         :::::::::::::::::::::::::::::::::::::::::::::::::::::

           -------------------------------------------------
          | TOTAL ENERGY             -111.533635901167 Eh   |
          | TOTAL ENTHALPY           -110.945093292414 Eh   |
          | TOTAL FREE ENERGY        -111.050258166994 Eh   |
          | GRADIENT NORM               0.000045055571 Eh/α |
          | HOMO-LUMO GAP               1.657212000321 eV   |
           -------------------------------------------------

 * finished run on 2025/09/14 at 07:50:51.080
