   * xtb version 6.7.1 (edcfbbe) compiled by 'albert@albert-system' on 2024-07-22

   ID    Z sym.   atoms
    1    7 N      1, 5, 11, 30
    2    6 C      2-4, 6-10, 12-29, 31-44
    3    1 H      45-72

          program call               : xtb data2507/gas/4-DPM/4-DPM_gas_S0_crest.xyz --gfn 2 --ohess vtight --parallel 40 --molden --ceasefiles --namespace data2507/gas/4-DPM/4-DPM_gas_S0_finalOpt
          :  Hamiltonian                  GFN2-xTB          :
 * total energy  :  -111.5343385 Eh     change       -0.7274238E-08 Eh
 * total energy  :  -111.5343373 Eh     change        0.1201700E-05 Eh
 * total energy  :  -111.5343409 Eh     change       -0.3537658E-05 Eh
 * total energy  :  -111.5343421 Eh     change       -0.1235501E-05 Eh
 * total energy  :  -111.5343435 Eh     change       -0.1409552E-05 Eh
 * total energy  :  -111.5343453 Eh     change       -0.1753336E-05 Eh
 * total energy  :  -111.5343474 Eh     change       -0.2132288E-05 Eh
 * total energy  :  -111.5343506 Eh     change       -0.3222103E-05 Eh
 * total energy  :  -111.5343524 Eh     change       -0.1821488E-05 Eh
 * total energy  :  -111.5343538 Eh     change       -0.1391894E-05 Eh
 * total energy  :  -111.5343747 Eh     change       -0.3527487E-06 Eh
 * total energy  :  -111.5343750 Eh     change       -0.3418042E-06 Eh
 * total energy  :  -111.5343753 Eh     change       -0.2783489E-06 Eh
 * total energy  :  -111.5343756 Eh     change       -0.2899247E-06 Eh
 * total energy  :  -111.5343759 Eh     change       -0.3430651E-06 Eh
 * total energy  :  -111.5343762 Eh     change       -0.2849996E-06 Eh
 * total energy  :  -111.5343764 Eh     change       -0.1842243E-06 Eh
 * total energy  :  -111.5343765 Eh     change       -0.1624370E-06 Eh
 * total energy  :  -111.5343765 Eh     change       -0.5133401E-08 Eh
   *** GEOMETRY OPTIMIZATION CONVERGED AFTER 44 ITERATIONS ***

 final structure:
================
72
 xtb: 6.7.1 (edcfbbe)
N            2.08113608116660        5.11046829067260        0.32233397601715
C            1.16811707583516        4.43412422102222        0.15595059562631
C            0.00340151711963        3.65412633015808        0.00169685436682
C           -1.16402372111373        4.42963009895685       -0.15567367059584
N           -2.08021263435551        5.10099481223993       -0.32465736885099
C            0.00446571534797        2.28181964534941        0.00408626724155
C            1.25217692697753        1.53148514933972       -0.01127772785474
C            2.35849264391320        1.95437286374549       -0.75421198093182
C            3.53105373285329        1.23628822704471       -0.74808145915325
C            3.65197727374653        0.07023693623671        0.01607761258680
N            4.84058597930356       -0.64211347126548        0.03808742933200
C            4.83764138927005       -2.03445698349830        0.21229283208520
C            3.87355237970784       -2.82451459871282       -0.41196576557126
C            3.88157802687141       -4.19531377463774       -0.24036250704219
C            4.85123762295959       -4.79807374217497        0.54402668426167
C            5.81565844638203       -4.01739758498151        1.16004501493742
C            5.81106882907693       -2.64506744749357        1.00118203478037
C            6.07081052097482        0.02079315770709       -0.10977774735436
C            7.09087874231888       -0.55815449776782       -0.86207006604836
C            8.30514684325785        0.08718842947884       -0.99679879006822
C            8.51642218549948        1.31581128560932       -0.39299188985307
C            7.50387716064312        1.89512461382663        0.35411656985616
C            6.28911001693367        1.25377284210763        0.50203675795847
C            2.54339779898181       -0.36080592154060        0.75402654663051
C            1.36706087321283        0.35007128985571        0.72977728743345
C           -1.24406006338068        1.53227560696398        0.02189651732300
C           -2.34641383702288        1.95435093200624        0.77099023742736
C           -3.52056343433697        1.23888192180008        0.76621953894272
C           -3.64749099431123        0.07719226082560       -0.00362454458004
N           -4.83892223318291       -0.63032188058077       -0.02637278983683
C           -6.06584172514793        0.03656489127756        0.13163945995314
C           -7.08449827508280       -0.54335285335075        0.88507321300724
C           -8.29530540611588        0.10616327380584        1.03056595489173
C           -8.50442438517278        1.33984415213300        0.43640475679633
C           -7.49337688292673        1.91993996355840       -0.31213569937956
C           -6.28213592081112        1.27449871517154       -0.47079602625672
C           -4.84328766394190       -2.02119164773103       -0.21194877564570
C           -3.88137453107523       -2.82133731366545        0.40270659838473
C           -3.89715780967212       -4.19063654502699        0.21987426244636
C           -4.87238332004292       -4.78187222108380       -0.56637869515010
C           -5.83464150496228       -3.99115394247161       -1.17290338760985
C           -5.82238527097890       -2.62024414134187       -1.00270497791444
C           -2.54236674394755       -0.35362673162243       -0.74684894068201
C           -1.36400822064524        0.35406552354666       -0.72319537697331
H            2.28339243114483        2.83333823671629       -1.37648644558057
H            4.36591147986198        1.56745689690067       -1.34687457324847
H            3.12528151596751       -2.35720621580834       -1.03548559919131
H            3.13087050196811       -4.79728010125968       -0.73080931598195
H            4.85639344491613       -5.86964514793223        0.67274676152335
H            6.57351422616709       -4.47919233418957        1.77526454804271
H            6.55905870659231       -2.03618062594966        1.48732343185047
H            6.92353175200956       -1.51270998807480       -1.33940679640795
H            9.08807316673476       -0.36953919780701       -1.58388508674759
H            9.46493483214569        1.81868990836040       -0.50358944557947
H            7.66174951869173        2.85006437234426        0.83241537780832
H            5.50472978222979        1.70258215938800        1.09353168560219
H            2.62173617741508       -1.25207503471533        1.35863348789513
H            0.52905999289121        0.01418964483902        1.32329450348812
H           -2.26682576752355        2.83049691667587        1.39672196405713
H           -4.35223340616220        1.56915802605310        1.36990025448204
H           -6.91872240209434       -1.50190581244473        1.35490067251034
H           -9.07712332191901       -0.35129445360129        1.61856457090927
H           -9.45013505742825        1.84604246868638        0.55555684600390
H           -7.64965711633168        2.87879239792193       -0.78306898449950
H           -5.49893177075167        1.72408180213221       -1.06325966216190
H           -3.12873626153689       -2.36308300891210        1.02768627754032
H           -3.14809960420231       -4.80055145744370        0.70297136189567
H           -4.88353866090587       -5.85230624259169       -0.70390115029400
H           -6.59683115209014       -4.44391100474981       -1.78948743206750
H           -6.56874620953138       -2.00347384308623       -1.48135731564077
H           -2.62495146850596       -1.24187248413806       -1.35531684977512
H           -0.52864553927552        0.01851033359356       -1.32062647666882

          :  Hamiltonian                  GFN2-xTB          :
         :: gradient norm              0.000052917061 Eh/a0 ::
         :: HOMO-LUMO gap              1.683935309351 eV    ::
         :: SCC energy              -113.706626413867 Eh    ::
         :: -> dispersion             -0.098907933096 Eh    ::
         :: repulsion energy           2.172249869613 Eh    ::

    * Orbital Energies and Occupations

         #    Occupation            Energy/Eh            Energy/eV
      -------------------------------------------------------------
         1        2.0000           -0.6771655             -18.4266
       ...           ...                  ...                  ...
        92        2.0000           -0.4212894             -11.4639
        93        2.0000           -0.4197236             -11.4213
        94        2.0000           -0.4173833             -11.3576
        95        2.0000           -0.4171877             -11.3523
        96        2.0000           -0.4159466             -11.3185
        97        2.0000           -0.4151222             -11.2961
        98        2.0000           -0.4146096             -11.2821
        99        2.0000           -0.4127774             -11.2322
       100        2.0000           -0.4122985             -11.2192
       101        2.0000           -0.4112086             -11.1896
       102        2.0000           -0.3998412             -10.8802
       103        2.0000           -0.3613694              -9.8334
       104        2.0000           -0.3610060              -9.8235 (HOMO)
       105                         -0.2991225              -8.1395 (LUMO)
       106                         -0.2457801              -6.6880
       107                         -0.2402525              -6.5376
       108                         -0.2396427              -6.5210
       109                         -0.2390201              -6.5041
       110                         -0.2371462              -6.4531
       111                         -0.2337782              -6.3614
       112                         -0.2324789              -6.3261
       113                         -0.2298953              -6.2558
       114                         -0.2297984              -6.2531
       115                         -0.2265230              -6.1640
       ...                                ...                  ...
       204                          1.1781462              32.0590
      -------------------------------------------------------------
                  HL-Gap            0.0618834 Eh            1.6839 eV

     #   Z          covCN         q      C6AA      α(0)
     1   7 N        0.911    -0.253    26.571     7.455
     2   6 C        1.929     0.118    28.182     8.573
     3   6 C        2.955    -0.005    28.141     8.701
     4   6 C        1.929     0.118    28.182     8.573
     5   7 N        0.911    -0.253    26.570     7.455
     6   6 C        2.975     0.031    27.305     8.571
     7   6 C        2.978     0.000    28.018     8.683
     8   6 C        2.921    -0.026    28.653     8.778
     9   6 C        2.920    -0.047    29.165     8.856
    10   6 C        2.923     0.071    26.419     8.429
    11   7 N        2.752    -0.067    22.547     7.052
    12   6 C        2.925     0.064    26.558     8.451
    13   6 C        2.922    -0.046    29.139     8.852
    14   6 C        2.920    -0.029    28.716     8.788
    15   6 C        2.919    -0.036    28.895     8.815
    16   6 C        2.920    -0.028    28.700     8.785
    17   6 C        2.922    -0.045    29.121     8.849
    18   6 C        2.926     0.063    26.581     8.455
    19   6 C        2.922    -0.045    29.129     8.851
    20   6 C        2.920    -0.028    28.707     8.786
    21   6 C        2.919    -0.035    28.869     8.811
    22   6 C        2.920    -0.027    28.680     8.782
    23   6 C        2.922    -0.044    29.105     8.847
    24   6 C        2.920    -0.049    29.225     8.865
    25   6 C        2.923    -0.028    28.710     8.787
    26   6 C        2.978     0.000    28.019     8.683
    27   6 C        2.921    -0.026    28.653     8.778
    28   6 C        2.920    -0.047    29.166     8.856
    29   6 C        2.923     0.071    26.420     8.429
    30   7 N        2.752    -0.067    22.547     7.052
    31   6 C        2.926     0.063    26.581     8.455
    32   6 C        2.922    -0.045    29.128     8.851
    33   6 C        2.920    -0.028    28.707     8.786
    34   6 C        2.919    -0.035    28.869     8.811
    35   6 C        2.920    -0.027    28.680     8.782
    36   6 C        2.922    -0.044    29.104     8.847
    37   6 C        2.925     0.064    26.557     8.451
    38   6 C        2.922    -0.046    29.139     8.852
    39   6 C        2.920    -0.029    28.716     8.788
    40   6 C        2.919    -0.036    28.895     8.815
    41   6 C        2.920    -0.028    28.700     8.785
    42   6 C        2.922    -0.045    29.120     8.849
    43   6 C        2.920    -0.049    29.226     8.865
    44   6 C        2.923    -0.028    28.710     8.787
    45   1 H        0.926     0.043     2.415     2.430
    46   1 H        0.926     0.041     2.436     2.440
    47   1 H        0.926     0.032     2.552     2.498
    48   1 H        0.926     0.034     2.527     2.486
    49   1 H        0.926     0.034     2.531     2.488
    50   1 H        0.926     0.035     2.511     2.478
    51   1 H        0.926     0.035     2.519     2.482
    52   1 H        0.926     0.033     2.547     2.496
    53   1 H        0.926     0.035     2.518     2.482
    54   1 H        0.926     0.035     2.514     2.479
    55   1 H        0.926     0.039     2.462     2.453
    56   1 H        0.926     0.037     2.483     2.464
    57   1 H        0.926     0.036     2.497     2.471
    58   1 H        0.926     0.035     2.516     2.480
    59   1 H        0.926     0.042     2.418     2.432
    60   1 H        0.926     0.041     2.436     2.441
    61   1 H        0.926     0.033     2.547     2.496
    62   1 H        0.926     0.035     2.519     2.482
    63   1 H        0.926     0.035     2.514     2.480
    64   1 H        0.926     0.039     2.461     2.453
    65   1 H        0.926     0.038     2.482     2.463
    66   1 H        0.926     0.032     2.552     2.498
    67   1 H        0.926     0.034     2.527     2.486
    68   1 H        0.926     0.034     2.532     2.488
    69   1 H        0.926     0.035     2.511     2.478
    70   1 H        0.926     0.035     2.519     2.482
    71   1 H        0.926     0.036     2.497     2.471
    72   1 H        0.926     0.035     2.517     2.481

molecular dipole:
                 x           y           z       tot (Debye)
 q only:        0.003      -2.837       0.004
   full:        0.004      -3.327       0.005       8.456

 projected vibrational frequencies (cm⁻¹)
eigval :       -0.00    -0.00    -0.00    -0.00    -0.00     0.00
eigval :       11.03    11.20    13.12    24.03    35.46    36.91
eigval :       41.85    42.72    54.98    57.84    58.39    68.52
eigval :       72.21    74.62    78.96    90.66   107.21   121.56
eigval :      139.08   162.99   167.62   178.81   192.51   205.88
eigval :      213.12   234.38   237.33   240.39   270.26   285.88
eigval :      307.65   309.66   332.92   333.64   370.11   378.04
eigval :      378.27   380.07   381.00   391.05   392.20   396.14
eigval :      398.07   407.65   423.30   438.62   446.08   471.25
eigval :      489.47   491.99   498.24   501.52   516.58   559.80
eigval :      578.87   581.79   585.05   585.39   587.13   592.86
eigval :      594.37   600.92   604.71   611.10   634.95   640.42
eigval :      660.78   661.59   666.35   668.82   682.56   694.32
eigval :      707.21   728.86   758.39   758.53   761.10   762.04
eigval :      816.64   818.83   865.28   866.27   875.67   875.94
eigval :      876.30   876.58   887.76   893.65   896.00   896.03
eigval :      898.53   900.40   910.01   910.03   918.68   919.41
eigval :      925.96   927.01   928.75   928.76   929.60   929.62
eigval :      930.61   930.65   932.09   932.17   936.79   951.94
eigval :      986.43   990.47  1005.45  1005.50  1020.83  1031.54
eigval :     1082.59  1082.62  1083.64  1083.66  1121.56  1121.58
eigval :     1123.38  1123.41  1149.19  1149.80  1180.28  1180.29
eigval :     1180.47  1180.57  1185.92  1186.53  1194.56  1194.67
eigval :     1196.69  1198.41  1208.63  1210.91  1219.01  1231.96
eigval :     1271.64  1272.92  1277.61  1277.96  1280.93  1281.63
eigval :     1305.19  1309.91  1314.24  1317.07  1317.57  1325.53
eigval :     1325.68  1330.33  1332.32  1342.15  1344.00  1418.67
eigval :     1419.01  1436.06  1436.14  1441.68  1441.71  1468.70
eigval :     1469.24  1473.58  1473.87  1482.79  1489.42  1519.50
eigval :     1540.67  1543.84  1578.47  1578.53  1580.72  1582.56
eigval :     1583.92  1593.50  1593.66  1595.04  1598.94  1601.93
eigval :     2332.75  2361.22  3077.12  3077.47  3078.36  3078.44
eigval :     3078.54  3080.11  3080.25  3080.28  3082.46  3082.49
eigval :     3087.22  3087.26  3087.95  3088.01  3089.06  3089.27
eigval :     3091.34  3091.38  3092.89  3092.91  3093.10  3093.81
eigval :     3099.69  3099.77  3100.38  3100.49  3101.08  3101.19

   temp. (K)  partition function   enthalpy   heat capacity  entropy
                                   cal/mol     cal/K/mol   cal/K/mol   J/K/mol
 298.15  VIB  0.517E+18            21619.370    132.128    137.145
         ROT  0.389E+08              888.752      2.981     37.712
         INT  0.201E+26            22508.122    135.108    174.857
         TR   0.130E+29             1481.254      4.968     44.858
         TOT                       23989.3761   140.0766   219.7142   919.2841

       T/K    H(0)-H(T)+PV         H(T)/Eh          T*S/Eh         G(T)/Eh
   ------------------------------------------------------------------------
    298.15    0.382295E-01    0.588572E+00    0.104393E+00    0.484179E+00
   ------------------------------------------------------------------------

         :::::::::::::::::::::::::::::::::::::::::::::::::::::
         ::                  THERMODYNAMIC                  ::
         :::::::::::::::::::::::::::::::::::::::::::::::::::::
         :: total free energy        -111.050197412966 Eh   ::
         ::.................................................::
         :: total energy             -111.534376544252 Eh   ::
         :: zero point energy           0.550342920768 Eh   ::
         :: G(RRHO) w/o ZPVE           -0.066163789483 Eh   ::
         :: G(RRHO) contrib.            0.484179131285 Eh   ::
         :::::::::::::::::::::::::::::::::::::::::::::::::::::

           -------------------------------------------------
          | TOTAL ENERGY             -111.534376544252 Eh   |
          | TOTAL ENTHALPY           -110.945804119191 Eh   |
          | TOTAL FREE ENERGY        -111.050197412966 Eh   |
          | GRADIENT NORM               0.000052945562 Eh/α |
          | HOMO-LUMO GAP               1.683933708807 eV   |
           -------------------------------------------------

 * finished run on 2025/09/14 at 07:56:29.734
