   * xtb version 6.7.1 (edcfbbe) compiled by 'albert@albert-system' on 2024-07-22

   ID    Z sym.   atoms
    1    7 N      1, 5, 11, 30
    2    6 C      2-4, 6-10, 12-29, 31-44
    3    1 H      45-72

          program call               : xtb data2507/gas/4-DPM/4-DPM_gas_S0_finalOpt.xtbopt.xyz --gfn 2 --spinpol --tblite --uhf 2 --ohess vtight --parallel 40 --molden --ceasefiles --namespace data2507/gas/4-DPM/4-DPM_gas_T1_preOpt
 * total energy  :  -111.4646393 Eh     change       -0.2208900E-07 Eh
 * total energy  :  -111.4691264 Eh     change       -0.4487074E-02 Eh
 * total energy  :  -111.4702775 Eh     change       -0.1151121E-02 Eh
 * total energy  :  -111.4704692 Eh     change       -0.1916434E-03 Eh
 * total energy  :  -111.4706572 Eh     change       -0.1880246E-03 Eh
 * total energy  :  -111.4707768 Eh     change       -0.1195768E-03 Eh
 * total energy  :  -111.4708926 Eh     change       -0.1158809E-03 Eh
 * total energy  :  -111.4709826 Eh     change       -0.8998921E-04 Eh
 * total energy  :  -111.4710729 Eh     change       -0.9024595E-04 Eh
 * total energy  :  -111.4711616 Eh     change       -0.8875621E-04 Eh
 * total energy  :  -111.4725738 Eh     change       -0.9294430E-06 Eh
 * total energy  :  -111.4725747 Eh     change       -0.8836595E-06 Eh
 * total energy  :  -111.4725756 Eh     change       -0.8656040E-06 Eh
 * total energy  :  -111.4725765 Eh     change       -0.9143832E-06 Eh
 * total energy  :  -111.4725772 Eh     change       -0.7550072E-06 Eh
 * total energy  :  -111.4725781 Eh     change       -0.8245319E-06 Eh
 * total energy  :  -111.4725789 Eh     change       -0.8872914E-06 Eh
 * total energy  :  -111.4725798 Eh     change       -0.8238754E-06 Eh
 * total energy  :  -111.4725798 Eh     change       -0.7239947E-08 Eh
   *** GEOMETRY OPTIMIZATION CONVERGED AFTER 122 ITERATIONS ***

 final structure:
================
72
 xtb: 6.7.1 (edcfbbe)
N            1.97234508762193        4.89405527600856        0.90061211634424
C            1.08503790969948        4.27692873264890        0.49104790970891
C            0.00605334658747        3.54554911373592        0.01373632377929
C           -1.07077181281724        4.28210074905459       -0.46049128245635
N           -1.95623619432566        4.90356225592879       -0.86747995699331
C            0.00392262199223        2.09541017293391        0.01068030762494
C            1.25109570521677        1.39734664224635       -0.03998669789894
C            2.39508964887138        1.94480062627359       -0.65874905245140
C            3.59297879368555        1.27826403074600       -0.66672164425610
C            3.72165602392267        0.02784354366780       -0.04791957413381
N            4.94221760347318       -0.64321030434429       -0.04128056969588
C            4.97315240826250       -2.03872448152647       -0.10126680981308
C            4.05215853161333       -2.73288172210009       -0.88826665786413
C            4.08127036152743       -4.11232646415537       -0.93764818326763
C            5.02604831094717       -4.82095672791257       -0.21236488907393
C            5.94534512828064       -4.13665754204767        0.56719414938945
C            5.92238385289646       -2.75754025191846        0.62786254762011
C            6.13872637644218        0.07719308283676        0.03861191730583
C            7.26457914214996       -0.34918635674329       -0.66781393831632
C            8.44432470140703        0.36382306842328       -0.58779949523752
C            8.52022637847502        1.50958606774457        0.18824359250587
C            7.40401487972748        1.93807793906906        0.88930976883834
C            6.22057819434556        1.23002773226032        0.82121758708954
C            2.59517847366696       -0.52950468109667        0.57355945691633
C            1.39563280730906        0.13141977898295        0.57001928163897
C           -1.24530848900404        1.40082232254582        0.05835570939984
C           -2.38770196897997        1.94902362873269        0.67941101178296
C           -3.58759224853535        1.28607202925595        0.68440086110166
C           -3.71998667515727        0.03873992988264        0.06016516307058
N           -4.94259625871697       -0.62852351293720        0.05040447499133
C           -6.13687081063749        0.09589268549596       -0.02660444968618
C           -7.26418004531535       -0.33010154081883        0.67772953286069
C           -8.44172413141625        0.38684831645867        0.60055768716767
C           -8.51395368898279        1.53618661816773       -0.17053377535761
C           -7.39628076154409        1.96430068448059       -0.86949949867533
C           -6.21502564213976        1.25235443180404       -0.80422193342583
C           -4.97785463110508       -2.02418811564694        0.10419834911866
C           -4.05921726274769       -2.72467165121240        0.88834168651371
C           -4.09261795449700       -4.10422485677178        0.93161109676256
C           -5.03939302683800       -4.80670860824297        0.20296003049094
C           -5.95635855492297       -4.11612159658106       -0.57379516674201
C           -5.92911447522048       -2.73682761143314       -0.62834466294734
C           -2.59511200847726       -0.51933390518089       -0.56356668300455
C           -1.39358516297614        0.13795561649461       -0.55707206991263
H            2.32192500451405        2.89109209233465       -1.17251187249721
H            4.44522022265730        1.70887254139703       -1.17146233503893
H            3.32565307240558       -2.18040411623184       -1.46561551354720
H            3.36637539259337       -4.63779706475394       -1.55321588160226
H            5.04612709324898       -5.89910882065861       -0.25463527526047
H            6.68076454109777       -4.68193062223112        1.13971931904100
H            6.62984209743462       -2.22614307344395        1.24719986160220
H            7.20161103724007       -1.23357688925539       -1.28492809114748
H            9.30757076922275        0.02747661734792       -1.14256394348944
H            9.44339775269839        2.06549087395079        0.24532090366048
H            7.45597326441157        2.82702958515543        1.49944162288013
H            5.35547140200957        1.55884937223540        1.37743188791164
H            2.68914307222946       -1.47632623221852        1.08574736517560
H            0.55363793786324       -0.29437771291581        1.09558389009038
H           -2.31173295512561        2.89286257530427        1.19726384073232
H           -4.43858448515206        1.71706336364336        1.19092014875053
H           -7.20405222196944       -1.21735046144833        1.29101236646770
H           -9.30611817861955        0.05074036379780        1.15367709276647
H           -9.43541240594844        2.09514729954250       -0.22540304933066
H           -7.44538810738594        2.85603844001490       -1.47578986654867
H           -5.34879454263250        1.58094067019831       -1.35882321143487
H           -3.33115220682252       -2.17700704670086        1.46830604635957
H           -3.37951996185069       -4.63462914840715        1.54502834527102
H           -5.06282168231042       -5.88497027559566        0.24045129191724
H           -6.69330677709549       -4.65657400774662       -1.14892003569048
H           -6.63476154748071       -2.20050475623336       -1.24549861573322
H           -2.69186748998454       -1.46365787308895       -1.07983000301415
H           -0.55282096771775       -0.28811394233729       -1.08438427384208

 projected vibrational frequencies (cm⁻¹)
eigval :       -0.00    -0.00    -0.00     0.00     0.00     0.00
eigval :       11.41    12.17    13.55    21.99    31.93    35.65
eigval :       40.69    45.21    51.69    59.13    59.32    72.29
eigval :       73.44    76.26    82.45    91.27   106.75   116.15
eigval :      141.34   160.21   167.82   178.84   186.51   213.89
eigval :      215.25   233.65   235.77   242.75   264.66   300.55
eigval :      307.00   311.16   324.42   332.77   366.06   376.46
eigval :      377.30   377.53   378.55   382.10   390.22   390.97
eigval :      392.80   405.27   413.72   419.43   442.01   454.77
eigval :      478.88   489.09   493.50   501.66   513.12   516.66
eigval :      569.79   577.91   581.09   582.85   583.56   586.22
eigval :      591.14   592.81   598.31   608.69   613.43   635.11
eigval :      658.83   659.13   663.38   666.43   673.06   676.39
eigval :      702.17   725.15   757.03   757.09   759.71   760.65
eigval :      809.29   815.01   847.58   860.84   872.09   872.32
eigval :      873.78   874.69   885.69   890.70   894.71   894.74
eigval :      898.17   898.66   908.60   909.23   912.14   916.90
eigval :      919.50   927.55   927.60   928.43   928.67   928.82
eigval :      929.23   929.93   930.33   930.50   934.31   941.33
eigval :      982.83   985.02  1003.06  1003.12  1013.26  1018.38
eigval :     1081.27  1081.41  1082.27  1082.28  1121.74  1121.77
eigval :     1124.03  1124.04  1147.25  1150.57  1173.32  1179.48
eigval :     1179.48  1179.77  1179.82  1183.03  1192.09  1192.24
eigval :     1192.71  1192.80  1204.08  1216.81  1225.97  1253.18
eigval :     1270.86  1272.65  1276.15  1276.98  1279.23  1279.56
eigval :     1300.72  1306.37  1309.22  1316.55  1317.15  1319.13
eigval :     1326.43  1326.76  1327.15  1331.41  1332.81  1357.14
eigval :     1425.69  1430.15  1433.84  1437.56  1439.56  1441.04
eigval :     1451.45  1462.70  1463.04  1463.85  1463.90  1469.27
eigval :     1497.83  1500.93  1555.56  1569.76  1569.76  1574.07
eigval :     1574.14  1584.26  1584.34  1586.09  1590.88  1592.50
eigval :     2205.36  2291.26  3074.29  3075.44  3079.47  3079.49
eigval :     3080.66  3080.72  3081.69  3081.70  3083.56  3083.69
eigval :     3085.88  3085.90  3086.93  3088.90  3089.55  3089.63
eigval :     3090.33  3090.54  3093.25  3093.35  3095.65  3095.70
eigval :     3098.82  3099.16  3100.95  3101.43  3102.73  3103.17

   temp. (K)  partition function   enthalpy   heat capacity  entropy
                                   cal/mol     cal/K/mol   cal/K/mol   J/K/mol
 298.15  VIB  0.573E+18            21755.912    133.009    137.692
         ROT  0.393E+08              888.752      2.981     37.730
         INT  0.225E+26            22644.664    135.990    175.422
         TR   0.130E+29             1481.254      4.968     44.858
         TOT                       24125.9179   140.9583   220.2793   921.6488

       T/K    H(0)-H(T)+PV         H(T)/Eh          T*S/Eh         G(T)/Eh
   ------------------------------------------------------------------------
    298.15    0.384471E-01    0.586333E+00    0.104662E+00    0.481671E+00
   ------------------------------------------------------------------------

         :::::::::::::::::::::::::::::::::::::::::::::::::::::
         ::                  THERMODYNAMIC                  ::
         :::::::::::::::::::::::::::::::::::::::::::::::::::::
         :: total free energy        -110.990908742897 Eh   ::
         ::.................................................::
         :: total energy             -111.472579767134 Eh   ::
         :: zero point energy           0.547885750452 Eh   ::
         :: G(RRHO) w/o ZPVE           -0.066214726216 Eh   ::
         :: G(RRHO) contrib.            0.481671024237 Eh   ::
         :::::::::::::::::::::::::::::::::::::::::::::::::::::

           -------------------------------------------------
          | TOTAL ENERGY             -111.472579767134 Eh   |
          | TOTAL ENTHALPY           -110.886246919260 Eh   |
          | TOTAL FREE ENERGY        -110.990908742897 Eh   |
          | GRADIENT NORM               0.000075563711 Eh/α |
           -------------------------------------------------

 * finished run on 2025/09/14 at 07:56:45.040
