   * xtb version 6.7.1 (edcfbbe) compiled by 'albert@albert-system' on 2024-07-22

   ID    Z sym.   atoms
    1    7 N      1, 5, 11, 30
    2    6 C      2-4, 6-10, 12-29, 31-44
    3    1 H      45-72

          program call               : xtb data2507/gas/4-DPM/4-DPM_gas_T1_crest.xyz --gfn 2 --spinpol --tblite --uhf 2 --ohess vtight --parallel 40 --molden --ceasefiles --namespace data2507/gas/4-DPM/4-DPM_gas_T1_finalOpt
 * total energy  :  -111.4725649 Eh     change        0.9865104E-08 Eh
 * total energy  :  -111.4725861 Eh     change       -0.2126607E-04 Eh
 * total energy  :  -111.4725943 Eh     change       -0.8143544E-05 Eh
 * total energy  :  -111.4725994 Eh     change       -0.5121672E-05 Eh
 * total energy  :  -111.4726071 Eh     change       -0.7727760E-05 Eh
 * total energy  :  -111.4726157 Eh     change       -0.8582019E-05 Eh
 * total energy  :  -111.4726207 Eh     change       -0.5026015E-05 Eh
 * total energy  :  -111.4726224 Eh     change       -0.1720293E-05 Eh
 * total energy  :  -111.4726236 Eh     change       -0.1195877E-05 Eh
 * total energy  :  -111.4726247 Eh     change       -0.1113284E-05 Eh
 * total energy  :  -111.4726295 Eh     change       -0.1299136E-06 Eh
 * total energy  :  -111.4726296 Eh     change       -0.1655699E-06 Eh
 * total energy  :  -111.4726298 Eh     change       -0.1216908E-06 Eh
 * total energy  :  -111.4726300 Eh     change       -0.1938166E-06 Eh
 * total energy  :  -111.4726301 Eh     change       -0.1585640E-06 Eh
 * total energy  :  -111.4726301 Eh     change        0.2150040E-07 Eh
 * total energy  :  -111.4726303 Eh     change       -0.1781777E-06 Eh
 * total energy  :  -111.4726304 Eh     change       -0.1724979E-06 Eh
 * total energy  :  -111.4726305 Eh     change       -0.7313947E-07 Eh
   *** GEOMETRY OPTIMIZATION CONVERGED AFTER 33 ITERATIONS ***

 final structure:
================
72
 xtb: 6.7.1 (edcfbbe)
N            1.95703909241386        4.87045762283569       -0.90007522680285
C            1.07455230785837        4.25163135560878       -0.48285785394410
C            0.00079976887564        3.51806954671369        0.00267541264563
C           -1.07325592840113        4.25122631922311        0.48821841956064
N           -1.95634297168427        4.86899026183665        0.90577928978738
C            0.00070318541763        2.06712075253415        0.00259170610529
C            1.25024390551006        1.37458071924163        0.06258316293532
C            1.40745187149413        0.10576636377834       -0.53827121130174
C            2.61361591491028       -0.54367033433569       -0.53571477310704
C            3.73474459319740        0.03078916925793        0.07930344636468
N            4.96548491506660       -0.62241960671587        0.07091859386418
C            6.14739036088500        0.11808623494680       -0.03754027221961
C            7.29087495616511       -0.27314103438829        0.66077444150005
C            8.45508324559801        0.46126782638969        0.55121888233815
C            8.49785530903374        1.59379996284684       -0.24647626714549
C            7.36384769603975        1.98775489852576       -0.93918023082040
C            6.19576357064051        1.25812218658013       -0.84152038568367
C            5.01919205542557       -2.01526168966172        0.15722795231497
C            4.11138500806012       -2.70833211150462        0.96050925503030
C            4.16415694629361       -4.08568876680536        1.03905455886382
C            5.11948118713639       -4.79343481001884        0.32683663195984
C            6.02477537589500       -4.11029351628390       -0.46995746111517
C            5.97822474996245       -2.73340137521337       -0.55983226492235
C            3.59305586679132        1.28273413870715        0.69175249369334
C            2.38792377251581        1.93558961586320        0.68150198357156
C           -1.24931462637488        1.37519443373930       -0.05789925150198
C           -1.40809682836674        0.10731311583134        0.54434693048458
C           -2.61450856098995       -0.54173316740948        0.54030280438457
C           -3.73414709497072        0.03212055034528       -0.07795094605236
N           -4.96492587571096       -0.62103677631436       -0.07195034934420
C           -6.14725166961729        0.11972273716827        0.03084785095302
C           -6.19869778525171        1.26097704122350        0.83288162898441
C           -7.36707699697164        1.99090877865027        0.92471895576827
C           -8.49835682049335        1.59598886903187        0.22811546157741
C           -8.45255372907789        0.46218092287363       -0.56758922660743
C           -7.28798714767584       -0.27250746015903       -0.67136435899982
C           -5.01868622961341       -2.01405895953774       -0.15600368167814
C           -4.10865399289888       -2.70888560722758       -0.95522453294041
C           -4.16170746258952       -4.08636680953637       -1.03149481089292
C           -5.11957523777386       -4.79248845523828       -0.32108816673309
C           -6.02712472572256       -4.10759465585968        0.47162009915409
C           -5.98026217398310       -2.73056661101070        0.55927010056532
C           -3.59090305141804        1.28339113946283       -0.69141159395058
C           -2.38564460329311        1.93601308297637       -0.67933089403117
H            0.57085433061061       -0.33147699419629       -1.06296498575520
H            2.71739134710240       -1.49382978847639       -1.03985653919101
H            7.25394691727019       -1.14689257013008        1.29490301154635
H            9.33235030890654        0.15212726557300        1.09979019411650
H            9.40907331502213        2.16632820467084       -0.32670630968142
H            7.38966687772962        2.86635050849532       -1.56574688779718
H            5.31659899352680        1.56015088775925       -1.39084133828698
H            3.37699927569453       -2.15614918699369        1.52809056873236
H            3.45973906880366       -4.61002990007031        1.66753407236832
H            5.15853231870993       -5.86989419275771        0.39249529690446
H            6.76804595577237       -4.65500704307879       -1.03281619821468
H            6.67491592830293       -2.20362582242598       -1.19260311763788
H            4.44142388169698        1.72555737143167        1.19246763269247
H            2.30469298188996        2.88291411834488        1.19179594516059
H           -0.57261785743899       -0.32953101292301        1.07116079728616
H           -2.71959005976803       -1.49116777607191        1.04553542497208
H           -5.32168605015399        1.56372628953742        1.38523968433317
H           -7.39532373993120        2.87044130648367        1.54986327136620
H           -9.40979713037967        2.16878734597720        0.30374698308185
H           -9.32762387393050        0.15233809124580       -1.11926278367263
H           -7.24859888024382       -1.14724639785504       -1.30398323932872
H           -3.37232796501322       -2.15799039995836       -1.52153926016446
H           -3.45558469313834       -4.61207551757150       -1.65691010934951
H           -5.15885419290781       -5.86904421821875       -0.38499455781958
H           -6.77234465837597       -4.65102840739210        1.03313520739462
H           -6.67871690370326       -2.19938981542996        1.18891340391233
H           -4.43809350275265        1.72584997868732       -1.19442975111038
H           -2.30114692590660        2.88283262707267       -1.19036615736995

 projected vibrational frequencies (cm⁻¹)
eigval :       -0.00    -0.00    -0.00    -0.00     0.00     0.00
eigval :       11.30    12.18    13.67    21.76    31.17    35.56
eigval :       40.72    45.47    51.44    58.99    59.15    72.18
eigval :       73.36    76.78    82.77    91.09   106.76   115.52
eigval :      141.31   160.06   167.89   178.05   186.53   214.95
eigval :      215.49   233.67   235.60   242.98   264.32   301.71
eigval :      306.90   311.01   323.79   332.90   367.00   376.63
eigval :      377.19   377.57   378.72   382.33   389.86   390.99
eigval :      392.52   405.98   413.55   419.47   441.56   455.07
eigval :      478.40   489.14   493.15   501.72   513.20   517.07
eigval :      569.87   577.83   581.35   582.89   583.56   586.22
eigval :      591.17   592.82   598.31   608.63   613.36   635.48
eigval :      658.70   658.98   663.28   666.38   673.29   676.78
eigval :      702.05   725.16   756.99   757.02   759.83   760.71
eigval :      809.28   815.40   847.58   861.45   871.97   872.21
eigval :      874.43   874.68   885.72   890.58   894.59   894.61
eigval :      898.25   898.62   908.55   909.21   911.99   917.05
eigval :      919.59   927.53   927.56   928.31   928.42   928.74
eigval :      929.30   929.84   930.25   930.40   935.53   941.33
eigval :      982.79   985.05  1003.04  1003.11  1013.39  1018.28
eigval :     1081.35  1081.48  1082.34  1082.34  1121.86  1121.88
eigval :     1124.17  1124.19  1146.83  1150.55  1174.12  1179.66
eigval :     1179.68  1179.96  1180.00  1183.20  1192.26  1192.43
eigval :     1192.93  1193.00  1204.02  1216.64  1226.03  1253.11
eigval :     1270.91  1272.84  1276.29  1277.15  1279.35  1279.69
eigval :     1300.83  1306.81  1309.93  1316.33  1317.35  1319.14
eigval :     1326.56  1326.82  1327.16  1331.14  1332.49  1355.31
eigval :     1425.58  1430.32  1434.03  1437.56  1439.87  1441.35
eigval :     1451.52  1462.86  1463.33  1464.12  1464.14  1469.17
eigval :     1498.26  1501.29  1556.03  1569.81  1569.84  1574.14
eigval :     1574.23  1584.34  1584.40  1585.82  1590.78  1592.43
eigval :     2205.72  2291.34  3074.40  3075.53  3079.62  3079.64
eigval :     3080.72  3080.80  3081.74  3081.76  3083.64  3083.75
eigval :     3086.05  3086.08  3087.38  3089.29  3089.71  3089.84
eigval :     3090.56  3090.73  3093.43  3093.51  3095.88  3095.93
eigval :     3098.99  3099.25  3101.16  3101.52  3102.83  3103.27

   temp. (K)  partition function   enthalpy   heat capacity  entropy
                                   cal/mol     cal/K/mol   cal/K/mol   J/K/mol
 298.15  VIB  0.594E+18            21756.071    132.984    137.704
         ROT  0.394E+08              888.752      2.981     37.736
         INT  0.234E+26            22644.823    135.965    175.441
         TR   0.130E+29             1481.254      4.968     44.858
         TOT                       24126.0770   140.9333   220.2983   921.7280

       T/K    H(0)-H(T)+PV         H(T)/Eh          T*S/Eh         G(T)/Eh
   ------------------------------------------------------------------------
    298.15    0.384474E-01    0.586362E+00    0.104671E+00    0.481691E+00
   ------------------------------------------------------------------------

         :::::::::::::::::::::::::::::::::::::::::::::::::::::
         ::                  THERMODYNAMIC                  ::
         :::::::::::::::::::::::::::::::::::::::::::::::::::::
         :: total free energy        -110.990939177959 Eh   ::
         ::.................................................::
         :: total energy             -111.472630573186 Eh   ::
         :: zero point energy           0.547914870706 Eh   ::
         :: G(RRHO) w/o ZPVE           -0.066223475479 Eh   ::
         :: G(RRHO) contrib.            0.481691395227 Eh   ::
         :::::::::::::::::::::::::::::::::::::::::::::::::::::

           -------------------------------------------------
          | TOTAL ENERGY             -111.472630573186 Eh   |
          | TOTAL ENTHALPY           -110.886268351476 Eh   |
          | TOTAL FREE ENERGY        -110.990939177959 Eh   |
          | GRADIENT NORM               0.000113978115 Eh/α |
           -------------------------------------------------

 * finished run on 2025/09/14 at 08:04:45.050
