   * xtb version 6.7.1 (edcfbbe) compiled by 'albert@albert-system' on 2024-07-22

   ID    Z sym.   atoms
    1    6 C      1, 2, 4-8, 10-14, 16-21, 23-33, 35-40, 42-51, 53-59, 61, 62
    2    7 N      3, 9, 15, 34, 52, 60
    3    8 O      22, 41
    4    1 H      63-94

          program call               : xtb data2507/gas/mDPBPZ-DPXZ/mDPBPZ-DPXZ_gas_T1_crest.xyz --gfn 2 --spinpol --tblite --uhf 2 --ohess vtight --parallel 40 --molden --ceasefiles --namespace data2507/gas/mDPBPZ-DPXZ/mDPBPZ-DPXZ_gas_T1_finalOpt
 * total energy  :  -157.6739695 Eh     change       -0.1574594E-07 Eh
 * total energy  :  -157.6739951 Eh     change       -0.2560315E-04 Eh
 * total energy  :  -157.6740017 Eh     change       -0.6593103E-05 Eh
 * total energy  :  -157.6740036 Eh     change       -0.1916322E-05 Eh
 * total energy  :  -157.6740055 Eh     change       -0.1837017E-05 Eh
 * total energy  :  -157.6740068 Eh     change       -0.1331923E-05 Eh
 * total energy  :  -157.6740081 Eh     change       -0.1242352E-05 Eh
 * total energy  :  -157.6740089 Eh     change       -0.8002044E-06 Eh
 * total energy  :  -157.6740095 Eh     change       -0.6882682E-06 Eh
 * total energy  :  -157.6740103 Eh     change       -0.7976592E-06 Eh
 * total energy  :  -157.6740124 Eh     change       -0.4846542E-06 Eh
 * total energy  :  -157.6740127 Eh     change       -0.2502038E-06 Eh
 * total energy  :  -157.6740133 Eh     change       -0.6366688E-06 Eh
 * total energy  :  -157.6740139 Eh     change       -0.5832424E-06 Eh
 * total energy  :  -157.6740143 Eh     change       -0.4617465E-06 Eh
 * total energy  :  -157.6740147 Eh     change       -0.4093808E-06 Eh
 * total energy  :  -157.6740152 Eh     change       -0.4553065E-06 Eh
 * total energy  :  -157.6740156 Eh     change       -0.4413992E-06 Eh
 * total energy  :  -157.6740157 Eh     change       -0.1801766E-07 Eh
   *** GEOMETRY OPTIMIZATION CONVERGED AFTER 22 ITERATIONS ***

 final structure:
================
94
 xtb: 6.7.1 (edcfbbe)
C            9.57735167817486        1.93303029445779       -1.25705600905474
C            9.72329554430966        2.97737468573218       -0.35546469886107
N            8.80953953791218        3.27989448056114        0.55107155082873
C            7.71221855411728        2.55072344700477        0.60129417896195
C            7.45592917826944        1.46990812079105       -0.24453616235105
C            6.20797649055357        0.70459958266919       -0.13754450129038
C            5.00037057596315        1.39031407973903       -0.09319043802515
C            3.78014894441285        0.72389254005961       -0.04792487877929
N            2.61271073671791        1.36871387568507       -0.01452877159909
C            1.45917306466081        0.71309626345817        0.02028900285057
C            0.21781428591759        1.41774795487008        0.05942665510508
C            0.22672124833382        2.82308266280292        0.04076107216721
C           -0.93911822953077        3.53850881901279        0.04903030374792
C           -2.16424254265792        2.85646646120693        0.09750185416637
N           -3.37690122189014        3.58510507355440        0.08847965354706
C           -4.26894288792259        3.46477461921667       -0.97534125626312
C           -4.02158027991502        2.64011254850402       -2.06772311620892
C           -4.93584538043297        2.54244987049674       -3.10388110839036
C           -6.10778099975241        3.27320068503547       -3.07485049916330
C           -6.35771682724433        4.12194406346058       -2.00766182160050
C           -5.44877103829961        4.22458243959745       -0.97012713192131
O           -5.75129078973645        5.10449767537347        0.03630057900775
C           -4.86644807767819        5.20607107496576        1.07831776142509
C           -5.19167019985354        6.08136485851459        2.09847348707675
C           -4.35657748689870        6.21405235194118        3.19723982987298
C           -3.20609970734177        5.45311960390487        3.27611686547357
C           -2.87381911459969        4.57565638501710        2.25687899157906
C           -3.68408649449524        4.45318040504898        1.13332946021436
C           -2.19226955800869        1.47869673383472        0.13879749696603
C           -1.01425515046934        0.72157930509135        0.10649946344283
C           -1.01404762169306       -0.72010395910760        0.10197775206234
C           -2.19144823666411       -1.47816664973619        0.13622641637698
C           -2.16265779678462       -2.85563030922082        0.08616494870746
N           -3.37403339832164       -3.58632159640005        0.08631304310061
C           -4.28106013572069       -3.45961643843908       -0.96395892986110
C           -4.05082394078504       -2.62593137022691       -2.05322597314443
C           -4.97981863607182       -2.52219417815510       -3.07561885346448
C           -6.14958686711516       -3.25592273258437       -3.03594312688040
C           -6.38264002739288       -4.11359950550011       -1.97208771199581
C           -5.45906056322029       -4.22214826354807       -0.94818358194999
O           -5.74567307480014       -5.11053043658968        0.05548604450440
C           -4.84894121142203       -5.21411410832796        1.08703299728239
C           -5.16092645433699       -6.09367866208604        2.10767147230390
C           -4.31304330743764       -6.22897756464805        3.19626161621178
C           -3.16304034101451       -5.46633585502143        3.26466563776007
C           -2.84416037470419       -4.58441329114754        2.24502208669619
C           -3.66748962579416       -4.45913916442927        1.13129195645725
C           -0.93741172569162       -3.53638769410206        0.02363347722858
C            0.22793741119347       -2.82026584952488        0.01499483482373
C            0.21816694994495       -1.41518314684270        0.04617741751041
C            1.45915070525845       -0.70969174031601        0.01276247312969
N            2.61256664422367       -1.36498696707583       -0.02823007194079
C            3.77999254218297       -0.71998130926325       -0.05427040155816
C            5.00034962834946       -1.38671310835968       -0.08760498534567
C            6.20854519818265       -0.70134733948173       -0.11887205470920
C            7.46013420314525       -1.46755131654407       -0.09168586475237
C            8.49061236898150       -1.16780946606778        0.79906091711568
C            9.64307445276193       -1.93200821078827        0.77972848722193
C            9.72753023683506       -2.97892719380171       -0.12670708494667
N            8.75547401455324       -3.28185559293664       -0.97026396398897
C            7.65855233529113       -2.55076083923576       -0.95006239829502
C            8.42485886281113        1.17065103466118       -1.20202587441094
H           10.34335988331199        1.72553668617355       -1.98829821950219
H           10.60553011277542        3.60374222829922       -0.35775446388783
H            6.99968981038036        2.82716513390701        1.36853345859260
H            4.98999438356670        2.46925162362668       -0.11907827871186
H            1.18442403690862        3.31861868400837        0.00214631775845
H           -0.93209370648513        4.61735014353274        0.01143416733703
H           -3.10261411804136        2.07749548352268       -2.11217164428926
H           -4.72000366549867        1.89110384783051       -3.93659049511313
H           -6.82316268645819        3.19688756107955       -3.87813501276599
H           -7.25337507141477        4.72044142249991       -1.96228542190978
H           -6.10581376787237        6.64686297309844        2.01469014720989
H           -4.61539931977679        6.90148942363575        3.98675935049605
H           -2.55733220970680        5.53358902628464        4.13449115914087
H           -1.98071764439796        3.97609620305331        2.33525879133768
H           -3.15485777921740        0.99441813444826        0.18902869724161
H           -3.15387659309435       -0.99487749297603        0.19763483395781
H           -3.13372211960371       -2.06101101114181       -2.10620002405417
H           -4.77734871045481       -1.86359535117218       -3.90597077410626
H           -6.87636617024555       -3.17494426560928       -3.82846381543944
H           -7.27618424022031       -4.71460743302564       -1.91886910840399
H           -6.07499450752108       -6.66047115039288        2.03230462796840
H           -4.56160076522240       -6.91966703785091        3.98623753445688
H           -2.50419681568909       -5.54877111414932        4.11515023112738
H           -1.95125731828078       -3.98361471072389        2.31560763133776
H           -0.93001332532966       -4.61489372751402       -0.02249024459460
H            1.18577963544289       -3.31480248943517       -0.03199603539902
H            4.99114871294615       -2.46562770720187       -0.06001350816987
H            8.37942193466198       -0.35596350325577        1.50395879455422
H           10.45602506715859       -1.72404183625063        1.45825089362576
H           10.60685316764209       -3.60703609078735       -0.18089946896110
H            6.89667385084987       -2.82758651373678       -1.66816420018128
H            8.26592526443114        0.36051843866054       -1.89972794412756

 projected vibrational frequencies (cm⁻¹)
eigval :       -0.00    -0.00     0.00     0.00     0.00     0.00
eigval :        8.22     8.92    12.65    13.60    15.86    22.25
eigval :       31.92    37.86    39.99    42.48    44.22    57.05
eigval :       58.79    64.60    82.38    85.83    90.08    93.97
eigval :      107.02   109.24   116.06   125.50   130.27   144.62
eigval :      153.50   188.77   190.03   207.50   216.37   231.81
eigval :      236.11   240.23   242.76   247.60   249.50   264.40
eigval :      269.21   287.33   292.57   297.76   305.77   312.16
eigval :      343.48   350.35   370.49   373.94   378.74   378.84
eigval :      386.46   392.43   399.15   417.38   419.32   419.61
eigval :      429.47   429.56   434.44   439.12   443.61   448.61
eigval :      457.09   471.78   477.83   491.91   506.02   506.75
eigval :      506.98   515.19   518.85   525.51   526.08   534.11
eigval :      563.17   567.95   570.35   577.41   581.02   586.71
eigval :      596.78   597.54   602.46   618.92   620.66   621.96
eigval :      626.08   638.63   654.92   658.12   662.15   663.34
eigval :      664.34   664.75   670.30   683.28   685.10   693.30
eigval :      693.62   698.94   706.99   721.84   729.99   735.68
eigval :      766.03   776.32   778.05   778.16   778.38   786.81
eigval :      787.79   802.30   821.66   824.02   826.72   827.04
eigval :      829.35   855.28   855.81   856.08   858.42   862.79
eigval :      865.89   866.05   870.98   882.47   897.49   897.88
eigval :      898.18   898.96   900.18   902.46   903.08   911.72
eigval :      912.34   913.98   914.63   914.63   915.84   917.02
eigval :      917.63   920.63   920.73   930.23   931.21   939.43
eigval :      958.11   994.84  1000.49  1018.90  1041.27  1064.31
eigval :     1080.74  1088.36  1088.56  1089.18  1090.06  1095.24
eigval :     1096.28  1110.27  1110.59  1119.36  1124.38  1140.07
eigval :     1140.24  1143.96  1144.92  1167.31  1168.50  1173.83
eigval :     1174.80  1183.03  1185.58  1192.68  1196.82  1200.10
eigval :     1203.57  1204.21  1205.16  1210.46  1227.46  1230.34
eigval :     1240.03  1240.72  1241.53  1246.43  1249.89  1257.85
eigval :     1258.02  1260.85  1265.06  1265.62  1276.47  1281.16
eigval :     1282.77  1287.46  1293.83  1306.09  1309.61  1311.99
eigval :     1313.38  1321.84  1331.94  1333.47  1343.28  1344.36
eigval :     1349.70  1361.12  1364.14  1400.03  1400.62  1402.94
eigval :     1408.54  1414.23  1421.35  1422.97  1423.89  1442.51
eigval :     1443.87  1454.81  1455.94  1462.41  1471.34  1472.84
eigval :     1473.25  1483.62  1485.10  1492.50  1506.34  1515.74
eigval :     1530.88  1533.85  1558.78  1558.98  1563.96  1564.06
eigval :     1570.08  1571.00  1574.10  1574.20  1574.44  1580.58
eigval :     1583.21  1585.70  1595.58  1597.38  3050.49  3050.60
eigval :     3059.68  3060.05  3071.10  3071.43  3089.31  3089.69
eigval :     3090.93  3091.65  3092.04  3092.09  3092.13  3092.24
eigval :     3092.80  3092.93  3095.34  3101.09  3101.20  3101.30
eigval :     3101.61  3102.80  3103.15  3106.49  3107.79  3107.98
eigval :     3108.15  3109.13  3113.56  3113.80  3113.95  3114.57

   temp. (K)  partition function   enthalpy   heat capacity  entropy
                                   cal/mol     cal/K/mol   cal/K/mol   J/K/mol
 298.15  VIB  0.397E+23            27997.115    176.820    174.776
         ROT  0.223E+09              888.752      2.981     41.185
         INT  0.887E+31            28885.867    179.801    215.961
         TR   0.218E+29             1481.254      4.968     45.884
         TOT                       30367.1213   184.7687   261.8448  1095.5588

       T/K    H(0)-H(T)+PV         H(T)/Eh          T*S/Eh         G(T)/Eh
   ------------------------------------------------------------------------
    298.15    0.483931E-01    0.743681E+00    0.124411E+00    0.619270E+00
   ------------------------------------------------------------------------

         :::::::::::::::::::::::::::::::::::::::::::::::::::::
         ::                  THERMODYNAMIC                  ::
         :::::::::::::::::::::::::::::::::::::::::::::::::::::
         :: total free energy        -157.054745673602 Eh   ::
         ::.................................................::
         :: total energy             -157.674015662987 Eh   ::
         :: zero point energy           0.695287829331 Eh   ::
         :: G(RRHO) w/o ZPVE           -0.076017839947 Eh   ::
         :: G(RRHO) contrib.            0.619269989384 Eh   ::
         :::::::::::::::::::::::::::::::::::::::::::::::::::::

           -------------------------------------------------
          | TOTAL ENERGY             -157.674015662987 Eh   |
          | TOTAL ENTHALPY           -156.930334745564 Eh   |
          | TOTAL FREE ENERGY        -157.054745673602 Eh   |
          | GRADIENT NORM               0.000077554985 Eh/α |
           -------------------------------------------------

 * finished run on 2025/08/22 at 19:05:53.638
