   * xtb version 6.7.1 (edcfbbe) compiled by 'albert@albert-system' on 2024-07-22

   ID    Z sym.   atoms
    1    6 C      1, 2, 4-8, 10-14, 16-21, 23-33, 35-40, 42-51, 53-59, 61, 62
    2    7 N      3, 9, 15, 34, 52, 60
    3    8 O      22, 41
    4    1 H      63-94

          program call               : xtb data2507/gas/mDPBPZ-DPXZ/mDPBPZ-DPXZ.xyz --gfn 2 --ohess vtight --parallel 40 --molden --ceasefiles --namespace data2507/gas/mDPBPZ-DPXZ/mDPBPZ-DPXZ_gas_S0_preOpt
          :  Hamiltonian                  GFN2-xTB          :
 * total energy  :  -157.6766075 Eh     change       -0.2853369E-08 Eh
 * total energy  :  -157.6977270 Eh     change       -0.2111944E-01 Eh
 * total energy  :  -157.7043522 Eh     change       -0.6625241E-02 Eh
 * total energy  :  -157.7063585 Eh     change       -0.2006256E-02 Eh
 * total energy  :  -157.7078516 Eh     change       -0.1493141E-02 Eh
 * total energy  :  -157.7085336 Eh     change       -0.6819572E-03 Eh
 * total energy  :  -157.7089122 Eh     change       -0.3786394E-03 Eh
 * total energy  :  -157.7091641 Eh     change       -0.2518826E-03 Eh
 * total energy  :  -157.7093479 Eh     change       -0.1838125E-03 Eh
 * total energy  :  -157.7095938 Eh     change       -0.2458592E-03 Eh
 * total energy  :  -157.7129362 Eh     change       -0.9460481E-06 Eh
 * total energy  :  -157.7129372 Eh     change       -0.1030296E-05 Eh
 * total energy  :  -157.7129384 Eh     change       -0.1170992E-05 Eh
 * total energy  :  -157.7129395 Eh     change       -0.1093005E-05 Eh
 * total energy  :  -157.7129405 Eh     change       -0.9935572E-06 Eh
 * total energy  :  -157.7129413 Eh     change       -0.8572262E-06 Eh
 * total energy  :  -157.7129420 Eh     change       -0.7094897E-06 Eh
 * total energy  :  -157.7129426 Eh     change       -0.5916656E-06 Eh
 * total energy  :  -157.7129426 Eh     change       -0.2907512E-08 Eh
   *** GEOMETRY OPTIMIZATION CONVERGED AFTER 122 ITERATIONS ***

 final structure:
================
94
 xtb: 6.7.1 (edcfbbe)
C            9.55063549642374        1.89645753913482       -1.05808086253956
C            9.69512942476129        2.92629896911373       -0.13973196318930
N            8.76920481473398        3.23138559702872        0.75297744163767
C            7.65877311695967        2.52129903002018        0.77171075101527
C            7.40281355733810        1.45787683308453       -0.09514048129442
C            6.13778431259615        0.71264267062586       -0.02128185096023
C            4.94981985570259        1.39903333026382       -0.02302927715536
C            3.72018431771244        0.71319417232464       -0.00637152941398
N            2.56954105435945        1.40026981304247       -0.01429372899115
C            1.44150162952580        0.71438732548593       -0.00703179411432
C            0.18713531812516        1.42973727052481       -0.02064534475282
C            0.19542463040911        2.82832821935741       -0.04341815791938
C           -0.97643294301326        3.54226010190110       -0.06225211196945
C           -2.19612123410577        2.85898693173002       -0.07007683447220
N           -3.40789185308098        3.57764705203453       -0.08869490220612
C           -3.70224690188721        4.44187612562339       -1.14702889426818
C           -2.88450636857831        4.55040897306008       -2.26489782117286
C           -3.20704720361842        5.41524721522128       -3.29962846210036
C           -4.35716659137098        6.17564481437982       -3.24110688357354
C           -5.20233796903573        6.05267986789213       -2.14827602744606
C           -4.88626916205825        5.19038171176971       -1.11497396881638
O           -5.78826283055319        5.09765423147530       -0.08492668869114
C           -5.49106956179527        4.23697003222013        0.94180321762824
C           -6.40603107966096        4.15951266918280        1.97536424457878
C           -6.16317153978840        3.33876813778064        3.06661817704943
C           -4.99076124407932        2.61325615429364        3.12247719274908
C           -4.07063001415200        2.68596755453530        2.08763203514078
C           -4.31326735053571        3.47784658441529        0.97209500249590
C           -2.21536570076408        1.47395386123870       -0.05375712082710
C           -1.03522417050062        0.72816723097208       -0.01588973674228
C           -1.03524874906632       -0.72817095657631        0.01607717602106
C           -2.21542521012354       -1.47392066174328        0.05356771762539
C           -2.19622786289067       -2.85895332656801        0.06996373890025
N           -3.40803247994794       -3.57756927059210        0.08814281658471
C           -4.31295707759648       -3.47781274308967       -0.97303567600829
C           -4.06983138434035       -2.68600408329634       -2.08851654565781
C           -4.98952488995405       -2.61333089432907       -3.12375243540734
C           -6.16197259824533       -3.33881669989112       -3.06834766111942
C           -6.40531090835334       -4.15949162993143       -1.97714812584439
C           -5.49078883071241       -4.23690836516086       -0.94319555730123
O           -5.78843345991371       -5.09752332758364        0.08346260721565
C           -4.88688133980364       -5.19019974247861        1.11390193365131
C           -5.20340473465365       -6.05242245693382        2.14712777752091
C           -4.35869606132420       -6.17533510248626        3.24032206316135
C           -3.20858272445493       -5.41496238035270        3.29927866012310
C           -2.88558678486217       -4.55019870343413        2.26462800556492
C           -3.70285424797679       -4.44172046058354        1.14640829643612
C           -0.97655934844684       -3.54226463878204        0.06263589099275
C            0.19532641499537       -2.82836877345921        0.04413716963216
C            0.18708811906632       -1.42977978517850        0.02124217433349
C            1.44148121563627       -0.71447085071016        0.00784306693839
N            2.56950128705531       -1.40038542186800        0.01524489540848
C            3.72016619696545       -0.71334279319510        0.00743163588591
C            4.94978670425241       -1.39921041431849        0.02416607046833
C            6.13776819442029       -0.71284605330967        0.02248012123387
C            7.40279194019428       -1.45808014866984        0.09642091680698
C            8.38473266549855       -1.15239060736134        1.03715753340319
C            9.55057478140564       -1.89658069304861        1.05949104974655
C            9.69515408767319       -2.92642652554051        0.14116075259001
N            8.76929026211918       -3.23155221319742       -0.75159816143148
C            7.65882879445624       -2.52151230940519       -0.77039469493749
C            8.38481172187819        1.15223415011914       -1.03583082344677
H           10.32771385979931        1.68509809087020       -1.77601975784794
H           10.58703718246980        3.53806785623068       -0.11623525069782
H            6.93490827958442        2.79881086409725        1.52771652985319
H            4.93205010504367        2.47757146839460       -0.06376757356433
H            1.15232731375702        3.32551622044249       -0.03610490057648
H           -0.96981165953132        4.62182332251303       -0.06543165752937
H           -1.99107887725102        3.94959323487364       -2.33225422884663
H           -2.54966718460055        5.48360227844464       -4.15268001743773
H           -4.60997764682193        6.85373982085684       -4.04072296721573
H           -6.11912565096067        6.61610422861313       -2.08012566873949
H           -7.30136715914665        4.75663492645579        1.90902265054540
H           -6.88403509478556        3.28271584996098        3.86679157012490
H           -4.77634193701694        1.98552106126711        3.97370340902488
H           -3.14964391377185        2.12859718626240        2.15697809731123
H           -3.17674335737780        0.98598465244991       -0.07934624409653
H           -3.17679769736569       -0.98592219284885        0.07879674290633
H           -3.14880243476164       -2.12865967634877       -2.15750683414900
H           -4.77472045997804       -1.98567035032499       -3.97493686936632
H           -6.88248860349263       -3.28280897220654       -3.86883765382304
H           -7.30068881948099       -4.75658960746861       -1.91114959472317
H           -6.12017418486724       -6.61583461173593        2.07862583454136
H           -4.61186832754087       -6.85336063223391        4.03988308791874
H           -2.55157816252997       -5.48325698593209        4.15262464648591
H           -1.99218017127010       -3.94938927509030        2.33232482748567
H           -0.96997189739727       -4.62182772261224        0.06592788417096
H            1.15221622413744       -3.32558685760127        0.03717216711510
H            4.93199147567702       -2.47774848578316        0.06489245494838
H            8.22689303602210       -0.35381092973095        1.74828850056347
H           10.32760036566082       -1.68519279216697        1.77747906260892
H           10.58710210497164       -3.53813794451869        0.11769236491986
H            6.93503416522460       -2.79903427133789       -1.52646360334993
H            8.22705962458240        0.35362910943472       -1.74695301733779

          :  Hamiltonian                  GFN2-xTB          :
         :: gradient norm              0.000039984723 Eh/a0 ::
         :: HOMO-LUMO gap              0.951569297582 eV    ::
         :: SCC energy              -160.467826604728 Eh    ::
         :: -> dispersion             -0.139161486791 Eh    ::
         :: repulsion energy           2.754883992001 Eh    ::

    * Orbital Energies and Occupations

         #    Occupation            Energy/Eh            Energy/eV
      -------------------------------------------------------------
         1        2.0000           -0.7286326             -19.8271
       ...           ...                  ...                  ...
       133        2.0000           -0.4165963             -11.3362
       134        2.0000           -0.4141359             -11.2692
       135        2.0000           -0.4134926             -11.2517
       136        2.0000           -0.4080957             -11.1048
       137        2.0000           -0.4001009             -10.8873
       138        2.0000           -0.3986633             -10.8482
       139        2.0000           -0.3908285             -10.6350
       140        2.0000           -0.3905128             -10.6264
       141        2.0000           -0.3752720             -10.2117
       142        2.0000           -0.3744943             -10.1905
       143        2.0000           -0.3560150              -9.6877
       144        2.0000           -0.3444918              -9.3741
       145        2.0000           -0.3443008              -9.3689 (HOMO)
       146                         -0.3093313              -8.4173 (LUMO)
       147                         -0.2789953              -7.5918
       148                         -0.2661342              -7.2419
       149                         -0.2597043              -7.0669
       150                         -0.2563027              -6.9744
       151                         -0.2545493              -6.9266
       152                         -0.2456440              -6.6843
       153                         -0.2391991              -6.5089
       154                         -0.2391810              -6.5084
       155                         -0.2316448              -6.3034
       156                         -0.2306222              -6.2755
       ...                                ...                  ...
       280                          0.7075953              19.2546
      -------------------------------------------------------------
                  HL-Gap            0.0349695 Eh            0.9516 eV

     #   Z          covCN         q      C6AA      α(0)
     1   6 C        2.912    -0.038    28.950     8.823
     2   6 C        2.914     0.058    26.691     8.472
     3   7 N        1.835    -0.215    26.515     7.631
     4   6 C        2.918     0.055    26.758     8.483
     5   6 C        2.974     0.004    27.940     8.670
     6   6 C        2.975     0.007    27.864     8.659
     7   6 C        2.923    -0.047    29.162     8.856
     8   6 C        2.966     0.081    26.192     8.395
     9   7 N        1.849    -0.241    27.144     7.722
    10   6 C        2.963     0.084    26.137     8.386
    11   6 C        2.988    -0.004    28.126     8.700
    12   6 C        2.923    -0.027    28.687     8.783
    13   6 C        2.919    -0.040    29.006     8.832
    14   6 C        2.919     0.068    26.481     8.439
    15   7 N        2.752    -0.070    22.598     7.060
    16   6 C        2.922     0.042    27.051     8.529
    17   6 C        2.924    -0.059    29.478     8.904
    18   6 C        2.919    -0.039    28.958     8.824
    19   6 C        2.919    -0.040    28.987     8.829
    20   6 C        2.920    -0.056    29.391     8.890
    21   6 C        2.884     0.125    25.257     8.239
    22   8 O        1.709    -0.254    18.211     5.762
    23   6 C        2.884     0.125    25.257     8.239
    24   6 C        2.920    -0.056    29.389     8.890
    25   6 C        2.919    -0.040    28.987     8.829
    26   6 C        2.919    -0.039    28.960     8.825
    27   6 C        2.924    -0.060    29.498     8.907
    28   6 C        2.921     0.042    27.055     8.530
    29   6 C        2.925    -0.047    29.174     8.858
    30   6 C        2.976     0.007    27.850     8.657
    31   6 C        2.976     0.007    27.850     8.657
    32   6 C        2.925    -0.047    29.174     8.858
    33   6 C        2.919     0.068    26.481     8.439
    34   7 N        2.752    -0.070    22.598     7.060
    35   6 C        2.921     0.042    27.055     8.530
    36   6 C        2.924    -0.060    29.498     8.907
    37   6 C        2.919    -0.039    28.960     8.825
    38   6 C        2.919    -0.040    28.987     8.829
    39   6 C        2.920    -0.056    29.389     8.890
    40   6 C        2.884     0.125    25.257     8.239
    41   8 O        1.709    -0.254    18.211     5.762
    42   6 C        2.884     0.125    25.257     8.239
    43   6 C        2.920    -0.056    29.391     8.890
    44   6 C        2.919    -0.040    28.987     8.829
    45   6 C        2.919    -0.039    28.958     8.824
    46   6 C        2.924    -0.059    29.478     8.904
    47   6 C        2.922     0.042    27.051     8.529
    48   6 C        2.919    -0.040    29.006     8.832
    49   6 C        2.923    -0.027    28.687     8.783
    50   6 C        2.988    -0.004    28.126     8.700
    51   6 C        2.963     0.084    26.137     8.386
    52   7 N        1.849    -0.241    27.144     7.722
    53   6 C        2.966     0.081    26.192     8.395
    54   6 C        2.923    -0.047    29.162     8.856
    55   6 C        2.975     0.007    27.864     8.659
    56   6 C        2.974     0.004    27.940     8.670
    57   6 C        2.932    -0.014    28.352     8.732
    58   6 C        2.912    -0.038    28.950     8.823
    59   6 C        2.914     0.058    26.691     8.472
    60   7 N        1.835    -0.215    26.515     7.631
    61   6 C        2.918     0.055    26.758     8.483
    62   6 C        2.932    -0.014    28.352     8.732
    63   1 H        0.926     0.038     2.470     2.458
    64   1 H        0.925     0.042     2.423     2.434
    65   1 H        0.925     0.041     2.431     2.438
    66   1 H        0.926     0.054     2.270     2.356
    67   1 H        0.926     0.066     2.128     2.281
    68   1 H        0.926     0.046     2.371     2.408
    69   1 H        0.926     0.035     2.515     2.480
    70   1 H        0.926     0.036     2.496     2.471
    71   1 H        0.926     0.039     2.467     2.456
    72   1 H        0.926     0.051     2.309     2.376
    73   1 H        0.926     0.051     2.307     2.375
    74   1 H        0.926     0.039     2.466     2.456
    75   1 H        0.926     0.036     2.502     2.474
    76   1 H        0.926     0.034     2.524     2.484
    77   1 H        0.926     0.046     2.373     2.409
    78   1 H        0.926     0.046     2.373     2.409
    79   1 H        0.926     0.034     2.524     2.484
    80   1 H        0.926     0.036     2.502     2.474
    81   1 H        0.926     0.039     2.466     2.456
    82   1 H        0.926     0.051     2.307     2.375
    83   1 H        0.926     0.051     2.309     2.376
    84   1 H        0.926     0.039     2.467     2.456
    85   1 H        0.926     0.036     2.496     2.471
    86   1 H        0.926     0.035     2.515     2.480
    87   1 H        0.926     0.046     2.371     2.408
    88   1 H        0.926     0.066     2.128     2.281
    89   1 H        0.926     0.054     2.270     2.356
    90   1 H        0.926     0.033     2.541     2.493
    91   1 H        0.926     0.038     2.470     2.458
    92   1 H        0.925     0.042     2.423     2.434
    93   1 H        0.925     0.041     2.431     2.438
    94   1 H        0.926     0.033     2.541     2.493

molecular dipole:
                 x           y           z       tot (Debye)
 q only:        0.393       0.000       0.000
   full:        0.459       0.000       0.000       1.167

 projected vibrational frequencies (cm⁻¹)
eigval :       -0.00    -0.00    -0.00    -0.00     0.00     0.00
eigval :        8.30    11.63    13.63    13.94    16.29    22.17
eigval :       32.43    37.70    39.23    40.65    42.72    55.06
eigval :       59.89    60.60    82.69    83.57    92.00    96.34
eigval :      104.96   107.34   117.32   124.24   129.85   144.74
eigval :      156.83   189.76   196.21   210.50   211.35   232.35
eigval :      238.83   242.86   243.38   249.03   252.00   263.81
eigval :      268.81   285.52   289.52   297.83   302.28   323.31
eigval :      342.67   367.37   368.77   372.50   378.51   379.00
eigval :      388.60   391.59   399.76   418.65   419.66   423.01
eigval :      429.88   430.51   438.42   442.21   442.93   451.70
eigval :      458.55   460.53   477.76   493.00   501.15   509.90
eigval :      509.98   517.82   519.58   524.23   528.79   537.15
eigval :      566.78   568.91   574.80   581.00   581.34   591.50
eigval :      597.84   599.41   602.73   620.32   626.32   628.82
eigval :      647.38   648.70   658.79   659.83   661.59   661.66
eigval :      663.66   671.67   685.18   693.54   694.62   696.86
eigval :      701.40   711.54   733.24   741.14   748.45   765.97
eigval :      769.23   778.61   779.03   779.21   779.52   789.35
eigval :      789.57   804.21   824.26   833.70   835.92   853.80
eigval :      855.49   855.52   858.59   861.99   863.40   867.32
eigval :      867.57   875.88   878.43   886.47   897.72   898.05
eigval :      899.32   900.43   903.41   904.79   907.27   914.87
eigval :      914.89   915.72   915.87   916.03   916.26   917.56
eigval :      918.35   931.11   931.11   931.30   931.49   942.20
eigval :      976.91   993.68  1003.70  1020.55  1048.81  1064.37
eigval :     1074.61  1090.65  1090.70  1091.49  1092.12  1095.26
eigval :     1096.18  1108.79  1108.80  1120.10  1124.64  1140.59
eigval :     1141.26  1144.60  1146.49  1170.30  1170.31  1175.70
eigval :     1175.74  1185.61  1186.18  1192.47  1197.04  1199.68
eigval :     1202.05  1202.31  1206.87  1212.64  1225.69  1230.57
eigval :     1235.01  1243.88  1244.18  1256.02  1262.28  1262.35
eigval :     1264.09  1264.35  1269.13  1271.64  1277.54  1279.66
eigval :     1282.79  1286.48  1309.09  1310.72  1311.08  1315.16
eigval :     1322.10  1329.71  1337.92  1343.12  1350.00  1355.80
eigval :     1356.29  1380.19  1397.17  1401.34  1402.34  1418.34
eigval :     1422.54  1423.74  1426.34  1434.22  1443.14  1444.88
eigval :     1451.03  1457.06  1467.78  1470.79  1481.96  1487.20
eigval :     1488.30  1494.76  1503.68  1503.99  1521.98  1542.84
eigval :     1551.00  1559.38  1561.05  1567.51  1567.62  1572.14
eigval :     1572.78  1577.14  1580.50  1580.61  1586.09  1590.51
eigval :     1591.58  1594.62  1602.95  1603.08  3052.66  3052.70
eigval :     3063.17  3063.32  3072.59  3072.78  3088.96  3088.96
eigval :     3089.29  3089.31  3092.12  3092.20  3094.80  3095.09
eigval :     3095.93  3095.98  3098.76  3098.99  3099.04  3099.11
eigval :     3100.59  3105.33  3105.54  3106.05  3106.10  3111.41
eigval :     3112.82  3112.86  3113.31  3113.33  3113.81  3113.93

   temp. (K)  partition function   enthalpy   heat capacity  entropy
                                   cal/mol     cal/K/mol   cal/K/mol   J/K/mol
 298.15  VIB  0.274E+23            27866.506    175.649    173.736
         ROT  0.111E+09              888.752      2.981     39.802
         INT  0.306E+31            28755.259    178.630    213.538
         TR   0.218E+29             1481.254      4.968     45.884
         TOT                       30236.5125   183.5985   259.4223  1085.4228

       T/K    H(0)-H(T)+PV         H(T)/Eh          T*S/Eh         G(T)/Eh
   ------------------------------------------------------------------------
    298.15    0.481849E-01    0.745938E+00    0.123260E+00    0.622678E+00
   ------------------------------------------------------------------------

         :::::::::::::::::::::::::::::::::::::::::::::::::::::
         ::                  THERMODYNAMIC                  ::
         :::::::::::::::::::::::::::::::::::::::::::::::::::::
         :: total free energy        -157.090264282148 Eh   ::
         ::.................................................::
         :: total energy             -157.712942612727 Eh   ::
         :: zero point energy           0.697753275495 Eh   ::
         :: G(RRHO) w/o ZPVE           -0.075074944916 Eh   ::
         :: G(RRHO) contrib.            0.622678330579 Eh   ::
         :::::::::::::::::::::::::::::::::::::::::::::::::::::

           -------------------------------------------------
          | TOTAL ENERGY             -157.712942612727 Eh   |
          | TOTAL ENTHALPY           -156.967004387503 Eh   |
          | TOTAL FREE ENERGY        -157.090264282148 Eh   |
          | GRADIENT NORM               0.000039971957 Eh/α |
          | HOMO-LUMO GAP               0.951568517718 eV   |
           -------------------------------------------------

 * finished run on 2025/08/22 at 18:52:21.263
