   * xtb version 6.7.1 (edcfbbe) compiled by 'albert@albert-system' on 2024-07-22

   ID    Z sym.   atoms
    1    6 C      1, 2, 4-8, 10-14, 16-21, 23-33, 35-40, 42-51, 53-59, 61, 62
    2    7 N      3, 9, 15, 34, 52, 60
    3    8 O      22, 41
    4    1 H      63-94

          program call               : xtb data2507/gas/mDPBPZ-DPXZ/mDPBPZ-DPXZ_gas_S0_finalOpt.xtbopt.xyz --gfn 2 --spinpol --tblite --uhf 2 --ohess vtight --parallel 40 --molden --ceasefiles --namespace data2507/gas/mDPBPZ-DPXZ/mDPBPZ-DPXZ_gas_T1_preOpt
 * total energy  :  -157.6701392 Eh     change       -0.2700284E-07 Eh
 * total energy  :  -157.6727894 Eh     change       -0.2650139E-02 Eh
 * total energy  :  -157.6736490 Eh     change       -0.8596919E-03 Eh
 * total energy  :  -157.6737574 Eh     change       -0.1083345E-03 Eh
 * total energy  :  -157.6738085 Eh     change       -0.5108334E-04 Eh
 * total energy  :  -157.6738191 Eh     change       -0.1059173E-04 Eh
 * total energy  :  -157.6738339 Eh     change       -0.1489443E-04 Eh
 * total energy  :  -157.6738515 Eh     change       -0.1750577E-04 Eh
 * total energy  :  -157.6738634 Eh     change       -0.1198207E-04 Eh
 * total energy  :  -157.6738714 Eh     change       -0.8011701E-05 Eh
 * total energy  :  -157.6739901 Eh     change       -0.1325473E-05 Eh
 * total energy  :  -157.6739914 Eh     change       -0.1354903E-05 Eh
 * total energy  :  -157.6739932 Eh     change       -0.1825112E-05 Eh
 * total energy  :  -157.6739952 Eh     change       -0.1917384E-05 Eh
 * total energy  :  -157.6739970 Eh     change       -0.1825600E-05 Eh
 * total energy  :  -157.6739990 Eh     change       -0.2032882E-05 Eh
 * total energy  :  -157.6739990 Eh     change        0.1781899E-07 Eh
 * total energy  :  -157.6739990 Eh     change        0.1476636E-07 Eh
 * total energy  :  -157.6739990 Eh     change       -0.2570900E-07 Eh
   *** GEOMETRY OPTIMIZATION CONVERGED AFTER 46 ITERATIONS ***

 final structure:
================
94
 xtb: 6.7.1 (edcfbbe)
C            9.57003158779574        1.94052845153222       -1.29683356836202
C            9.71541678922082        2.99324350401834       -0.40494346235827
N            8.80404207612687        3.30004247669139        0.50253676754731
C            7.70955934166218        2.56739220699162        0.56302759042865
C            7.45379643592393        1.47875895726680       -0.27287340249852
C            6.20798882692066        0.71141826535588       -0.15587561043085
C            4.99926477234254        1.39525196359271       -0.11258569108896
C            3.78042413076851        0.72711437798767       -0.05820415645881
N            2.61209249395689        1.37010246425891       -0.02523387976606
C            1.45966213727230        0.71328663458470        0.02049103829945
C            0.21761037307912        1.41653695806909        0.06010095994268
C            0.22274331843469        2.82135840267496        0.01591220742005
C           -0.94467124579682        3.53424589954063        0.02297716216717
C           -2.16782402517034        2.85130311236000        0.10402510926757
N           -3.38208603045624        3.57610028447989        0.09791973590853
C           -4.30359887089784        3.40935554715073       -0.93481843212925
C           -4.08361708696410        2.54378919178633       -2.00127429786403
C           -5.02865601927127        2.39786207988204       -3.00354095842997
C           -6.20511253033905        3.12093743139840       -2.96755742846202
C           -6.42727143135374        4.01218084344549       -1.92942239538755
C           -5.48725022833308        4.16318895362223       -0.92594030614935
O           -5.76406892567706        5.08491539756194        0.04980355481487
C           -4.85166196934267        5.23119634380451        1.06215046098793
C           -5.15268658472976        6.14716477633327        2.05369768238620
C           -4.29037303015886        6.32561468780070        3.12447485708127
C           -3.13768626852130        5.56828456372353        3.20564926876186
C           -2.82956238438340        4.65056922939256        2.21468810317858
C           -3.66616947203184        4.48325441564458        1.11642281497090
C           -2.19122470330034        1.47431928772549        0.17244348626357
C           -1.01240989726475        0.71910535350354        0.13150211218412
C           -1.01030652009153       -0.72254612287617        0.13262977586357
C           -2.18693357904556       -1.48115550471466        0.17384225640969
C           -2.15933428953847       -2.85819521627646        0.10808795931686
N           -3.37136896616001       -3.58680964302826        0.10313737093812
C           -4.29338304957573       -3.42504822835476       -0.92993894087923
C           -4.07599323483891       -2.56126214845987       -1.99835528521040
C           -5.02099721573540       -2.42122576479987       -3.00150289231918
C           -6.19469849296693       -3.14873240247946       -2.96457347317544
C           -6.41445632523286       -4.03778867352166       -1.92406806315261
C           -5.47472230688460       -4.18249533615217       -0.91940273299217
O           -5.74956834216005       -5.10160601557705        0.05937676950707
C           -4.83766606613878       -5.24142994336706        1.07307044011289
C           -5.13776123970206       -6.15334220005202        2.06863291905920
C           -4.27538086581294       -6.32609968804408        3.14027995366112
C           -3.12338949519549       -5.56737897782959        3.21804528441868
C           -2.81652877743315       -4.65320969880279        2.22340981021103
C           -3.65354025085160       -4.49113359543239        1.12465919315891
C           -0.93413838068799       -3.53766868188174        0.02937804002182
C            0.23117274109683       -2.82134359192554        0.02190336938734
C            0.22181836447090       -1.41647870459015        0.06343360645946
C            1.46177332004482       -0.70964856604790        0.02291033195975
N            2.61622630627660       -1.36321084757592       -0.01921934496536
C            3.78263000860460       -0.71686637852816       -0.05400465222453
C            5.00412773619301       -1.38157912965679       -0.08672266091899
C            6.21106038114339       -0.69429387802666       -0.12689573143541
C            7.46439166822675       -1.45760628409622       -0.09771656920238
C            8.49621791551864       -1.14918787177137        0.78850141508377
C            9.65071396985637       -1.91036486426970        0.77148179936122
C            9.73587415008673       -2.96295938453067       -0.12827137882684
N            8.76259031465368       -3.27410717192255       -0.96742291572445
C            7.66366841679746       -2.54596111809755       -0.94936000485390
C            8.42046756202099        1.17456228394519       -1.23111118474948
H           10.33414032308612        1.72946511210668       -2.02903625708256
H           10.59517541805707        3.62299348824364       -0.41613646226780
H            6.99896297492127        2.84778481312064        1.33062935840383
H            4.98686805201121        2.47394631913084       -0.14620853250207
H            1.17857461860171        3.31840622198026       -0.04392036109433
H           -0.94010673292696        4.61193823606692       -0.03971066342783
H           -3.16185599307428        1.98652595089345       -2.05326824781896
H           -4.83330707949210        1.71460267624267       -3.81544851815624
H           -6.94494227354490        3.00633793264368       -3.74366852292029
H           -7.32492586275573        4.60742824635616       -1.88084754273572
H           -6.06998632266036        6.70755990041989        1.97007213542008
H           -4.53007596296703        7.04490724580600        3.89131671121938
H           -2.46811905076645        5.68312304006337        4.04389967210051
H           -1.93449352866339        4.05446952763380        2.29632501119803
H           -3.15130496852346        0.98869358453025        0.24975284725945
H           -3.14851699815760       -0.99822526979297        0.24926584523423
H           -3.15623670082110       -2.00077041571217       -2.05123186219049
H           -4.82775437416067       -1.73916171582040       -3.81491077380618
H           -6.93425674203661       -3.03913208568895       -3.74166739817370
H           -7.31001483593498       -4.63611164902436       -1.87444595817398
H           -6.05438708815046       -6.71517701403755        1.98732598447542
H           -4.51441755967345       -7.04217300739375        3.91034536827396
H           -2.45341699733370       -5.67819683732569        4.05651599589219
H           -1.92211854362018       -4.05580237068707        2.30264690729069
H           -0.92633811499865       -4.61546236537021       -0.03115072747247
H            1.18854116689447       -3.31565831955094       -0.03599328703921
H            4.99715408951327       -2.46028093990827       -0.05124173584334
H            8.38452272260201       -0.33290056353254        1.48817297681475
H           10.46471493825372       -1.69570521671856        1.44665887297554
H           10.61683229075872       -3.58895085087371       -0.18053256570906
H            6.90084574543427       -2.82967992264522       -1.66375370873412
H            8.26199515164998        0.35794074928650       -1.92129834502224

 projected vibrational frequencies (cm⁻¹)
eigval :       -0.00    -0.00    -0.00    -0.00     0.00     0.00
eigval :        8.92    10.38    12.97    14.29    16.72    22.70
eigval :       32.97    38.13    40.20    42.99    44.45    57.63
eigval :       59.01    64.99    82.69    86.25    90.06    94.58
eigval :      107.06   109.59   116.54   126.86   132.28   145.45
eigval :      153.77   189.22   190.54   207.68   216.92   232.13
eigval :      236.12   240.94   243.75   247.96   250.05   264.24
eigval :      269.68   288.01   292.53   298.34   306.04   312.67
eigval :      343.49   350.72   370.39   374.12   378.74   379.04
eigval :      387.17   392.08   398.44   417.53   419.51   419.73
eigval :      430.09   430.18   434.72   439.51   444.49   448.75
eigval :      457.02   472.18   477.94   491.98   506.02   506.85
eigval :      507.18   515.50   519.11   525.92   526.57   534.23
eigval :      563.13   567.92   570.62   577.46   580.99   587.69
eigval :      596.87   597.72   602.49   618.63   620.54   621.98
eigval :      626.01   638.52   654.76   658.02   662.22   663.45
eigval :      664.44   664.85   669.95   683.12   684.95   693.56
eigval :      693.72   698.84   705.21   721.70   730.01   735.68
eigval :      765.78   776.57   778.81   778.95   779.23   787.21
eigval :      788.15   801.98   821.94   824.37   827.88   828.22
eigval :      830.00   855.71   856.01   856.29   859.12   863.46
eigval :      867.11   867.28   873.04   884.79   897.57   898.55
eigval :      899.02   899.73   901.47   903.00   903.59   912.17
eigval :      912.83   914.31   915.26   915.27   916.79   916.87
eigval :      917.66   922.19   922.32   930.77   931.75   939.38
eigval :      957.86   994.83  1000.31  1018.79  1041.39  1065.16
eigval :     1081.19  1089.01  1089.15  1090.17  1090.81  1095.34
eigval :     1096.59  1110.24  1110.58  1119.32  1124.64  1140.58
eigval :     1140.73  1145.30  1145.60  1168.83  1169.54  1174.55
eigval :     1175.82  1183.52  1186.76  1193.18  1197.21  1200.72
eigval :     1203.90  1204.66  1206.33  1211.95  1228.77  1230.76
eigval :     1239.06  1241.32  1242.32  1246.64  1249.85  1256.70
eigval :     1259.02  1261.27  1265.52  1266.15  1275.96  1280.57
eigval :     1281.95  1287.03  1294.02  1307.32  1309.91  1311.69
eigval :     1313.15  1321.31  1331.75  1333.25  1343.47  1345.69
eigval :     1349.59  1361.46  1365.04  1400.48  1400.72  1403.07
eigval :     1408.31  1414.12  1420.99  1422.64  1422.90  1442.43
eigval :     1443.84  1454.69  1455.75  1461.56  1471.47  1472.81
eigval :     1473.46  1484.20  1485.61  1492.61  1506.30  1515.15
eigval :     1530.46  1533.73  1558.75  1558.98  1564.03  1564.18
eigval :     1570.01  1570.64  1574.17  1574.28  1574.47  1580.64
eigval :     1583.87  1585.72  1595.66  1596.74  3050.42  3050.56
eigval :     3059.71  3059.82  3071.47  3071.85  3089.27  3089.34
eigval :     3091.27  3091.99  3092.09  3092.11  3092.32  3092.34
eigval :     3092.38  3092.52  3095.71  3101.53  3101.62  3101.65
eigval :     3101.91  3102.93  3103.09  3106.74  3108.54  3108.79
eigval :     3108.88  3109.56  3114.36  3114.41  3114.62  3114.91

   temp. (K)  partition function   enthalpy   heat capacity  entropy
                                   cal/mol     cal/K/mol   cal/K/mol   J/K/mol
 298.15  VIB  0.239E+23            27964.500    176.811    174.200
         ROT  0.223E+09              888.752      2.981     41.182
         INT  0.533E+31            28853.253    179.792    215.382
         TR   0.218E+29             1481.254      4.968     45.884
         TOT                       30334.5064   184.7601   261.2658  1093.1361

       T/K    H(0)-H(T)+PV         H(T)/Eh          T*S/Eh         G(T)/Eh
   ------------------------------------------------------------------------
    298.15    0.483411E-01    0.743816E+00    0.124136E+00    0.619680E+00
   ------------------------------------------------------------------------

         :::::::::::::::::::::::::::::::::::::::::::::::::::::
         ::                  THERMODYNAMIC                  ::
         :::::::::::::::::::::::::::::::::::::::::::::::::::::
         :: total free energy        -157.054318883380 Eh   ::
         ::.................................................::
         :: total energy             -157.673998985165 Eh   ::
         :: zero point energy           0.695474803395 Eh   ::
         :: G(RRHO) w/o ZPVE           -0.075794701611 Eh   ::
         :: G(RRHO) contrib.            0.619680101785 Eh   ::
         :::::::::::::::::::::::::::::::::::::::::::::::::::::

           -------------------------------------------------
          | TOTAL ENERGY             -157.673998985165 Eh   |
          | TOTAL ENTHALPY           -156.930183068700 Eh   |
          | TOTAL FREE ENERGY        -157.054318883380 Eh   |
          | GRADIENT NORM               0.000141958360 Eh/α |
           -------------------------------------------------

 * finished run on 2025/08/22 at 18:57:22.596
