   * xtb version 6.7.1 (edcfbbe) compiled by 'albert@albert-system' on 2024-07-22

   ID    Z sym.   atoms
    1    6 C      1, 2, 4-8, 10-14, 16-21, 23-33, 35-40, 42-51, 53-59, 61, 62
    2    7 N      3, 9, 15, 34, 52, 60
    3    8 O      22, 41
    4    1 H      63-94

          program call               : xtb data2507/gas/mDPBPZ-DPXZ/mDPBPZ-DPXZ_gas_S0_crest.xyz --gfn 2 --ohess vtight --parallel 40 --molden --ceasefiles --namespace data2507/gas/mDPBPZ-DPXZ/mDPBPZ-DPXZ_gas_S0_finalOpt
          :  Hamiltonian                  GFN2-xTB          :
 * total energy  :  -157.7136538 Eh     change       -0.1322292E-08 Eh
 * total energy  :  -157.7136553 Eh     change       -0.1533654E-05 Eh
 * total energy  :  -157.7136554 Eh     change       -0.6194392E-07 Eh
 * total energy  :  -157.7136580 Eh     change       -0.2556539E-05 Eh
 * total energy  :  -157.7136635 Eh     change       -0.5533626E-05 Eh
 * total energy  :  -157.7136675 Eh     change       -0.4054980E-05 Eh
 * total energy  :  -157.7136706 Eh     change       -0.3048055E-05 Eh
 * total energy  :  -157.7136729 Eh     change       -0.2342491E-05 Eh
 * total energy  :  -157.7136751 Eh     change       -0.2124239E-05 Eh
 * total energy  :  -157.7136777 Eh     change       -0.2636034E-05 Eh
 * total energy  :  -157.7137215 Eh     change       -0.6011581E-06 Eh
 * total energy  :  -157.7137219 Eh     change       -0.4741523E-06 Eh
 * total energy  :  -157.7137224 Eh     change       -0.4724762E-06 Eh
 * total energy  :  -157.7137229 Eh     change       -0.5252966E-06 Eh
 * total energy  :  -157.7137234 Eh     change       -0.5026435E-06 Eh
 * total energy  :  -157.7137239 Eh     change       -0.4320721E-06 Eh
 * total energy  :  -157.7137243 Eh     change       -0.3904892E-06 Eh
 * total energy  :  -157.7137245 Eh     change       -0.2981238E-06 Eh
 * total energy  :  -157.7137246 Eh     change       -0.7175316E-08 Eh
   *** GEOMETRY OPTIMIZATION CONVERGED AFTER 44 ITERATIONS ***

 final structure:
================
94
 xtb: 6.7.1 (edcfbbe)
C            9.57178264187107        1.92598314425418       -1.25998401697669
C            9.74345448285719        2.94251465005899       -0.33154870192941
N            8.84468596505605        3.23395814636446        0.59291406474117
C            7.73555960433982        2.52274392836842        0.63472815777971
C            7.45412500902771        1.47166756482910       -0.23919174919080
C            6.19251949481759        0.72377490215622       -0.13825108627065
C            5.00413563765635        1.40825147767058       -0.09535225850903
C            3.77634432456625        0.72031797223795       -0.05352516824805
N            2.62498264217635        1.40571350379612       -0.01613049558510
C            1.49846593814638        0.71808608609289        0.01311410071101
C            0.24345543962407        1.43147665050315        0.04872597952234
C            0.24190002840115        2.82953167581937       -0.00131469538826
C           -0.93408654836905        3.53758557266656        0.00368619122022
C           -2.14944451371939        2.85031713993124        0.08378965303347
N           -3.36804665879313        3.55454362862235        0.07341820437749
C           -4.32566245359915        3.30868970187166       -0.91709662867180
C           -4.11633668990875        2.40773425821091       -1.95452970778171
C           -5.09272230257640        2.18479192649362       -2.91312143620264
C           -6.29038480850426        2.86805751581362       -2.86276292129458
C           -6.49960794981247        3.80137070836391       -1.85891777583279
C           -5.52806306684404        4.02877827360939       -0.90156485711124
O           -5.79697543617188        4.99680635588066        0.03267564973176
C           -4.85416138908406        5.21823170015186        1.00461987092324
C           -5.15328593334389        6.17206987985910        1.95975653610491
C           -4.26875310358150        6.42563483352116        2.99722804187202
C           -3.09742119099895        5.70092960537631        3.08309395133722
C           -2.79194460855127        4.74513379933709        2.12630690400695
C           -3.64764821257590        4.50790887858086        1.05764566586859
C           -2.15687070941674        1.46677514373644        0.15625102669498
C           -0.97435589236458        0.72634876816609        0.12008301287050
C           -0.97165483472771       -0.72958925043912        0.11846783407284
C           -2.15088275248701       -1.47486496919130        0.16180961308121
C           -2.13830920359997       -2.85812026525168        0.08497143888591
N           -3.35355280878103       -3.56810850240492        0.08641511068796
C           -4.32506602687604       -3.32268160789110       -0.89051029444636
C           -4.13258373239855       -2.41787715418827       -1.92785839394500
C           -5.12224024169486       -2.19571074193931       -2.87291748351497
C           -6.31649194544929       -2.88382175175802       -2.80907946523383
C           -6.50922130581929       -3.82079115847280       -1.80532473392153
C           -5.52455278077020       -4.04716405718659       -0.86124576987867
O           -5.77790038332912       -5.01841660079300        0.07405365058916
C           -4.82245049627364       -5.23779698651544        1.03402655933512
C           -5.10653564982694       -6.19372335580293        1.99168217730409
C           -4.20835770990722       -6.44561005336922        3.01777826797244
C           -3.03846007528400       -5.71712607123931        3.08997417667929
C           -2.74810762814462       -4.75913973696604        2.13068781206719
C           -3.61778199377475       -4.52345468282235        1.07300986680123
C           -0.92099587184633       -3.54010101987593       -0.00941774910149
C            0.25214554656781       -2.82746988923177       -0.01926204568283
C            0.24844292104040       -1.42973008599717        0.03847334158656
C            1.50076723147654       -0.71162328029752        0.00578956914315
N            2.62937323458744       -1.39541160791342       -0.03061328130156
C            3.77856016681383       -0.70615031202084       -0.06126530121934
C            5.00887846374840       -1.39024842043346       -0.08922383229786
C            6.19557768227510       -0.70204897261006       -0.11485031520759
C            7.46339585482527       -1.44573805572733       -0.08744349483649
C            8.47121802026864       -1.15085489205140        0.82908263687422
C            9.63904261540398       -1.89193370930356        0.80724656263975
C            9.75972873987962       -2.90801331346610       -0.12966665868200
N            8.80914078807833       -3.20329942675113       -0.99946832772362
C            7.69681711070531       -2.49625795472784       -0.97607147569120
C            8.40749361845898        1.18051259368828       -1.21334740078250
H           10.32696948846947        1.72566585098886       -2.00399087601766
H           10.63552302299079        3.55449072507699       -0.32596245741138
H            7.03462073251965        2.78871696457877        1.41605989852425
H            4.98405288463110        2.48724554153580       -0.11999844165594
H            1.19443111582368        3.33127828732777       -0.06403749129647
H           -0.93300731375748        4.61495108006806       -0.06498679190497
H           -3.17764219460353        1.88134945698897       -2.02519304341942
H           -4.90211242077726        1.47339348797701       -3.70167048065440
H           -7.05606787533542        2.69347815069102       -3.60181023310998
H           -7.41238344764772        4.37261100227870       -1.80323666373365
H           -6.08862857511740        6.70184350470639        1.87567983113867
H           -4.50792543687039        7.17499493632747        3.73500483720157
H           -2.40976633423246        5.86841656881590        3.89767025331198
H           -1.88193391426112        4.17345197229636        2.21847104580760
H           -3.11319560468038        0.97532172214189        0.23721218507282
H           -3.10830571305759       -0.98761965245378        0.25433203781146
H           -3.19683740438578       -1.88776206264024       -2.00906455385436
H           -4.94491317042430       -1.48085326724337       -3.66141121400651
H           -7.09229529579095       -2.71008639980071       -3.53768973685830
H           -7.41907319698134       -4.39560229017494       -1.73946401428906
H           -6.04109726730270       -6.72649287988409        1.91864551134213
H           -4.43585699835966       -7.19663083526634        3.75755622292483
H           -2.34011670754388       -5.88327103639616        3.89569578913271
H           -1.83888838619223       -4.18461842183621        2.21236328934234
H           -0.91638664443442       -4.61710700558340       -0.08332356821500
H            1.20626908883039       -3.32505427804716       -0.09032084322764
H            4.99343377319171       -2.46929762910368       -0.06380153896879
H            8.33201968806910       -0.36284229330889        1.55572892036820
H           10.43591047188525       -1.68855209021711        1.50554668532435
H           10.65232249415080       -3.51648016524799       -0.18781060733407
H            6.95207715277865       -2.76534243499955       -1.71464972123016
H            8.22874696806525        0.39204122331044       -1.93079141267174

          :  Hamiltonian                  GFN2-xTB          :
         :: gradient norm              0.000055601290 Eh/a0 ::
         :: HOMO-LUMO gap              0.982380504229 eV    ::
         :: SCC energy              -160.468771490744 Eh    ::
         :: -> dispersion             -0.140745573336 Eh    ::
         :: repulsion energy           2.755046934328 Eh    ::

    * Orbital Energies and Occupations

         #    Occupation            Energy/Eh            Energy/eV
      -------------------------------------------------------------
         1        2.0000           -0.7292511             -19.8439
       ...           ...                  ...                  ...
       133        2.0000           -0.4161406             -11.3238
       134        2.0000           -0.4142859             -11.2733
       135        2.0000           -0.4139344             -11.2637
       136        2.0000           -0.4071178             -11.0782
       137        2.0000           -0.3997247             -10.8771
       138        2.0000           -0.3979561             -10.8289
       139        2.0000           -0.3910922             -10.6422
       140        2.0000           -0.3905803             -10.6282
       141        2.0000           -0.3748254             -10.1995
       142        2.0000           -0.3740496             -10.1784
       143        2.0000           -0.3551558              -9.6643
       144        2.0000           -0.3453569              -9.3976
       145        2.0000           -0.3444903              -9.3741 (HOMO)
       146                         -0.3083885              -8.3917 (LUMO)
       147                         -0.2782213              -7.5708
       148                         -0.2653190              -7.2197
       149                         -0.2591476              -7.0518
       150                         -0.2558195              -6.9612
       151                         -0.2540323              -6.9126
       152                         -0.2451105              -6.6698
       153                         -0.2397476              -6.5239
       154                         -0.2397053              -6.5227
       155                         -0.2315560              -6.3010
       156                         -0.2310612              -6.2875
       ...                                ...                  ...
       280                          0.7085254              19.2800
      -------------------------------------------------------------
                  HL-Gap            0.0361018 Eh            0.9824 eV

     #   Z          covCN         q      C6AA      α(0)
     1   6 C        2.912    -0.038    28.951     8.823
     2   6 C        2.914     0.058    26.692     8.472
     3   7 N        1.835    -0.215    26.519     7.631
     4   6 C        2.918     0.055    26.759     8.483
     5   6 C        2.974     0.004    27.939     8.670
     6   6 C        2.975     0.007    27.869     8.659
     7   6 C        2.923    -0.047    29.164     8.856
     8   6 C        2.966     0.081    26.196     8.395
     9   7 N        1.848    -0.241    27.156     7.723
    10   6 C        2.962     0.083    26.137     8.386
    11   6 C        2.988    -0.005    28.136     8.701
    12   6 C        2.923    -0.028    28.690     8.784
    13   6 C        2.918    -0.041    29.025     8.835
    14   6 C        2.919     0.067    26.495     8.441
    15   7 N        2.751    -0.069    22.571     7.056
    16   6 C        2.921     0.042    27.063     8.531
    17   6 C        2.924    -0.060    29.489     8.905
    18   6 C        2.919    -0.038    28.947     8.823
    19   6 C        2.919    -0.039    28.981     8.828
    20   6 C        2.920    -0.056    29.388     8.890
    21   6 C        2.885     0.125    25.253     8.238
    22   8 O        1.709    -0.254    18.205     5.761
    23   6 C        2.885     0.125    25.257     8.239
    24   6 C        2.920    -0.056    29.389     8.890
    25   6 C        2.919    -0.039    28.981     8.828
    26   6 C        2.919    -0.038    28.956     8.824
    27   6 C        2.924    -0.059    29.476     8.903
    28   6 C        2.922     0.042    27.054     8.530
    29   6 C        2.926    -0.048    29.198     8.861
    30   6 C        2.977     0.007    27.857     8.658
    31   6 C        2.977     0.007    27.857     8.658
    32   6 C        2.926    -0.048    29.198     8.861
    33   6 C        2.919     0.067    26.494     8.441
    34   7 N        2.751    -0.069    22.570     7.056
    35   6 C        2.921     0.042    27.063     8.531
    36   6 C        2.924    -0.060    29.489     8.905
    37   6 C        2.919    -0.038    28.947     8.823
    38   6 C        2.919    -0.039    28.981     8.828
    39   6 C        2.920    -0.056    29.388     8.890
    40   6 C        2.885     0.125    25.253     8.239
    41   8 O        1.709    -0.254    18.204     5.761
    42   6 C        2.885     0.125    25.256     8.239
    43   6 C        2.920    -0.056    29.389     8.890
    44   6 C        2.919    -0.039    28.982     8.828
    45   6 C        2.919    -0.038    28.956     8.824
    46   6 C        2.924    -0.059    29.476     8.903
    47   6 C        2.922     0.042    27.054     8.530
    48   6 C        2.918    -0.041    29.025     8.835
    49   6 C        2.923    -0.028    28.690     8.784
    50   6 C        2.988    -0.005    28.136     8.701
    51   6 C        2.962     0.083    26.137     8.386
    52   7 N        1.849    -0.241    27.156     7.723
    53   6 C        2.966     0.081    26.196     8.395
    54   6 C        2.923    -0.047    29.164     8.856
    55   6 C        2.975     0.007    27.869     8.659
    56   6 C        2.974     0.004    27.939     8.670
    57   6 C        2.932    -0.014    28.352     8.732
    58   6 C        2.912    -0.038    28.951     8.823
    59   6 C        2.914     0.058    26.692     8.472
    60   7 N        1.835    -0.215    26.519     7.631
    61   6 C        2.918     0.055    26.759     8.483
    62   6 C        2.932    -0.014    28.352     8.732
    63   1 H        0.926     0.038     2.472     2.459
    64   1 H        0.925     0.042     2.426     2.435
    65   1 H        0.925     0.041     2.432     2.438
    66   1 H        0.926     0.054     2.273     2.358
    67   1 H        0.926     0.066     2.135     2.285
    68   1 H        0.926     0.046     2.371     2.408
    69   1 H        0.926     0.035     2.512     2.479
    70   1 H        0.926     0.035     2.510     2.478
    71   1 H        0.926     0.039     2.462     2.454
    72   1 H        0.926     0.051     2.304     2.374
    73   1 H        0.926     0.051     2.307     2.375
    74   1 H        0.926     0.039     2.463     2.454
    75   1 H        0.926     0.037     2.489     2.467
    76   1 H        0.926     0.037     2.496     2.470
    77   1 H        0.926     0.045     2.378     2.411
    78   1 H        0.926     0.045     2.378     2.412
    79   1 H        0.926     0.035     2.511     2.478
    80   1 H        0.926     0.036     2.508     2.477
    81   1 H        0.926     0.039     2.462     2.454
    82   1 H        0.926     0.051     2.304     2.374
    83   1 H        0.926     0.051     2.307     2.375
    84   1 H        0.926     0.039     2.464     2.455
    85   1 H        0.926     0.037     2.491     2.468
    86   1 H        0.926     0.036     2.496     2.471
    87   1 H        0.926     0.046     2.371     2.408
    88   1 H        0.926     0.066     2.135     2.285
    89   1 H        0.926     0.054     2.273     2.358
    90   1 H        0.926     0.033     2.542     2.493
    91   1 H        0.926     0.038     2.472     2.459
    92   1 H        0.925     0.042     2.426     2.436
    93   1 H        0.925     0.041     2.432     2.439
    94   1 H        0.926     0.033     2.542     2.493

molecular dipole:
                 x           y           z       tot (Debye)
 q only:        0.278       0.002       0.029
   full:        0.333       0.003       0.025       0.849

 projected vibrational frequencies (cm⁻¹)
eigval :       -0.00    -0.00    -0.00     0.00     0.00     0.00
eigval :        7.69    12.34    14.04    14.77    16.17    21.74
eigval :       33.89    37.95    38.97    42.02    43.64    56.10
eigval :       60.20    60.91    83.15    83.80    91.08    96.57
eigval :      105.59   106.83   118.28   124.47   138.60   147.54
eigval :      155.42   191.55   198.11   209.67   218.08   232.71
eigval :      235.97   243.44   245.86   248.93   252.67   262.83
eigval :      271.57   288.13   291.09   299.99   301.40   322.88
eigval :      344.22   364.67   370.51   373.90   378.52   380.42
eigval :      390.74   391.62   398.92   417.43   420.38   422.56
eigval :      430.92   432.70   439.56   442.72   445.26   449.63
eigval :      456.73   466.72   476.08   493.37   503.08   509.50
eigval :      510.07   517.60   519.91   526.05   527.27   538.35
eigval :      566.20   571.27   574.72   578.11   581.55   591.41
eigval :      597.84   601.41   602.93   620.40   625.78   627.76
eigval :      646.66   649.50   658.63   659.95   661.99   662.05
eigval :      663.91   671.55   685.21   692.92   694.65   696.80
eigval :      701.30   711.69   732.85   741.17   748.34   766.17
eigval :      768.96   775.97   779.56   779.59   779.89   789.35
eigval :      789.56   804.30   824.44   835.26   836.93   853.80
eigval :      855.68   856.07   858.53   860.88   863.71   868.81
eigval :      869.08   877.48   878.45   888.99   898.39   898.81
eigval :      899.57   903.36   903.42   904.77   907.06   912.94
eigval :      915.13   915.14   915.80   916.18   917.32   917.54
eigval :      918.66   931.32   931.48   932.85   932.98   942.22
eigval :      976.89   993.72  1004.30  1020.55  1049.63  1064.45
eigval :     1074.68  1090.98  1091.22  1091.85  1092.91  1095.26
eigval :     1096.19  1108.77  1109.22  1120.54  1125.46  1140.60
eigval :     1141.28  1144.29  1146.62  1169.66  1170.60  1174.22
eigval :     1176.22  1184.37  1188.03  1192.47  1197.04  1199.75
eigval :     1201.91  1203.42  1207.63  1213.24  1225.88  1231.11
eigval :     1235.95  1244.17  1244.44  1255.98  1262.19  1262.54
eigval :     1264.19  1264.39  1271.08  1271.74  1279.00  1279.40
eigval :     1283.14  1286.48  1309.49  1309.50  1311.45  1315.60
eigval :     1323.79  1327.99  1337.39  1343.01  1349.55  1355.13
eigval :     1356.17  1380.22  1397.16  1401.51  1403.03  1418.12
eigval :     1422.11  1423.39  1426.29  1434.52  1442.85  1445.10
eigval :     1451.70  1457.13  1467.92  1471.61  1482.35  1485.20
eigval :     1488.14  1494.15  1503.27  1503.32  1521.96  1542.57
eigval :     1551.13  1559.43  1561.09  1567.57  1567.70  1572.15
eigval :     1572.81  1577.04  1580.39  1580.79  1585.87  1590.38
eigval :     1591.45  1594.59  1602.89  1602.92  3052.63  3052.69
eigval :     3063.02  3063.17  3072.54  3072.72  3089.48  3089.77
eigval :     3089.86  3090.79  3092.28  3092.36  3094.66  3094.96
eigval :     3095.79  3095.83  3099.50  3099.69  3099.73  3100.27
eigval :     3101.88  3106.33  3106.79  3107.13  3107.55  3112.46
eigval :     3112.52  3113.33  3113.47  3113.54  3114.02  3114.21

   temp. (K)  partition function   enthalpy   heat capacity  entropy
                                   cal/mol     cal/K/mol   cal/K/mol   J/K/mol
 298.15  VIB  0.209E+23            27818.496    175.653    173.309
         ROT  0.221E+09              888.752      2.981     41.161
         INT  0.462E+31            28707.249    178.634    214.470
         TR   0.218E+29             1481.254      4.968     45.884
         TOT                       30188.5026   183.6024   260.3535  1089.3188

       T/K    H(0)-H(T)+PV         H(T)/Eh          T*S/Eh         G(T)/Eh
   ------------------------------------------------------------------------
    298.15    0.481084E-01    0.746063E+00    0.123702E+00    0.622360E+00
   ------------------------------------------------------------------------

         :::::::::::::::::::::::::::::::::::::::::::::::::::::
         ::                  THERMODYNAMIC                  ::
         :::::::::::::::::::::::::::::::::::::::::::::::::::::
         :: total free energy        -157.091364205198 Eh   ::
         ::.................................................::
         :: total energy             -157.713724556415 Eh   ::
         :: zero point energy           0.697954236836 Eh   ::
         :: G(RRHO) w/o ZPVE           -0.075593885620 Eh   ::
         :: G(RRHO) contrib.            0.622360351217 Eh   ::
         :::::::::::::::::::::::::::::::::::::::::::::::::::::

           -------------------------------------------------
          | TOTAL ENERGY             -157.713724556415 Eh   |
          | TOTAL ENTHALPY           -156.967661878403 Eh   |
          | TOTAL FREE ENERGY        -157.091364205198 Eh   |
          | GRADIENT NORM               0.000055606120 Eh/α |
          | HOMO-LUMO GAP               0.982379720267 eV   |
           -------------------------------------------------

 * finished run on 2025/08/22 at 18:57:03.616
