   * xtb version 6.7.1 (edcfbbe) compiled by 'albert@albert-system' on 2024-07-22

   ID    Z sym.   atoms
    1    6 C      1-5, 7-24, 26-33, 35-39, 41-59
    2    7 N      6, 25, 34, 40
    3    1 H      60-99

          program call               : xtb data2507/gas/Spiro-CN/Spiro-CN_gas_T1_crest.xyz --gfn 2 --spinpol --tblite --uhf 2 --ohess vtight --parallel 40 --molden --ceasefiles --namespace data2507/gas/Spiro-CN/Spiro-CN_gas_T1_finalOpt
 * total energy  :  -149.8041206 Eh     change       -0.2366571E-07 Eh
 * total energy  :  -149.8041237 Eh     change       -0.3074599E-05 Eh
 * total energy  :  -149.8041253 Eh     change       -0.1689460E-05 Eh
 * total energy  :  -149.8041263 Eh     change       -0.9847777E-06 Eh
 * total energy  :  -149.8041274 Eh     change       -0.1054240E-05 Eh
 * total energy  :  -149.8041285 Eh     change       -0.1132675E-05 Eh
 * total energy  :  -149.8041302 Eh     change       -0.1644561E-05 Eh
 * total energy  :  -149.8041306 Eh     change       -0.4644564E-06 Eh
 * total energy  :  -149.8041313 Eh     change       -0.6974623E-06 Eh
 * total energy  :  -149.8041324 Eh     change       -0.1037543E-05 Eh
 * total energy  :  -149.8041352 Eh     change       -0.1886021E-06 Eh
 * total energy  :  -149.8041358 Eh     change       -0.5948288E-06 Eh
 * total energy  :  -149.8041361 Eh     change       -0.3206936E-06 Eh
 * total energy  :  -149.8041365 Eh     change       -0.3494067E-06 Eh
 * total energy  :  -149.8041370 Eh     change       -0.5214802E-06 Eh
 * total energy  :  -149.8041376 Eh     change       -0.5785398E-06 Eh
 * total energy  :  -149.8041378 Eh     change       -0.2713073E-06 Eh
 * total energy  :  -149.8041382 Eh     change       -0.3618252E-06 Eh
 * total energy  :  -149.8041382 Eh     change       -0.9061921E-08 Eh
   *** GEOMETRY OPTIMIZATION CONVERGED AFTER 24 ITERATIONS ***

 final structure:
================
99
 xtb: 6.7.1 (edcfbbe)
C           -8.62415538569863       -4.16546878975852        2.87347557005834
C           -7.62292839013238       -3.30167462913230        2.17267551556155
C           -7.91962070428807       -2.69763932128749        0.95534291089714
C           -6.99073884797326       -1.91697146045111        0.29917675123805
C           -5.72521928332217       -1.71487861957704        0.85381995853886
N           -4.77755483805691       -0.92854247693667        0.20320276409382
C           -5.17427619192580        0.16927286874584       -0.57277967275937
C           -4.52793399295412        0.44233807432298       -1.78017858639015
C           -4.89299094477326        1.53657125747558       -2.53556310287757
C           -5.91174062904809        2.38611116875625       -2.11713965163187
C           -6.31638160721823        3.56747476054167       -2.94082698202523
C           -6.56083652828410        2.10146397975574       -0.91819824033751
C           -6.20259351680148        1.01252799820562       -0.15084349545294
C           -3.42719424647097       -1.23797714983347        0.26009151447156
C           -2.98539150589424       -2.57923832430662        0.24206714920172
C           -1.65443718311822       -2.88694371591746        0.14764356109572
C           -0.70660468147585       -1.84691801684107        0.08166946036061
C           -1.15767709865238       -0.49663967690128        0.17058826559953
C           -2.48107466881646       -0.19036024654728        0.24821710052280
C           -0.00262208959067        0.45537705273192        0.00733308652628
C            0.33180981985489        1.39089359679472        1.14888008667141
C            0.79397313593142        1.06257578166100        2.39255025037654
C            1.17761808352352        2.10308270045310        3.26073039266192
C            1.70835861874925        1.80025390057117        4.52102479341547
N            2.17811384740736        1.55131758076285        5.54338404212811
C            1.08013353229219        3.44420138037537        2.84612824922419
C            0.61791061134970        3.76424117375183        1.59276493666121
C            0.24592968557494        2.73653355875145        0.72052168050219
C           -0.20604996165929        2.76121071085024       -0.63677298193279
C           -0.55484408053908        3.82195982749178       -1.47844905497017
C           -1.02674566725523        3.54880121735930       -2.73928578738856
C           -1.15708805348469        2.22275170577690       -3.19154642565148
C           -1.69883479760491        1.96890183935729       -4.45781254552743
N           -2.17879498616972        1.76066009860979       -5.48459590467383
C           -0.79523771488607        1.14907262549600       -2.35480373617913
C           -0.32317230313520        1.43065410424005       -1.10346957184999
C            1.14889710531868       -0.49758586227327       -0.17811926920601
C            2.47247939566592       -0.19322091913522       -0.26018966119686
C            3.41643035812977       -1.24234697653156       -0.28540903841577
N            4.76774313748416       -0.93649345832897       -0.23330620531855
C            5.17149728649762        0.15777639878958        0.54374291827205
C            6.20402681360301        0.99579931917297        0.12157783119308
C            6.57000872463476        2.08138540092408        0.89004443414608
C            5.92458255562571        2.36816610936527        2.09037528090091
C            6.31418465089721        3.56570121187779        2.89781592361644
C            4.90155934574520        1.52381592569611        2.50905911259002
C            4.52934661376230        0.43243180329895        1.75316214844558
C            5.70954273470063       -1.72220038426447       -0.89362338073821
C            5.39711971435466       -2.31424857180502       -2.12088757702976
C            6.32801018693183       -3.09406688166600       -2.77154621612176
C            7.59390180943944       -3.30887761758766       -2.23133498160326
C            8.58816337548582       -4.16335772780628       -2.95325100576072
C            7.89860246620031       -2.71532368584448       -1.01148842052336
C            6.97592192460752       -1.93462608120916       -0.34572680563032
C            2.97190593139050       -2.58293585202587       -0.27526984939312
C            1.64075687731817       -2.88881370928020       -0.17850337086142
C            0.69510142779965       -1.84759187354707       -0.10087901450798
C           -5.42095941327720       -2.31733693050380        2.07775651422997
C           -6.35859895646385       -3.09744508421912        2.71920285597226
H           -8.60074897557593       -3.98980353316488        3.94703244528085
H           -8.39336912994835       -5.21777123776070        2.70365627612564
H           -9.62909132425150       -3.97485407054294        2.50551448651174
H           -8.89235973080248       -2.84737108851241        0.50988342901964
H           -7.23166625470340       -1.46868167486909       -0.65325805234194
H           -3.74508089926146       -0.21552670147224       -2.12627107253487
H           -4.38186671931526        1.72807499253710       -3.46749774903766
H           -7.26133105183280        3.36555286098009       -3.44599906108147
H           -6.45652667067585        4.44550148639177       -2.31304828860573
H           -5.56608755111461        3.78621217366906       -3.69587801438011
H           -7.35276514300682        2.75222453458587       -0.57638836874215
H           -6.70204903252068        0.81588472857457        0.78665745383051
H           -3.72540837249477       -3.36637112476383        0.24731416953699
H           -1.33436686440620       -3.91581668524847        0.08576642744222
H           -2.81535300072995        0.83568971697578        0.29313160941480
H            0.87722762018801        0.03318227491969        2.71307618405328
H            1.38697946460008        4.22154763495568        3.53176271811442
H            0.56077852175911        4.79521992240995        1.27607445420721
H           -0.47295074710412        4.84184066432648       -1.13266006096267
H           -1.31625303107990        4.35255654325829       -3.40163003815058
H           -0.90245241879946        0.13159685534360       -2.70476903618137
H            2.80816992520899        0.83265012900919       -0.29803480610618
H            6.70202158252964        0.79700477636913       -0.81623525385749
H            7.36606534799889        2.72719788526772        0.54846884717912
H            5.92127459630929        4.47090072557202        2.43376987028447
H            5.91377994268599        3.49881954019508        3.90586963578406
H            7.39698419630461        3.66219586547186        2.95000925737130
H            4.39403096999586        1.71542627017636        3.44297347821144
H            3.74510175525015       -0.22261560844486        2.10143428640628
H            4.42655681148123       -2.13962000089762       -2.56111653798216
H            6.07556148630117       -3.53952275263298       -3.72282634652584
H            8.72050979431050       -3.81309195183909       -3.97589081122682
H            9.55198579882308       -4.15009709584679       -2.45126869260905
H            8.23644087094108       -5.19385945681731       -3.00013216334882
H            8.87198829991378       -2.87312085112063       -0.57025390363088
H            7.22276247552126       -1.49513882942141        0.60929439458406
H            3.71032995825196       -3.37144708177879       -0.28907917852806
H            1.31896791535722       -3.91754651939210       -0.12354460359966
H           -4.45170310749581       -2.15029598340990        2.52374354527567
H           -6.11147510592028       -3.55035318109995        3.66834571729356

 projected vibrational frequencies (cm⁻¹)
eigval :       -0.00    -0.00    -0.00     0.00     0.00     0.00
eigval :      -12.63     2.25     8.15    11.42    12.98    14.54
eigval :       17.22    19.67    21.43    25.75    32.59    38.34
eigval :       39.78    41.35    46.21    50.24    52.79    53.24
eigval :       68.98    77.77    80.50    84.02    92.44    95.12
eigval :      124.94   126.99   133.46   139.72   147.27   154.09
eigval :      156.69   157.32   176.66   199.25   199.79   221.11
eigval :      227.78   240.74   257.72   259.76   270.55   279.58
eigval :      289.79   291.68   295.49   299.09   317.00   326.80
eigval :      337.27   344.46   351.58   352.91   361.53   361.94
eigval :      375.14   379.22   379.35   382.30   384.94   385.46
eigval :      396.77   418.40   426.11   433.05   439.55   441.59
eigval :      452.94   455.39   461.48   466.65   478.85   490.13
eigval :      496.24   508.98   520.45   526.05   529.78   530.31
eigval :      545.01   558.70   567.38   569.14   577.19   592.05
eigval :      598.45   607.70   609.82   610.37   610.89   614.54
eigval :      616.08   621.10   646.09   661.92   662.29   663.30
eigval :      665.44   666.22   686.78   687.09   689.89   715.02
eigval :      727.20   749.22   756.64   792.82   793.67   800.63
eigval :      804.08   805.96   807.51   808.53   809.54   813.17
eigval :      817.64   820.75   827.55   856.56   866.29   866.96
eigval :      867.97   869.25   869.82   871.04   872.18   873.65
eigval :      884.99   901.50   902.74   903.88   904.71   914.44
eigval :      914.60   917.82   917.89   927.09   927.34   930.38
eigval :      930.71   931.23   932.12   939.28   969.58   970.96
eigval :      981.90  1001.85  1008.11  1008.42  1009.52  1009.77
eigval :     1010.38  1017.21  1022.05  1025.58  1027.93  1029.70
eigval :     1029.82  1029.88  1029.93  1060.68  1125.95  1132.38
eigval :     1143.92  1144.04  1145.06  1145.27  1150.72  1153.26
eigval :     1160.87  1167.64  1172.77  1184.58  1190.38  1192.49
eigval :     1192.96  1200.34  1205.30  1217.20  1222.12  1223.81
eigval :     1233.17  1237.62  1238.51  1254.93  1256.90  1260.83
eigval :     1261.85  1271.85  1272.43  1275.90  1276.19  1292.20
eigval :     1304.35  1310.60  1310.85  1313.51  1322.79  1323.93
eigval :     1324.69  1330.94  1331.50  1331.75  1341.90  1354.16
eigval :     1360.97  1391.42  1403.06  1403.17  1403.39  1403.94
eigval :     1404.10  1412.75  1412.83  1421.38  1421.78  1421.86
eigval :     1423.29  1443.60  1444.91  1451.14  1464.86  1471.38
eigval :     1473.89  1475.67  1475.79  1476.95  1477.19  1477.48
eigval :     1477.92  1479.10  1479.44  1481.79  1482.29  1484.45
eigval :     1484.55  1501.40  1533.75  1553.67  1553.81  1559.30
eigval :     1559.44  1564.73  1576.04  1586.90  1586.96  1589.26
eigval :     1591.78  1593.66  1610.15  2315.77  2320.86  2996.41
eigval :     2998.50  2999.33  3003.79  3021.35  3027.44  3028.54
eigval :     3031.88  3045.78  3049.07  3051.29  3051.83  3069.70
eigval :     3069.99  3071.78  3073.37  3076.80  3076.88  3078.56
eigval :     3078.75  3079.06  3079.78  3080.83  3081.15  3083.93
eigval :     3085.93  3086.14  3086.54  3087.77  3088.24  3088.50
eigval :     3088.63  3091.54  3092.07  3092.46  3092.84  3093.10
eigval :     3094.19  3098.06  3098.37

   temp. (K)  partition function   enthalpy   heat capacity  entropy
                                   cal/mol     cal/K/mol   cal/K/mol   J/K/mol
 298.15  VIB  0.479E+29            31122.569    181.483    201.706
         ROT  0.138E+09              888.752      2.981     40.222
         INT  0.659E+37            32011.321    184.464    241.928
         TR   0.201E+29             1481.254      4.968     45.731
         TOT                       33492.5751   189.4324   287.6583  1203.5624

       T/K    H(0)-H(T)+PV         H(T)/Eh          T*S/Eh         G(T)/Eh
   ------------------------------------------------------------------------
    298.15    0.533738E-01    0.817551E+00    0.136676E+00    0.680875E+00
   ------------------------------------------------------------------------

         :::::::::::::::::::::::::::::::::::::::::::::::::::::
         ::                  THERMODYNAMIC                  ::
         :::::::::::::::::::::::::::::::::::::::::::::::::::::
         :: total free energy        -149.123263145644 Eh   ::
         ::.................................................::
         :: total energy             -149.804138290345 Eh   ::
         :: zero point energy           0.764177074665 Eh   ::
         :: G(RRHO) w/o ZPVE           -0.083301929965 Eh   ::
         :: G(RRHO) contrib.            0.680875144700 Eh   ::
         :::::::::::::::::::::::::::::::::::::::::::::::::::::

           -------------------------------------------------
          | TOTAL ENERGY             -149.804138290345 Eh   |
          | TOTAL ENTHALPY           -148.986587399895 Eh   |
          | TOTAL FREE ENERGY        -149.123263145644 Eh   |
          | GRADIENT NORM               0.000091140743 Eh/α |
           -------------------------------------------------

 * finished run on 2025/09/12 at 23:14:31.154
