   * xtb version 6.7.1 (edcfbbe) compiled by 'albert@albert-system' on 2024-07-22

   ID    Z sym.   atoms
    1    6 C      1-5, 7-24, 26-33, 35-39, 41-59
    2    7 N      6, 25, 34, 40
    3    1 H      60-99

          program call               : xtb data2507/gas/Spiro-CN/Spiro-CN_gas_S0_finalOpt.xtbopt.xyz --gfn 2 --spinpol --tblite --uhf 2 --ohess vtight --parallel 40 --molden --ceasefiles --namespace data2507/gas/Spiro-CN/Spiro-CN_gas_T1_preOpt
 * total energy  :  -149.7994513 Eh     change        0.2419205E-07 Eh
 * total energy  :  -149.8029401 Eh     change       -0.3488765E-02 Eh
 * total energy  :  -149.8038236 Eh     change       -0.8835202E-03 Eh
 * total energy  :  -149.8038903 Eh     change       -0.6674689E-04 Eh
 * total energy  :  -149.8039275 Eh     change       -0.3716993E-04 Eh
 * total energy  :  -149.8039472 Eh     change       -0.1968697E-04 Eh
 * total energy  :  -149.8039750 Eh     change       -0.2781777E-04 Eh
 * total energy  :  -149.8039934 Eh     change       -0.1836278E-04 Eh
 * total energy  :  -149.8040127 Eh     change       -0.1932253E-04 Eh
 * total energy  :  -149.8040414 Eh     change       -0.2868226E-04 Eh
 * total energy  :  -149.8041412 Eh     change       -0.2769901E-06 Eh
 * total energy  :  -149.8041414 Eh     change       -0.2632689E-06 Eh
 * total energy  :  -149.8041416 Eh     change       -0.2023111E-06 Eh
 * total energy  :  -149.8041419 Eh     change       -0.2395879E-06 Eh
 * total energy  :  -149.8041420 Eh     change       -0.1235007E-06 Eh
 * total energy  :  -149.8041422 Eh     change       -0.1996595E-06 Eh
 * total energy  :  -149.8041423 Eh     change       -0.1585365E-06 Eh
 * total energy  :  -149.8041425 Eh     change       -0.1824234E-06 Eh
 * total energy  :  -149.8041426 Eh     change       -0.5706286E-07 Eh
   *** GEOMETRY OPTIMIZATION CONVERGED AFTER 38 ITERATIONS ***

 final structure:
================
99
 xtb: 6.7.1 (edcfbbe)
C           -8.65439057418014       -4.10415070995221        2.87326473157778
C           -7.62887844682369       -3.28177314611676        2.15794138617582
C           -7.91841315111492       -2.69259726929954        0.93047073404002
C           -6.98752711163369       -1.91758056946233        0.27202025787312
C           -5.72649314317466       -1.70487507218686        0.83418666686557
N           -4.77493112093115       -0.92673128626080        0.17935254953946
C           -5.16680804553042        0.16027954307322       -0.61394661131284
C           -4.51102800212787        0.41889587418566       -1.81924279702724
C           -4.87187234329005        1.50262250918462       -2.59205752491487
C           -5.89576391024729        2.35498239086401       -2.19362051634080
C           -6.29232475411873        3.53110253938012       -3.02881742523480
C           -6.55430699857121        2.08472154034525       -0.99609998910332
C           -6.20039672345049        1.00700035170372       -0.21157824521081
C           -3.42482229190502       -1.23466456376605        0.24958457723183
C           -2.98235995524193       -2.57590946468832        0.25051657692009
C           -1.65071390859429       -2.88393228666291        0.16859443104661
C           -0.70294026803635       -1.84416645983242        0.09680513770168
C           -1.15519748034368       -0.49317002197442        0.16645439660812
C           -2.47923908258288       -0.18672741529765        0.23146666121948
C            0.00040862459696        0.45746542392104       -0.00285673419564
C            0.31925069900148        1.41779585084222        1.12197818859306
C            0.77440898263782        1.11791824302706        2.37537681343115
C            1.14146261461811        2.17859955720692        3.22619818155973
C            1.66619307320336        1.90540498184959        4.49567348742670
N            2.13193174095841        1.68124087208331        5.52558783792263
C            1.03390028276591        3.51052272346765        2.78539235941921
C            0.57901900532669        3.80197736606840        1.52238637396969
C            0.22472117577556        2.75410885979306        0.66702346576939
C           -0.21444069578669        2.74845348388360       -0.69473504980874
C           -0.56383977930676        3.78952786137672       -1.56033877795900
C           -1.02005100425536        3.48781266592690       -2.82045640710308
C           -1.13382247025738        2.15216031884752       -3.24818757282338
C           -1.65978842278449        1.86899854836201       -4.51494658631535
N           -2.12662140124657        1.63672511800395       -5.54258812365920
C           -0.77160925847887        1.09816017555702       -2.38702102157540
C           -0.31510180322832        1.40818414985345       -1.13659130417642
C            1.15434267621963       -0.49704487722040       -0.16199217794415
C            2.47873899436997       -0.19337731287189       -0.23255533328886
C            3.42277781674523       -1.24280484369808       -0.23800924042316
N            4.77342542686560       -0.93595579083769       -0.17398026935350
C            5.16813849596655        0.16150992887662        0.60335797268109
C            6.20254783636092        1.00077065165131        0.18760958736448
C            6.55925124597804        2.08891917024330        0.95625027555997
C            5.90276970283236        2.37726256628121        2.15072531155675
C            6.30084778062220        3.56623291385287        2.96681902014140
C            4.87808041840813        1.53233674916869        2.56257689907574
C            4.51446619871801        0.43826146402172        1.80574643948518
C            5.72275919495661       -1.72455583752860       -0.81951141160123
C            5.42315907889858       -2.32676940889504       -2.04464688522673
C            6.36114719778504       -3.11175674640058       -2.67971533693801
C            7.62088637871363       -3.32163857217524       -2.12500476879368
C            8.63648765086655       -4.15882018596314       -2.83732256274838
C            7.91333797533652       -2.71690738390851       -0.90690193728843
C            6.98405627765423       -1.93152854506963       -0.25705150516621
C            2.97838074311071       -2.58330329991607       -0.22040158803821
C            1.64637730720736       -2.88830860962593       -0.13319428808007
C            0.70013284754066       -1.84632609296284       -0.07453017558555
C           -5.43015501797459       -2.29087568362047        2.06737978359463
C           -6.37071064594163       -3.06638036250036        2.71174751778716
H           -9.28822886972526       -3.45988500482255        3.48402483351809
H           -8.18167907170706       -4.83044957808737        3.52995030303277
H           -9.29357776746912       -4.62784588054105        2.16605702447420
H           -8.88704696731719       -2.85316649976807        0.47984230551923
H           -7.22105049883536       -1.48385610254659       -0.68897150909482
H           -3.72444097371413       -0.24204499751185       -2.15067501626606
H           -4.35325111947088        1.68211175619793       -3.52224314041605
H           -7.30890280329920        3.40507494480152       -3.40090706700578
H           -6.26764469737175        4.44493690637303       -2.43681071222935
H           -5.62417828593780        3.64420139948671       -3.87817152860637
H           -7.35054859210438        2.73840685262521       -0.67022895983156
H           -6.70749163215055        0.82125554160321        0.72404304024002
H           -3.72213894943044       -3.36321529945158        0.26024330692588
H           -1.32961680707650       -3.91323864689610        0.12106018550490
H           -2.81436695631861        0.83958999411139        0.26157421125313
H            0.86464367454924        0.09573747835103        2.71635986957662
H            1.32730151650991        4.30390956579077        3.45841206304319
H            0.51445387447114        4.82611764061244        1.18564101046836
H           -0.49450018111990        4.81661712972495       -1.23367928891131
H           -1.30971672038463        4.27593013747415       -3.50124622801290
H           -0.86639325068141        0.07312272503141       -2.71802433798909
H            2.81521311503665        0.83199487180907       -0.27658308214878
H            6.70814088507603        0.80090204187368       -0.74590805748706
H            7.35610145852577        2.73663171056870        0.62010638479145
H            7.33168214895733        3.46570895914990        3.30549299206052
H            6.23575162454837        4.47563253520778        2.37075385254809
H            5.65787265714761        3.67038215515401        3.83648599720062
H            4.36109980925715        1.72560676259870        3.49091965618783
H            3.72742925531903       -0.21670384132282        2.14780646194222
H            4.45644709230620       -2.15780132677494       -2.49540482334586
H            6.11720417285946       -3.56562484788161       -3.62921428653705
H            9.10937838358339       -3.57761557462584       -3.62984115476273
H            9.41268508059434       -4.49489451496651       -2.15444089696668
H            8.16816578944309       -5.02687768914148       -3.29654325527792
H            8.88219768092027       -2.87186718003178       -0.45481808018926
H            7.22022630323005       -1.48530366540375        0.69754055170668
H            3.71702942780087       -3.37173088383300       -0.22017764345693
H            1.32386644835572       -3.91642909339666       -0.07161147398239
H           -4.46398090540090       -2.11764564651839        2.51765582987402
H           -6.12762521105811       -3.50741788789713        3.66747861956242

 projected vibrational frequencies (cm⁻¹)
eigval :       -0.00    -0.00    -0.00    -0.00     0.00     0.00
eigval :      -12.94   -12.17    -7.15     9.17    10.73    12.72
eigval :       14.28    19.27    19.97    25.67    31.94    38.17
eigval :       39.61    41.25    45.66    49.83    52.41    52.71
eigval :       69.13    77.49    80.02    83.65    92.76    95.26
eigval :      124.49   126.98   133.19   139.57   146.80   153.61
eigval :      156.38   157.13   176.46   199.08   199.44   220.98
eigval :      227.57   240.66   258.60   260.78   269.94   279.25
eigval :      289.70   290.83   294.94   298.90   316.83   325.69
eigval :      336.79   345.34   351.02   354.28   361.40   361.53
eigval :      374.05   379.03   379.18   382.13   385.02   385.07
eigval :      396.46   417.93   425.67   432.48   439.56   441.30
eigval :      453.48   455.41   462.07   465.63   480.30   489.48
eigval :      494.26   509.21   519.84   525.80   529.76   530.95
eigval :      544.93   559.12   566.51   569.08   577.12   592.01
eigval :      598.06   607.64   610.04   610.23   610.71   614.50
eigval :      616.12   621.08   646.43   661.64   662.33   663.53
eigval :      666.11   666.56   686.44   686.79   689.61   714.98
eigval :      726.99   748.00   756.83   794.59   795.84   798.39
eigval :      803.48   803.69   806.33   807.05   807.91   812.21
eigval :      816.48   822.08   827.23   856.41   865.37   865.79
eigval :      866.26   867.90   868.37   870.17   871.13   872.43
eigval :      884.67   900.20   901.81   902.58   903.66   913.99
eigval :      914.18   917.38   917.46   926.19   926.44   929.85
eigval :      930.32   931.15   932.18   939.59   969.60   970.75
eigval :      981.97  1001.75  1008.13  1008.45  1008.98  1009.12
eigval :     1010.12  1016.69  1021.87  1025.25  1027.42  1029.35
eigval :     1029.58  1029.71  1029.75  1060.82  1125.32  1132.26
eigval :     1142.96  1143.01  1144.17  1144.30  1150.86  1152.44
eigval :     1160.36  1166.38  1171.70  1184.34  1189.85  1191.45
eigval :     1191.91  1199.56  1204.91  1216.67  1221.52  1223.23
eigval :     1232.64  1237.41  1238.38  1254.15  1256.55  1260.75
eigval :     1261.62  1271.12  1271.62  1275.16  1275.44  1291.98
eigval :     1304.65  1310.44  1311.17  1314.66  1321.99  1323.32
eigval :     1324.96  1330.66  1331.04  1331.75  1341.96  1354.14
eigval :     1360.88  1391.12  1402.02  1402.07  1403.10  1403.81
eigval :     1403.97  1412.67  1412.80  1421.38  1421.73  1421.97
eigval :     1423.38  1443.57  1444.94  1450.96  1464.64  1471.19
eigval :     1473.64  1474.76  1475.09  1475.85  1475.87  1476.76
eigval :     1477.61  1478.84  1479.93  1480.69  1481.13  1483.93
eigval :     1484.78  1501.71  1533.81  1553.53  1553.68  1559.41
eigval :     1559.52  1564.43  1576.00  1587.02  1587.08  1589.23
eigval :     1591.79  1593.73  1610.08  2315.74  2320.31  2993.96
eigval :     2995.73  3003.95  3004.88  3019.07  3020.13  3032.56
eigval :     3037.01  3041.88  3044.56  3053.57  3053.74  3069.81
eigval :     3069.86  3071.78  3073.28  3076.53  3076.62  3078.33
eigval :     3078.44  3079.03  3079.64  3080.36  3080.74  3084.07
eigval :     3085.93  3086.09  3086.41  3087.59  3087.87  3088.21
eigval :     3088.39  3091.49  3091.73  3092.24  3092.38  3092.74
eigval :     3094.62  3097.65  3098.21

   temp. (K)  partition function   enthalpy   heat capacity  entropy
                                   cal/mol     cal/K/mol   cal/K/mol   J/K/mol
 298.15  VIB  0.245E+29            31142.874    181.483    201.024
         ROT  0.138E+09              888.752      2.981     40.222
         INT  0.337E+37            32031.626    184.464    241.246
         TR   0.201E+29             1481.254      4.968     45.731
         TOT                       33512.8801   189.4325   286.9768  1200.7110

       T/K    H(0)-H(T)+PV         H(T)/Eh          T*S/Eh         G(T)/Eh
   ------------------------------------------------------------------------
    298.15    0.534062E-01    0.817384E+00    0.136352E+00    0.681032E+00
   ------------------------------------------------------------------------

         :::::::::::::::::::::::::::::::::::::::::::::::::::::
         ::                  THERMODYNAMIC                  ::
         :::::::::::::::::::::::::::::::::::::::::::::::::::::
         :: total free energy        -149.123110220343 Eh   ::
         ::.................................................::
         :: total energy             -149.804142593717 Eh   ::
         :: zero point energy           0.763978140676 Eh   ::
         :: G(RRHO) w/o ZPVE           -0.082945767303 Eh   ::
         :: G(RRHO) contrib.            0.681032373373 Eh   ::
         :::::::::::::::::::::::::::::::::::::::::::::::::::::

           -------------------------------------------------
          | TOTAL ENERGY             -149.804142593717 Eh   |
          | TOTAL ENTHALPY           -148.986758279112 Eh   |
          | TOTAL FREE ENERGY        -149.123110220343 Eh   |
          | GRADIENT NORM               0.000103257836 Eh/α |
           -------------------------------------------------

 * finished run on 2025/09/12 at 22:59:03.308
