   * xtb version 6.7.1 (edcfbbe) compiled by 'albert@albert-system' on 2024-07-22

   ID    Z sym.   atoms
    1    6 C      1-5, 7-24, 26-33, 35-39, 41-59
    2    7 N      6, 25, 34, 40
    3    1 H      60-99

          program call               : xtb data2507/gas/Spiro-CN/Spiro-CN.xyz --gfn 2 --ohess vtight --parallel 40 --molden --ceasefiles --namespace data2507/gas/Spiro-CN/Spiro-CN_gas_S0_preOpt
          :  Hamiltonian                  GFN2-xTB          :
 * total energy  :  -149.8478087 Eh     change       -0.4719368E-08 Eh
 * total energy  :  -149.8640338 Eh     change       -0.1622507E-01 Eh
 * total energy  :  -149.8700190 Eh     change       -0.5985281E-02 Eh
 * total energy  :  -149.8724091 Eh     change       -0.2390034E-02 Eh
 * total energy  :  -149.8736612 Eh     change       -0.1252132E-02 Eh
 * total energy  :  -149.8739101 Eh     change       -0.2489015E-03 Eh
 * total energy  :  -149.8740423 Eh     change       -0.1321934E-03 Eh
 * total energy  :  -149.8743310 Eh     change       -0.2887292E-03 Eh
 * total energy  :  -149.8744392 Eh     change       -0.1081703E-03 Eh
 * total energy  :  -149.8744562 Eh     change       -0.1703437E-04 Eh
 * total energy  :  -149.8751675 Eh     change        0.2668683E-06 Eh
 * total energy  :  -149.8751681 Eh     change       -0.6246215E-06 Eh
 * total energy  :  -149.8751663 Eh     change        0.1804749E-05 Eh
 * total energy  :  -149.8751686 Eh     change       -0.2309323E-05 Eh
 * total energy  :  -149.8751688 Eh     change       -0.1737195E-06 Eh
 * total energy  :  -149.8751691 Eh     change       -0.3152107E-06 Eh
 * total energy  :  -149.8751689 Eh     change        0.1768860E-06 Eh
 * total energy  :  -149.8751692 Eh     change       -0.2690906E-06 Eh
 * total energy  :  -149.8751693 Eh     change       -0.7522345E-07 Eh
   *** GEOMETRY OPTIMIZATION CONVERGED AFTER 102 ITERATIONS ***

 final structure:
================
99
 xtb: 6.7.1 (edcfbbe)
C           -8.70797728410495       -4.84840565506371       -0.40396194706677
C           -7.67466412698049       -3.76398749420503       -0.44116993593918
C           -6.46879965460464       -3.90626179207277        0.23536718416381
C           -5.52196802783927       -2.90194101372811        0.22696775205869
C           -5.75611758931499       -1.72041115335847       -0.47424851380569
N           -4.79681768664182       -0.69868338214970       -0.48875873210115
C           -5.20627463214937        0.64109695603726       -0.44376081076940
C           -4.53674119737945        1.61529512618069       -1.18311467651774
C           -4.94015725344836        2.93437599789273       -1.12811280147162
C           -6.02576355640776        3.32220691327926       -0.35230549822804
C           -6.45344749306683        4.75670620307321       -0.28395286726272
C           -6.69511328192869        2.34497086719973        0.37538441066880
C           -6.29367038593315        1.02467561541678        0.33916757940409
C           -3.44082854709064       -1.00437634347155       -0.57198808158837
C           -2.99899773489510       -2.10236035008377       -1.31712463732357
C           -1.65384625926602       -2.39141423380968       -1.44370364955101
C           -0.72396512158234       -1.56697325832311       -0.82805649885435
C           -1.17109325314383       -0.47629225861981       -0.06604296571324
C           -2.50429106245159       -0.19156925006641        0.07957170464101
C            0.00030454763001        0.28926308354986        0.50583261055378
C           -0.00578973174250        0.36741011862522        2.00930009884746
C           -0.01443285721021       -0.66736726097457        2.91406002956546
C           -0.01996605592053       -0.34922759418783        4.27639888606078
C           -0.02897970302077       -1.38791040055630        5.23453449544097
N           -0.03631834367994       -2.22897213110403        6.01389443198557
C           -0.01697287588477        0.98134477563401        4.70655021028469
C           -0.00832500174392        2.01476767940608        3.78932306482936
C           -0.00276971529857        1.70656869532915        2.43631763547456
C            0.00709455950861        2.56134830097594        1.26346557992125
C            0.01682804652118        3.94354503716932        1.14181013626758
C            0.02935881097596        4.49917953098989       -0.12312292984744
C            0.03178745926918        3.68151015869450       -1.25749197850288
C            0.04744889317350        4.27489404372277       -2.53965316996596
N            0.06108647322930        4.75907184320638       -3.57908319624815
C            0.02066483034952        2.28749699855036       -1.14232740371000
C            0.00832517462628        1.74427146859303        0.12013289674776
C            1.17205906214621       -0.48026534418653       -0.05991413466321
C            2.50509748479974       -0.19654522126945        0.08841283024413
C            3.44223549872500       -1.00809947070773       -0.56378184043247
N            4.79757495341904       -0.69917530582347       -0.48182131209309
C            5.75977685921619       -1.71795588503528       -0.46932037435235
C            6.96575221981468       -1.56440619897101       -1.14977379830148
C            7.91298894327968       -2.56877426978441       -1.12391370071781
C            7.68781865733068       -3.75257928450874       -0.43223944200230
C            8.70664199772492       -4.85125505165975       -0.42830989976911
C            6.48065825484093       -3.90083277542149        0.24104256587434
C            5.52944072589559       -2.90091173946512        0.23107489229489
C            5.20217087907789        0.64229723475348       -0.43858296073156
C            6.28779788158435        1.03123873015590        0.34427156794890
C            6.68329390938030        2.35324291410028        0.37935246805980
C            6.00963494997389        3.32706915023648       -0.34930151117463
C            6.43304278011963        4.76287323050807       -0.28164534960560
C            4.92611733461157        2.93391124943518       -1.12503174441139
C            4.52870890604518        1.61284119237763       -1.17901097154947
C            3.00119091821838       -2.10571685903443       -1.30987284276372
C            1.65604202515824       -2.39391245846864       -1.43896514712900
C            0.72549429813915       -1.56888474756686       -0.82506705348510
C           -6.96161096758106       -1.57225494305570       -1.15698845205502
C           -7.90426889830723       -2.58074664445025       -1.13270541879214
H           -9.34380491021054       -4.80907485921678       -1.28534646850855
H           -9.34248891064744       -4.73042304153515        0.47543267341142
H           -8.23940775179905       -5.82850051595456       -0.34931650889327
H           -6.27067510008496       -4.81552342694933        0.78472246813922
H           -4.59387325901671       -3.02549661397199        0.76591281115913
H           -3.70039925488609        1.33196263593968       -1.80562646482355
H           -4.40742183213516        3.67364165453041       -1.70950409816298
H           -6.01392877304795        5.23780912095391        0.59088954173027
H           -6.12815502425864        5.30077909674261       -1.16742225593560
H           -7.53522473597088        4.83427672421860       -0.19942633521842
H           -7.54129967767154        2.62373190659157        0.98709768308585
H           -6.82081529708229        0.28026718152599        0.91779232644067
H           -3.73003811802499       -2.72201949179599       -1.81501600251459
H           -1.33469534937642       -3.23671970020356       -2.03436513001253
H           -2.83434371257477        0.64834475037646        0.67378155808782
H           -0.01696011320079       -1.69808042271352        2.59140568919252
H           -0.02152113853570        1.19058327555536        5.76620812782447
H           -0.00603839114500        3.04131654804219        4.12320738109405
H            0.01565637548698        4.57632977002848        2.01637273954989
H            0.03808904687151        5.57195178068437       -0.24908591725191
H            0.02267305963915        1.66360836092199       -2.02416025037734
H            2.83457135786244        0.64272826790558        0.68384007841570
H            7.15431457016654       -0.65331320198742       -1.69856161763803
H            8.84251008520487       -2.43211345540674       -1.65788084140298
H            9.70375529212739       -4.45722555072005       -0.60965524495294
H            8.70265615215630       -5.37914913914705        0.52288338295134
H            8.48074148501028       -5.57395532572267       -1.21348372354622
H            6.28656112904271       -4.81054931695973        0.79113637504617
H            4.60203696745206       -3.02747053335175        0.77051416802022
H            6.81797768739743        0.28961131315035        0.92370432911461
H            7.52803253043773        2.63658112382359        0.99096704400648
H            6.03325775709842        5.23006366725546        0.61932271992133
H            7.51738838872237        4.84461363968727       -0.24628694552748
H            6.06519946409205        5.31668594713376       -1.14195706279453
H            4.38999336064892        3.67005647252009       -1.70728865460293
H            3.69370459761014        1.32542057665428       -1.80144423192240
H            3.73270067760713       -2.72492585001982       -1.80763214352757
H            1.33743449779161       -3.23822378688782       -2.03134591145374
H           -7.15188943556923       -0.66317317170962       -1.70852065884950
H           -8.83274473336155       -2.44943375381569       -1.66987041217273

          :  Hamiltonian                  GFN2-xTB          :
         :: gradient norm              0.000054121113 Eh/a0 ::
         :: HOMO-LUMO gap              1.212181333386 eV    ::
         :: SCC energy              -152.741741572063 Eh    ::
         :: -> dispersion             -0.140179805868 Eh    ::
         :: repulsion energy           2.866572281338 Eh    ::

    * Orbital Energies and Occupations

         #    Occupation            Energy/Eh            Energy/eV
      -------------------------------------------------------------
         1        2.0000           -0.6832490             -18.5922
       ...           ...                  ...                  ...
       128        2.0000           -0.4123074             -11.2195
       129        2.0000           -0.4121717             -11.2158
       130        2.0000           -0.4070407             -11.0761
       131        2.0000           -0.4062066             -11.0534
       132        2.0000           -0.4040099             -10.9937
       133        2.0000           -0.4038839             -10.9902
       134        2.0000           -0.4034775             -10.9792
       135        2.0000           -0.4030442             -10.9674
       136        2.0000           -0.3971210             -10.8062
       137        2.0000           -0.3971193             -10.8062
       138        2.0000           -0.3909711             -10.6389
       139        2.0000           -0.3528499              -9.6015
       140        2.0000           -0.3416502              -9.2968 (HOMO)
       141                         -0.2971034              -8.0846 (LUMO)
       142                         -0.2580063              -7.0207
       143                         -0.2559026              -6.9635
       144                         -0.2497293              -6.7955
       145                         -0.2454238              -6.6783
       146                         -0.2323797              -6.3234
       147                         -0.2277335              -6.1969
       148                         -0.2274969              -6.1905
       149                         -0.2270552              -6.1785
       150                         -0.2235260              -6.0825
       151                         -0.2219956              -6.0408
       ...                                ...                  ...
       276                          1.1685475              31.7978
      -------------------------------------------------------------
                  HL-Gap            0.0445468 Eh            1.2122 eV

     #   Z          covCN         q      C6AA      α(0)
     1   6 C        3.757    -0.109    22.629     6.782
     2   6 C        2.965     0.011    27.777     8.645
     3   6 C        2.925    -0.040    28.983     8.829
     4   6 C        2.921    -0.049    29.207     8.863
     5   6 C        2.924     0.060    26.665     8.468
     6   7 N        2.752    -0.073    22.664     7.071
     7   6 C        2.925     0.060    26.658     8.467
     8   6 C        2.921    -0.049    29.211     8.863
     9   6 C        2.924    -0.040    28.989     8.830
    10   6 C        2.965     0.010    27.791     8.647
    11   6 C        3.757    -0.108    22.623     6.781
    12   6 C        2.925    -0.040    28.989     8.830
    13   6 C        2.921    -0.049    29.216     8.864
    14   6 C        2.927     0.064    26.568     8.453
    15   6 C        2.923    -0.051    29.275     8.873
    16   6 C        2.914    -0.034    28.858     8.809
    17   6 C        3.034    -0.008    28.183     8.708
    18   6 C        3.057     0.001    27.938     8.668
    19   6 C        2.917    -0.054    29.335     8.882
    20   6 C        3.979     0.012    20.296     6.401
    21   6 C        3.057     0.012    27.686     8.629
    22   6 C        2.921    -0.023    28.587     8.768
    23   6 C        2.977     0.019    27.589     8.616
    24   6 C        1.913     0.112    28.324     8.595
    25   7 N        0.911    -0.232    26.091     7.388
    26   6 C        2.929    -0.023    28.582     8.768
    27   6 C        2.913    -0.030    28.740     8.791
    28   6 C        3.037     0.007    27.819     8.651
    29   6 C        3.037     0.008    27.810     8.650
    30   6 C        2.913    -0.029    28.735     8.790
    31   6 C        2.929    -0.023    28.577     8.767
    32   6 C        2.977     0.019    27.588     8.616
    33   6 C        1.913     0.113    28.321     8.594
    34   7 N        0.911    -0.234    26.123     7.392
    35   6 C        2.921    -0.023    28.569     8.765
    36   6 C        3.059     0.012    27.679     8.628
    37   6 C        3.057     0.001    27.938     8.668
    38   6 C        2.917    -0.054    29.335     8.882
    39   6 C        2.927     0.064    26.568     8.453
    40   7 N        2.752    -0.073    22.664     7.071
    41   6 C        2.924     0.060    26.665     8.468
    42   6 C        2.921    -0.049    29.207     8.862
    43   6 C        2.925    -0.039    28.980     8.828
    44   6 C        2.965     0.011    27.778     8.645
    45   6 C        3.757    -0.109    22.629     6.782
    46   6 C        2.925    -0.040    28.984     8.829
    47   6 C        2.921    -0.049    29.208     8.863
    48   6 C        2.925     0.060    26.658     8.467
    49   6 C        2.921    -0.049    29.214     8.864
    50   6 C        2.925    -0.040    28.990     8.830
    51   6 C        2.965     0.010    27.790     8.647
    52   6 C        3.757    -0.108    22.624     6.781
    53   6 C        2.924    -0.040    28.987     8.829
    54   6 C        2.921    -0.049    29.210     8.863
    55   6 C        2.923    -0.051    29.275     8.873
    56   6 C        2.914    -0.034    28.858     8.809
    57   6 C        3.034    -0.008    28.183     8.708
    58   6 C        2.921    -0.049    29.204     8.862
    59   6 C        2.925    -0.039    28.981     8.828
    60   1 H        0.925     0.042     2.419     2.432
    61   1 H        0.924     0.047     2.361     2.403
    62   1 H        0.925     0.043     2.408     2.427
    63   1 H        0.926     0.033     2.550     2.497
    64   1 H        0.926     0.031     2.574     2.509
    65   1 H        0.926     0.028     2.608     2.526
    66   1 H        0.926     0.031     2.576     2.510
    67   1 H        0.924     0.045     2.382     2.414
    68   1 H        0.925     0.043     2.411     2.428
    69   1 H        0.925     0.044     2.401     2.423
    70   1 H        0.926     0.032     2.558     2.501
    71   1 H        0.926     0.032     2.558     2.501
    72   1 H        0.926     0.035     2.511     2.478
    73   1 H        0.926     0.035     2.510     2.478
    74   1 H        0.926     0.026     2.644     2.543
    75   1 H        0.926     0.043     2.414     2.429
    76   1 H        0.926     0.044     2.396     2.420
    77   1 H        0.926     0.041     2.438     2.442
    78   1 H        0.926     0.041     2.441     2.443
    79   1 H        0.926     0.044     2.401     2.423
    80   1 H        0.926     0.041     2.432     2.439
    81   1 H        0.926     0.026     2.645     2.543
    82   1 H        0.926     0.032     2.561     2.502
    83   1 H        0.926     0.032     2.561     2.502
    84   1 H        0.925     0.042     2.421     2.433
    85   1 H        0.925     0.043     2.405     2.425
    86   1 H        0.924     0.047     2.362     2.404
    87   1 H        0.926     0.033     2.551     2.498
    88   1 H        0.926     0.031     2.574     2.509
    89   1 H        0.926     0.032     2.556     2.500
    90   1 H        0.926     0.032     2.556     2.500
    91   1 H        0.924     0.045     2.383     2.414
    92   1 H        0.925     0.044     2.397     2.421
    93   1 H        0.925     0.043     2.413     2.429
    94   1 H        0.926     0.031     2.576     2.510
    95   1 H        0.926     0.028     2.610     2.526
    96   1 H        0.926     0.035     2.511     2.478
    97   1 H        0.926     0.035     2.510     2.478
    98   1 H        0.926     0.032     2.560     2.502
    99   1 H        0.926     0.032     2.560     2.502

molecular dipole:
                 x           y           z       tot (Debye)
 q only:       -0.016       0.120       0.076
   full:       -0.025       0.329       0.216       1.002

 projected vibrational frequencies (cm⁻¹)
eigval :       -0.00    -0.00    -0.00     0.00     0.00     0.00
eigval :      -10.67    -9.99     7.77     8.18     8.74     9.50
eigval :       10.97    12.05    18.61    19.62    29.24    33.87
eigval :       35.87    41.02    45.95    46.92    47.85    50.61
eigval :       68.84    75.04    78.58    84.48    90.14    95.95
eigval :      124.46   132.73   134.42   135.03   146.95   152.00
eigval :      155.20   155.55   175.53   199.05   201.52   212.63
eigval :      232.23   243.70   256.40   259.38   272.57   281.91
eigval :      292.23   293.10   295.39   300.94   318.31   328.57
eigval :      338.03   344.33   347.88   361.54   371.14   372.81
eigval :      376.74   378.43   382.33   382.77   384.71   385.25
eigval :      408.49   415.14   424.45   429.69   432.50   442.33
eigval :      455.43   466.23   474.00   480.62   481.59   487.57
eigval :      490.08   512.48   514.15   521.30   542.57   544.19
eigval :      550.08   556.81   571.47   577.42   594.35   599.97
eigval :      606.68   611.66   612.10   612.34   615.96   616.39
eigval :      631.69   632.37   657.90   663.25   663.78   665.66
eigval :      668.67   674.11   690.61   697.78   704.80   730.82
eigval :      735.76   756.27   760.69   792.28   794.52   801.74
eigval :      805.42   806.72   807.57   817.22   825.06   825.99
eigval :      832.74   832.95   835.14   867.39   871.82   871.91
eigval :      872.82   872.94   877.35   881.26   883.39   883.60
eigval :      891.44   910.55   911.64   912.86   913.18   914.94
eigval :      915.12   916.46   916.63   926.97   927.00   928.36
eigval :      928.44   935.12   935.18   953.66   979.23   993.51
eigval :      996.64  1008.74  1008.81  1009.13  1009.20  1013.57
eigval :     1013.76  1024.79  1028.16  1030.44  1032.75  1033.09
eigval :     1033.22  1033.29  1037.07  1074.42  1142.25  1144.50
eigval :     1144.66  1145.89  1146.16  1146.96  1154.63  1156.16
eigval :     1159.80  1165.55  1174.66  1191.21  1196.66  1198.28
eigval :     1198.29  1203.40  1211.86  1221.93  1224.50  1226.70
eigval :     1236.41  1237.59  1239.06  1253.42  1258.93  1259.59
eigval :     1260.10  1274.44  1275.73  1279.03  1279.52  1284.53
eigval :     1297.39  1318.11  1320.69  1322.96  1325.02  1328.06
eigval :     1328.41  1331.47  1331.77  1334.53  1334.89  1357.72
eigval :     1379.14  1405.13  1405.14  1405.41  1405.43  1412.25
eigval :     1413.12  1414.84  1420.09  1422.29  1430.73  1433.33
eigval :     1436.69  1446.54  1449.51  1461.65  1474.25  1482.63
eigval :     1482.88  1483.00  1483.08  1484.84  1484.91  1485.35
eigval :     1485.54  1493.85  1495.20  1495.23  1495.82  1560.16
eigval :     1561.36  1569.77  1571.79  1574.75  1575.67  1575.73
eigval :     1582.48  1588.69  1595.79  1599.65  1606.14  1607.45
eigval :     1607.55  1609.47  1610.69  2371.69  2373.47  2991.82
eigval :     2992.62  2992.95  2993.27  3031.59  3033.41  3033.57
eigval :     3035.29  3038.25  3039.97  3040.37  3041.64  3070.80
eigval :     3070.96  3072.90  3072.91  3073.96  3073.98  3074.83
eigval :     3074.97  3081.02  3081.29  3083.08  3084.63  3084.99
eigval :     3085.42  3085.55  3086.50  3086.66  3086.79  3088.07
eigval :     3088.08  3089.29  3089.33  3089.63  3091.94  3094.62
eigval :     3095.47  3096.23  3097.24

   temp. (K)  partition function   enthalpy   heat capacity  entropy
                                   cal/mol     cal/K/mol   cal/K/mol   J/K/mol
 298.15  VIB  0.241E+30            31046.597    179.691    202.190
         ROT  0.141E+09              888.752      2.981     40.267
         INT  0.339E+38            31935.349    182.672    242.457
         TR   0.201E+29             1481.254      4.968     45.731
         TOT                       33416.6032   187.6401   288.1878  1205.7776

       T/K    H(0)-H(T)+PV         H(T)/Eh          T*S/Eh         G(T)/Eh
   ------------------------------------------------------------------------
    298.15    0.532527E-01    0.820665E+00    0.136927E+00    0.683738E+00
   ------------------------------------------------------------------------

         :::::::::::::::::::::::::::::::::::::::::::::::::::::
         ::                  THERMODYNAMIC                  ::
         :::::::::::::::::::::::::::::::::::::::::::::::::::::
         :: total free energy        -149.191431448666 Eh   ::
         ::.................................................::
         :: total energy             -149.875169290727 Eh   ::
         :: zero point energy           0.767412402568 Eh   ::
         :: G(RRHO) w/o ZPVE           -0.083674560507 Eh   ::
         :: G(RRHO) contrib.            0.683737842061 Eh   ::
         :::::::::::::::::::::::::::::::::::::::::::::::::::::

           -------------------------------------------------
          | TOTAL ENERGY             -149.875169290727 Eh   |
          | TOTAL ENTHALPY           -149.054504141237 Eh   |
          | TOTAL FREE ENERGY        -149.191431448666 Eh   |
          | GRADIENT NORM               0.000054296530 Eh/α |
          | HOMO-LUMO GAP               1.212179791578 eV   |
           -------------------------------------------------

 * finished run on 2025/09/12 at 22:43:46.456
