   * xtb version 6.7.1 (edcfbbe) compiled by 'albert@albert-system' on 2024-07-22

   ID    Z sym.   atoms
    1    6 C      1-5, 7-24, 26-33, 35-39, 41-59
    2    7 N      6, 25, 34, 40
    3    1 H      60-99

          program call               : xtb data2507/gas/Spiro-CN/Spiro-CN_gas_S0_crest.xyz --gfn 2 --ohess vtight --parallel 40 --molden --ceasefiles --namespace data2507/gas/Spiro-CN/Spiro-CN_gas_S0_finalOpt
          :  Hamiltonian                  GFN2-xTB          :
 * total energy  :  -149.8759607 Eh     change       -0.2012712E-08 Eh
 * total energy  :  -149.8759607 Eh     change        0.2019897E-07 Eh
 * total energy  :  -149.8759633 Eh     change       -0.2566684E-05 Eh
 * total energy  :  -149.8759643 Eh     change       -0.1035928E-05 Eh
 * total energy  :  -149.8759655 Eh     change       -0.1214057E-05 Eh
 * total energy  :  -149.8759665 Eh     change       -0.1013665E-05 Eh
 * total energy  :  -149.8759677 Eh     change       -0.1127870E-05 Eh
 * total energy  :  -149.8759694 Eh     change       -0.1723379E-05 Eh
 * total energy  :  -149.8759707 Eh     change       -0.1327124E-05 Eh
 * total energy  :  -149.8759715 Eh     change       -0.7550954E-06 Eh
 * total energy  :  -149.8759781 Eh     change       -0.3137870E-08 Eh
 * total energy  :  -149.8759782 Eh     change       -0.1466324E-06 Eh
 * total energy  :  -149.8759787 Eh     change       -0.4561579E-06 Eh
 * total energy  :  -149.8759789 Eh     change       -0.2508145E-06 Eh
 * total energy  :  -149.8759791 Eh     change       -0.1628214E-06 Eh
 * total energy  :  -149.8759793 Eh     change       -0.2016085E-06 Eh
 * total energy  :  -149.8759795 Eh     change       -0.1860285E-06 Eh
 * total energy  :  -149.8759796 Eh     change       -0.1441103E-06 Eh
 * total energy  :  -149.8759797 Eh     change       -0.9680920E-07 Eh
   *** GEOMETRY OPTIMIZATION CONVERGED AFTER 30 ITERATIONS ***

 final structure:
================
99
 xtb: 6.7.1 (edcfbbe)
C           -8.66026752868774       -4.06481252561877        2.93767769012801
C           -7.63619212661630       -3.25215439129124        2.20538868205744
C           -7.92704457291093       -2.68766857886904        0.96886397161935
C           -6.99622921911051       -1.92421185609719        0.29376136213892
C           -5.73884646729665       -1.69457406734577        0.84986043844962
N           -4.78914939230521       -0.91751521150712        0.17916610496566
C           -5.18791825997901        0.16773216519137       -0.61609722268557
C           -4.54899683695418        0.42603838419179       -1.82796537520938
C           -4.92057293088314        1.50865223552185       -2.60017404309457
C           -5.94580273848954        2.35523627686554       -2.19880165407547
C           -6.36237942084410        3.52472863505607       -3.03771708913119
C           -6.58962802369352        2.08463541317862       -0.99569973607006
C           -6.21845609667652        1.01291014439479       -0.20895257054515
C           -3.43365240161388       -1.23780884179994        0.23233668219077
C           -2.99892001197600       -2.56637295083546        0.22451897359311
C           -1.65401754758842       -2.87957603831580        0.16238096763835
C           -0.72168534594273       -1.85438667169859        0.09675759551272
C           -1.16021415095224       -0.52241350423654        0.16079642090970
C           -2.49094812644210       -0.20262637916841        0.23496745924466
C            0.00017074851883        0.43291992364125        0.00159563859358
C            0.27773621489976        1.38751621802486        1.13357613710647
C            0.67357404132607        1.08870197753183        2.41589268700231
C            0.99292916803836        2.14955113380535        3.26939789067268
C            1.45288808068072        1.87871291140097        4.57740990877364
N            1.84576634028675        1.66449558266645        5.63328042706033
C            0.89802052303906        3.47652095999523        2.83875769883584
C            0.49443423995778        3.76740612745298        1.55001290684910
C            0.19606650531625        2.71887165513522        0.69146032033029
C           -0.19024684827404        2.71342916410327       -0.70737199037695
C           -0.48587099954691        3.75544031995975       -1.57475502247391
C           -0.88979917111066        3.45474475752765       -2.86114645971337
C           -0.98774980671986        2.12445012074146       -3.28065728148542
C           -1.44748245578184        1.84348796579097       -4.58661539243178
N           -1.83959577088034        1.62102165003724       -5.64104468097518
C           -0.67129964038393        1.07001608661415       -2.41815244079325
C           -0.27512226940027        1.37856984744127       -1.13826233652899
C            1.15911282465228       -0.52576959562758       -0.14799922003681
C            2.48998875137547       -0.20845539148627       -0.22976535973983
C            3.43155851411201       -1.24459129713981       -0.21616179472835
N            4.78765615966172       -0.92570999706525       -0.17354649470938
C            5.19221587460932        0.17188881621172        0.60152898586376
C            6.22289744777654        1.00760064512966        0.17552387284787
C            6.60022395079302        2.09145883811702        0.94238248534767
C            5.96259573758590        2.38383224865482        2.14373706341827
C            6.38465393769525        3.56776720747584        2.95936470180964
C            4.93714702015571        1.54673472900118        2.56386301636202
C            4.55943432928934        0.45213511814888        1.81170928066572
C            5.73300430104184       -1.71518492816408       -0.83606019787795
C            5.43015621034982       -2.29151686525428       -2.06927435253142
C            6.36219817376154       -3.07284721136750       -2.72084121108010
C            7.62144127342136       -3.29717204954730       -2.17552654338209
C            8.63223035417996       -4.12757807134442       -2.90639413745441
C            7.91848890227853       -2.71565558326298       -0.94956437836526
C            6.99150269110547       -1.93965975438693       -0.28193016988239
C            2.99529309712051       -2.57242394802512       -0.18838257184243
C            1.65022791518165       -2.88327469189705       -0.11886528752238
C            0.71913976328755       -1.85625487255402       -0.06559204714437
C           -5.44248790857259       -2.25345273887518        2.09198668219969
C           -6.37941122624547       -3.02324798350445        2.75187744073108
H           -9.30409753441974       -3.41163283560192        3.52824102338600
H           -8.18456193195970       -4.77026510795372        3.61487453941802
H           -9.28981749743080       -4.61353178341845        2.24058387742688
H           -8.89622683701669       -2.85716775159273        0.52177657336875
H           -7.23537135943164       -1.50463406983514       -0.67237758859617
H           -3.75819934053682       -0.22858299213355       -2.16435521770690
H           -4.41048078662494        1.68840885794307       -3.53619742958813
H           -7.37347881118895        3.37694181562999       -3.41662857085888
H           -6.36019354427319        4.44020102019102       -2.44753206329858
H           -5.69296317952317        3.65152748014791       -3.88469736818240
H           -7.38993920958331        2.73177024166253       -0.66577968017214
H           -6.72182928555668        0.82434499545213        0.72808750501085
H           -3.73551083460740       -3.35615151071163        0.23324355736146
H           -1.33994484211067       -3.91179321401820        0.12720797585800
H           -2.81807241718190        0.82678519265716        0.26364257450495
H            0.75325846402334        0.06702498547685        2.75727960669786
H            1.15430029639157        4.27099903907025        3.52416375864073
H            0.43184370102854        4.79168181314908        1.21513097188077
H           -0.42090091759356        4.78232504378328       -1.24842143684278
H           -1.14387154126840        4.24410021982778       -3.55326125128968
H           -0.75331236143159        0.04573588944184       -2.75105115245070
H            2.81801898761979        0.82013743865293       -0.27342386495297
H            6.72164003570218        0.80197326971871       -0.76039899312040
H            7.40059105688773        2.73096431361666        0.59804768211620
H            7.41082084489953        3.44352417495864        3.30429639337844
H            6.34378861068813        4.47805305803551        2.36231810557521
H            5.74152670251301        3.68908617603153        3.82723320978423
H            4.43172544355856        1.74334219258621        3.49904133977392
H            3.76866409955226       -0.19478573231918        2.16275829135321
H            4.46011259996061       -2.11924930375594       -2.51254664375763
H            6.11085396661034       -3.51141301581701       -3.67606217122418
H            9.09327888153910       -3.54244253782413       -3.70300036028642
H            9.41788688656118       -4.46409265285661       -2.23438671708356
H            8.16134921154618       -4.99657953700862       -3.36169047916294
H            8.88868347513883       -2.87984041113707       -0.50270170920517
H            7.23590882813413       -1.50626880277497        0.67675884353782
H            3.73097827945629       -3.36309202933929       -0.18801296849546
H            1.33511362028417       -3.91456406643769       -0.06891807714767
H           -4.47369492949898       -2.07764048084486        2.53658512221326
H           -6.13123607077737       -3.44791067437663        3.71417781111012

          :  Hamiltonian                  GFN2-xTB          :
         :: gradient norm              0.000095165044 Eh/a0 ::
         :: HOMO-LUMO gap              1.207270419348 eV    ::
         :: SCC energy              -152.742456492947 Eh    ::
         :: -> dispersion             -0.144412975748 Eh    ::
         :: repulsion energy           2.866476759949 Eh    ::

    * Orbital Energies and Occupations

         #    Occupation            Energy/Eh            Energy/eV
      -------------------------------------------------------------
         1        2.0000           -0.6837231             -18.6051
       ...           ...                  ...                  ...
       128        2.0000           -0.4127427             -11.2313
       129        2.0000           -0.4122784             -11.2187
       130        2.0000           -0.4068039             -11.0697
       131        2.0000           -0.4058851             -11.0447
       132        2.0000           -0.4037824             -10.9875
       133        2.0000           -0.4035657             -10.9816
       134        2.0000           -0.4029681             -10.9653
       135        2.0000           -0.4028924             -10.9633
       136        2.0000           -0.3963150             -10.7843
       137        2.0000           -0.3961716             -10.7804
       138        2.0000           -0.3909233             -10.6376
       139        2.0000           -0.3519471              -9.5770
       140        2.0000           -0.3419732              -9.3056 (HOMO)
       141                         -0.2976069              -8.0983 (LUMO)
       142                         -0.2586174              -7.0373
       143                         -0.2570295              -6.9941
       144                         -0.2503600              -6.8126
       145                         -0.2462706              -6.7014
       146                         -0.2328983              -6.3375
       147                         -0.2280867              -6.2066
       148                         -0.2267938              -6.1714
       149                         -0.2266990              -6.1688
       150                         -0.2228752              -6.0647
       151                         -0.2219517              -6.0396
       ...                                ...                  ...
       276                          1.1672490              31.7625
      -------------------------------------------------------------
                  HL-Gap            0.0443663 Eh            1.2073 eV

     #   Z          covCN         q      C6AA      α(0)
     1   6 C        3.757    -0.108    22.624     6.781
     2   6 C        2.965     0.010    27.800     8.648
     3   6 C        2.925    -0.040    28.983     8.829
     4   6 C        2.921    -0.050    29.231     8.866
     5   6 C        2.922     0.060    26.664     8.468
     6   7 N        2.753    -0.074    22.676     7.072
     7   6 C        2.926     0.060    26.660     8.468
     8   6 C        2.922    -0.048    29.199     8.861
     9   6 C        2.924    -0.039    28.980     8.828
    10   6 C        2.966     0.011    27.778     8.645
    11   6 C        3.757    -0.109    22.628     6.782
    12   6 C        2.925    -0.040    28.998     8.831
    13   6 C        2.920    -0.049    29.207     8.862
    14   6 C        2.929     0.064    26.561     8.452
    15   6 C        2.922    -0.050    29.252     8.869
    16   6 C        2.914    -0.034    28.854     8.808
    17   6 C        3.034    -0.007    28.173     8.706
    18   6 C        3.061     0.002    27.932     8.667
    19   6 C        2.918    -0.053    29.312     8.878
    20   6 C        3.977     0.012    20.297     6.401
    21   6 C        3.060     0.012    27.684     8.628
    22   6 C        2.921    -0.022    28.558     8.763
    23   6 C        2.977     0.019    27.581     8.615
    24   6 C        1.913     0.113    28.301     8.591
    25   7 N        0.911    -0.235    26.142     7.395
    26   6 C        2.929    -0.023    28.573     8.766
    27   6 C        2.913    -0.029    28.735     8.790
    28   6 C        3.037     0.008    27.812     8.650
    29   6 C        3.037     0.008    27.812     8.650
    30   6 C        2.913    -0.029    28.735     8.790
    31   6 C        2.929    -0.023    28.573     8.766
    32   6 C        2.977     0.019    27.582     8.615
    33   6 C        1.913     0.114    28.299     8.591
    34   7 N        0.911    -0.235    26.144     7.395
    35   6 C        2.921    -0.022    28.557     8.763
    36   6 C        3.060     0.012    27.685     8.629
    37   6 C        3.061     0.002    27.932     8.667
    38   6 C        2.918    -0.053    29.314     8.878
    39   6 C        2.929     0.064    26.561     8.452
    40   7 N        2.753    -0.074    22.674     7.072
    41   6 C        2.926     0.060    26.660     8.468
    42   6 C        2.920    -0.049    29.207     8.862
    43   6 C        2.925    -0.040    28.998     8.831
    44   6 C        2.966     0.011    27.779     8.645
    45   6 C        3.757    -0.109    22.628     6.782
    46   6 C        2.924    -0.039    28.979     8.828
    47   6 C        2.922    -0.048    29.199     8.861
    48   6 C        2.922     0.060    26.664     8.468
    49   6 C        2.921    -0.050    29.238     8.867
    50   6 C        2.925    -0.040    28.989     8.830
    51   6 C        2.965     0.010    27.799     8.648
    52   6 C        3.757    -0.108    22.624     6.781
    53   6 C        2.925    -0.039    28.978     8.828
    54   6 C        2.921    -0.050    29.233     8.866
    55   6 C        2.922    -0.050    29.253     8.870
    56   6 C        2.914    -0.034    28.854     8.808
    57   6 C        3.034    -0.008    28.173     8.706
    58   6 C        2.921    -0.050    29.242     8.868
    59   6 C        2.925    -0.040    28.984     8.829
    60   1 H        0.924     0.046     2.370     2.408
    61   1 H        0.925     0.042     2.424     2.435
    62   1 H        0.925     0.043     2.415     2.430
    63   1 H        0.926     0.031     2.565     2.505
    64   1 H        0.926     0.032     2.564     2.504
    65   1 H        0.926     0.027     2.633     2.538
    66   1 H        0.926     0.032     2.558     2.501
    67   1 H        0.925     0.047     2.353     2.399
    68   1 H        0.925     0.043     2.404     2.424
    69   1 H        0.925     0.043     2.415     2.430
    70   1 H        0.926     0.033     2.551     2.498
    71   1 H        0.926     0.033     2.550     2.497
    72   1 H        0.926     0.036     2.498     2.471
    73   1 H        0.926     0.036     2.502     2.474
    74   1 H        0.926     0.026     2.648     2.545
    75   1 H        0.926     0.041     2.429     2.437
    76   1 H        0.926     0.044     2.398     2.421
    77   1 H        0.926     0.041     2.435     2.440
    78   1 H        0.926     0.041     2.435     2.440
    79   1 H        0.926     0.044     2.398     2.422
    80   1 H        0.926     0.041     2.429     2.437
    81   1 H        0.926     0.026     2.648     2.545
    82   1 H        0.926     0.033     2.550     2.497
    83   1 H        0.926     0.033     2.550     2.497
    84   1 H        0.925     0.047     2.356     2.400
    85   1 H        0.925     0.044     2.402     2.423
    86   1 H        0.925     0.043     2.415     2.430
    87   1 H        0.926     0.032     2.560     2.502
    88   1 H        0.926     0.027     2.633     2.537
    89   1 H        0.926     0.030     2.589     2.516
    90   1 H        0.926     0.032     2.562     2.503
    91   1 H        0.924     0.046     2.372     2.408
    92   1 H        0.925     0.041     2.432     2.439
    93   1 H        0.925     0.043     2.405     2.425
    94   1 H        0.926     0.031     2.570     2.507
    95   1 H        0.926     0.032     2.564     2.504
    96   1 H        0.926     0.036     2.498     2.472
    97   1 H        0.926     0.036     2.502     2.474
    98   1 H        0.926     0.030     2.589     2.516
    99   1 H        0.926     0.031     2.568     2.506

molecular dipole:
                 x           y           z       tot (Debye)
 q only:       -0.004       0.261      -0.013
   full:       -0.010       0.497      -0.019       1.264

 projected vibrational frequencies (cm⁻¹)
eigval :       -0.00    -0.00    -0.00    -0.00     0.00     0.00
eigval :       -5.15     9.14     9.48    11.55    12.39    15.29
eigval :       18.40    18.84    22.85    24.23    30.34    36.03
eigval :       38.27    39.82    43.33    49.19    50.59    51.35
eigval :       68.88    77.44    80.25    84.45    90.01    94.79
eigval :      125.19   126.02   135.93   137.26   147.29   149.96
eigval :      155.13   156.70   176.11   199.24   199.97   219.60
eigval :      232.52   243.80   258.33   260.37   272.35   281.01
eigval :      290.58   291.43   298.00   301.76   318.01   327.33
eigval :      337.20   345.17   351.22   360.68   371.69   372.83
eigval :      375.33   380.11   382.21   384.86   385.14   386.46
eigval :      404.80   416.58   422.23   430.31   435.88   442.51
eigval :      455.94   468.70   472.43   481.79   482.87   486.25
eigval :      487.41   506.33   519.75   530.00   532.77   543.65
eigval :      548.33   561.59   570.92   577.97   595.23   599.33
eigval :      606.66   611.55   611.80   612.46   616.42   617.35
eigval :      630.78   633.72   658.88   662.19   662.36   666.48
eigval :      668.11   674.88   690.78   697.59   705.37   729.71
eigval :      737.23   755.31   760.92   795.98   796.66   800.69
eigval :      803.65   804.13   807.86   817.82   824.89   826.52
eigval :      832.45   833.43   834.94   867.40   871.54   871.61
eigval :      873.65   873.80   877.98   882.34   883.21   883.29
eigval :      891.24   910.22   911.54   912.50   912.86   914.89
eigval :      915.38   917.29   917.39   926.90   927.03   929.47
eigval :      929.55   935.05   935.29   953.57   978.92   994.00
eigval :      997.05  1008.72  1008.86  1009.31  1009.61  1009.83
eigval :     1015.94  1024.80  1028.43  1030.70  1033.02  1033.20
eigval :     1033.26  1033.33  1037.87  1074.20  1141.43  1143.25
eigval :     1144.90  1145.02  1146.05  1146.13  1154.43  1155.71
eigval :     1159.90  1166.28  1175.25  1191.04  1197.25  1198.66
eigval :     1198.77  1204.06  1211.92  1222.49  1223.89  1226.89
eigval :     1236.42  1238.05  1239.58  1253.16  1258.34  1258.54
eigval :     1261.39  1274.28  1275.99  1278.96  1279.77  1283.89
eigval :     1297.64  1318.26  1320.49  1321.11  1325.65  1327.44
eigval :     1328.54  1330.27  1334.07  1335.43  1337.78  1358.25
eigval :     1378.94  1405.20  1405.26  1405.39  1405.44  1412.32
eigval :     1413.15  1414.43  1420.47  1422.74  1429.89  1432.24
eigval :     1437.07  1445.77  1448.31  1462.19  1472.79  1481.46
eigval :     1481.50  1482.88  1483.59  1485.41  1485.74  1485.88
eigval :     1486.26  1493.77  1494.77  1495.84  1496.65  1560.42
eigval :     1560.82  1569.56  1571.54  1574.79  1575.61  1575.66
eigval :     1581.84  1588.21  1595.15  1599.41  1605.96  1607.48
eigval :     1607.53  1609.85  1610.83  2371.57  2373.36  2992.35
eigval :     2994.54  3002.68  3003.29  3016.85  3017.71  3029.05
eigval :     3033.76  3039.00  3041.89  3046.03  3046.30  3071.04
eigval :     3071.25  3072.22  3072.33  3073.49  3073.54  3074.35
eigval :     3074.56  3080.97  3081.24  3082.94  3084.73  3084.96
eigval :     3085.89  3085.91  3086.41  3086.50  3086.70  3087.81
eigval :     3087.82  3089.52  3089.53  3090.11  3090.42  3094.35
eigval :     3095.74  3095.92  3097.50

   temp. (K)  partition function   enthalpy   heat capacity  entropy
                                   cal/mol     cal/K/mol   cal/K/mol   J/K/mol
 298.15  VIB  0.303E+29            30979.900    179.900    200.310
         ROT  0.139E+09              888.752      2.981     40.235
         INT  0.419E+37            31868.653    182.881    240.546
         TR   0.201E+29             1481.254      4.968     45.731
         TOT                       33349.9066   187.8494   286.2764  1197.7803

       T/K    H(0)-H(T)+PV         H(T)/Eh          T*S/Eh         G(T)/Eh
   ------------------------------------------------------------------------
    298.15    0.531465E-01    0.820686E+00    0.136019E+00    0.684666E+00
   ------------------------------------------------------------------------

         :::::::::::::::::::::::::::::::::::::::::::::::::::::
         ::                  THERMODYNAMIC                  ::
         :::::::::::::::::::::::::::::::::::::::::::::::::::::
         :: total free energy        -149.191313252886 Eh   ::
         ::.................................................::
         :: total energy             -149.875979732996 Eh   ::
         :: zero point energy           0.767539162841 Eh   ::
         :: G(RRHO) w/o ZPVE           -0.082872682731 Eh   ::
         :: G(RRHO) contrib.            0.684666480110 Eh   ::
         :::::::::::::::::::::::::::::::::::::::::::::::::::::

           -------------------------------------------------
          | TOTAL ENERGY             -149.875979732996 Eh   |
          | TOTAL ENTHALPY           -149.055294111070 Eh   |
          | TOTAL FREE ENERGY        -149.191313252886 Eh   |
          | GRADIENT NORM               0.000094969911 Eh/α |
          | HOMO-LUMO GAP               1.207269724814 eV   |
           -------------------------------------------------

 * finished run on 2025/09/12 at 22:58:45.450
