   * xtb version 6.7.1 (edcfbbe) compiled by 'albert@albert-system' on 2024-07-22

   ID    Z sym.   atoms
    1    6 C      1-4, 6-20, 22-35, 37-64
    2    7 N      5, 21, 36
    3    1 H      65-103

          program call               : xtb data2507/toluene/TPAPyPI/TPAPyPI.xyz --gfn 2 --gbsa toluene --ohess vtight --parallel 40 --molden --ceasefiles --namespace data2507/toluene/TPAPyPI/TPAPyPI_toluene_S0_preOpt
      * Solvation model:               GBSA
        Solvent                        toluene
        Solvent mass                       9.2140E+01 g/mol
          :  Hamiltonian                  GFN2-xTB          :
 * total energy  :  -159.4071781 Eh     change       -0.2517595E-08 Eh
 * total energy  :  -159.4250107 Eh     change       -0.1783254E-01 Eh
 * total energy  :  -159.4308088 Eh     change       -0.5798126E-02 Eh
 * total energy  :  -159.4325385 Eh     change       -0.1729692E-02 Eh
 * total energy  :  -159.4336258 Eh     change       -0.1087327E-02 Eh
 * total energy  :  -159.4341586 Eh     change       -0.5328267E-03 Eh
 * total energy  :  -159.4345060 Eh     change       -0.3473433E-03 Eh
 * total energy  :  -159.4347520 Eh     change       -0.2460463E-03 Eh
 * total energy  :  -159.4349336 Eh     change       -0.1815656E-03 Eh
 * total energy  :  -159.4350837 Eh     change       -0.1501048E-03 Eh
 * total energy  :  -159.4401589 Eh     change       -0.4874565E-06 Eh
 * total energy  :  -159.4401594 Eh     change       -0.4641719E-06 Eh
 * total energy  :  -159.4401599 Eh     change       -0.5033228E-06 Eh
 * total energy  :  -159.4401604 Eh     change       -0.5172003E-06 Eh
 * total energy  :  -159.4401609 Eh     change       -0.4961844E-06 Eh
 * total energy  :  -159.4401613 Eh     change       -0.4117140E-06 Eh
 * total energy  :  -159.4401618 Eh     change       -0.4490984E-06 Eh
 * total energy  :  -159.4401622 Eh     change       -0.4526260E-06 Eh
 * total energy  :  -159.4401622 Eh     change       -0.2679627E-08 Eh
   *** GEOMETRY OPTIMIZATION CONVERGED AFTER 152 ITERATIONS ***

 final structure:
================
103
 xtb: 6.7.1 (edcfbbe)
C           11.34146927184875       -1.15177024618988        1.56388434678300
C           10.36833004011811       -1.79588237837975        0.81668464633443
C            9.29933941275851       -1.08871308437345        0.30055190928210
C            9.18393925560437        0.28142174832338        0.53532977957275
N            8.10052234119165        1.00445647875839        0.01743523598147
C            8.30537236463114        2.30012007376654       -0.47548233866973
C            7.35335390694062        3.29792917919539       -0.26581036790673
C            7.56053619602421        4.57250643260039       -0.75748640911254
C            8.71943048206026        4.87720162611385       -1.45336985822966
C            9.67090574551864        3.89118809876260       -1.65974520773727
C            9.46798210929242        2.61109591106417       -1.18080730606608
C            6.82540072812818        0.43607552080858       -0.00729846149273
C            6.40578805873111       -0.41833341770394        1.01430708602726
C            5.14998606355863       -0.98595789829190        0.98152294992954
C            4.26007591005003       -0.70841524753324       -0.05597900012990
C            2.92173714476736       -1.30998408127180       -0.08134679781206
C            1.80938374408996       -0.56645876319428       -0.47337229704144
C            0.54764640113092       -1.12528278642169       -0.48698628112999
C            0.36026490352105       -2.45396061256264       -0.10939155711500
C           -0.94180669913937       -3.10068989967238       -0.11603281113904
N           -1.11818464987518       -4.35202330167985       -0.46591028558042
C           -2.45310693043391       -4.58596629374710       -0.35403812100179
C           -3.15247020043702       -5.79036374577367       -0.64575229663224
C           -2.48130265801488       -6.92287845996828       -1.12063510221478
C           -3.17601531186718       -8.06941090994515       -1.41541630370917
C           -4.55843765604627       -8.09542681215475       -1.23909863813959
C           -5.22804368145789       -6.98942302822768       -0.76972316702504
C           -4.55304714558733       -5.80011521853858       -0.45199391453875
C           -5.22790654641203       -4.62437047439068        0.07135376323999
C           -6.60762841228315       -4.62147149915709        0.32458553290752
C           -7.25191967423631       -3.52812077552394        0.85368329839009
C           -6.53174449479565       -2.38080816582803        1.17168680828143
C           -5.17989718412066       -2.34099799576360        0.93456988976594
C           -4.50721319266496       -3.43412832336172        0.36864091756622
C           -3.10981165298994       -3.44080525600571        0.09351452417021
N           -2.12428140709260       -2.48729450955658        0.23092801884609
C           -2.23701348662159       -1.15742079178747        0.69147212939869
C           -1.61448667052034       -0.79006671603764        1.87808350976060
C           -1.70860374298712        0.51922041662065        2.31757095453844
C           -2.42971280233981        1.45032183075704        1.59281054988914
C           -3.06178971254282        1.08802109693501        0.40405076605203
C           -3.81929434896734        2.07805025092389       -0.38339678545762
C           -3.43236212857387        2.33013424430538       -1.69587173713170
C           -4.06960291467730        3.28443234489684       -2.46176745084456
C           -5.13299888449606        4.02240972295186       -1.93927427839406
C           -5.79983487536303        5.02987850214457       -2.69662988014909
C           -6.83215981297078        5.73225144131097       -2.17556247144002
C           -7.29780265511243        5.48575645727601       -0.84996936937253
C           -8.36333230282695        6.19595095866616       -0.29360060104627
C           -8.79727723927975        5.92830147732252        0.99224730747311
C           -8.18349889154216        4.94895279002673        1.75174407749296
C           -7.11098514331839        4.21769372395639        1.23799953920122
C           -6.45957756385621        3.19405176341905        1.98606319654554
C           -5.41127457071368        2.50656362745996        1.47659547343637
C           -4.90912357865545        2.77492317130276        0.16743791292612
C           -5.56533050570360        3.75911133640772       -0.61545566790923
C           -6.65594196676286        4.48607635579541       -0.07653397401181
C           -2.94409729301405       -0.21962782976829       -0.05202488154157
C            1.47475590322122       -3.21022044163305        0.25680814884989
C            2.73171625356070       -2.64503809043188        0.27778331727016
C            4.68008709732317        0.15419184555601       -1.06828343046995
C            5.94193796180610        0.70923471167394       -1.05355003675461
C           10.16425438582026        0.92405298565114        1.29135288782598
C           11.23451365518925        0.21022094790724        1.79546559351372
H           12.17696221363892       -1.70728139810194        1.96279989418060
H           10.44642379786739       -2.85642519993199        0.62573180652298
H            8.54742222936655       -1.59156560895505       -0.29019897497169
H            6.45405926381576        3.06651881649123        0.28634420256829
H            6.81527194688037        5.33598151594421       -0.58693808751863
H            8.87948264072230        5.87530134557430       -1.83284840652496
H           10.57533714755730        4.11769782779810       -2.20567043706100
H           10.20726218248485        1.84193832378234       -1.35140357798641
H            7.07279988530259       -0.62951342460700        1.83737933084005
H            4.83987649417034       -1.63065098394880        1.79081760837083
H            1.93294239350520        0.46860653647174       -0.75631989904149
H           -0.29209105093421       -0.52857489946709       -0.80944481266590
H           -1.41133122835089       -6.85846822499750       -1.24888356700108
H           -2.66074040602896       -8.94443073676351       -1.78363167828713
H           -5.11103256234357       -8.99408679110773       -1.47343536879745
H           -6.29779550104006       -7.05658621353974       -0.65122000129074
H           -7.19328474415873       -5.50012306756762        0.10784567399571
H           -8.31673188703933       -3.56440221969748        1.03181893770324
H           -7.03047686695601       -1.52621002397281        1.60488095797041
H           -4.62338140974843       -1.45642778249512        1.19737829623376
H           -1.06228129458693       -1.52738515802554        2.44146457405382
H           -1.21949808361513        0.81056814948293        3.23477560436734
H           -2.49857128579429        2.47132541092890        1.93756474665636
H           -2.59951842414766        1.77954953001581       -2.11038479807281
H           -3.74205544643004        3.47178835731788       -3.47441496107139
H           -5.45540202001446        5.21864375778591       -3.70384547566037
H           -7.33005120804104        6.49613166490603       -2.75620856479041
H           -8.84963310712288        6.96174351554728       -0.88122970093658
H           -9.62409387598018        6.48793306292145        1.40594739346105
H           -8.53046121642053        4.74217341848596        2.75428846482181
H           -6.82874414405278        2.97535342348549        2.97841863335102
H           -4.94120715130984        1.72702086099095        2.05766955303008
H           -3.42332497201662       -0.51853847682894       -0.97382601317372
H            1.33018679774555       -4.24609372875050        0.52396356956424
H            3.58344958683999       -3.24816623895806        0.55604151542917
H            4.01962780294895        0.36477615840365       -1.89661500593558
H            6.25637970468230        1.35703330073270       -1.85887706804417
H           10.07853118101090        1.98423374322908        1.48087545211572
H           11.98588286905667        0.72024244026103        2.38082319918923

          :  Hamiltonian                  GFN2-xTB          :
         :: gradient norm              0.000040570661 Eh/a0 ::
         :: HOMO-LUMO gap              1.838966475114 eV    ::
         :: SCC energy              -162.486745038558 Eh    ::
         :: -> dispersion             -0.150809100208 Eh    ::
         :: -> Gsolv                  -0.066253759359 Eh    ::
         :: repulsion energy           3.046582819652 Eh    ::

    * Orbital Energies and Occupations

         #    Occupation            Energy/Eh            Energy/eV
      -------------------------------------------------------------
         1        2.0000           -0.6877213             -18.7138
       ...           ...                  ...                  ...
       137        2.0000           -0.4075290             -11.0894
       138        2.0000           -0.4070325             -11.0759
       139        2.0000           -0.4048537             -11.0166
       140        2.0000           -0.4046555             -11.0112
       141        2.0000           -0.4043608             -11.0032
       142        2.0000           -0.3996325             -10.8746
       143        2.0000           -0.3936983             -10.7131
       144        2.0000           -0.3935006             -10.7077
       145        2.0000           -0.3826141             -10.4115
       146        2.0000           -0.3791783             -10.3180
       147        2.0000           -0.3666769              -9.9778
       148        2.0000           -0.3648737              -9.9287
       149        2.0000           -0.3486399              -9.4870 (HOMO)
       150                         -0.2810591              -7.6480 (LUMO)
       151                         -0.2636374              -7.1739
       152                         -0.2511949              -6.8354
       153                         -0.2473312              -6.7302
       154                         -0.2463401              -6.7033
       155                         -0.2393070              -6.5119
       156                         -0.2375232              -6.4633
       157                         -0.2305303              -6.2730
       158                         -0.2273599              -6.1868
       159                         -0.2265879              -6.1658
       160                         -0.2250402              -6.1237
       ...                                ...                  ...
       295                          0.7272037              19.7882
      -------------------------------------------------------------
                  HL-Gap            0.0675808 Eh            1.8390 eV

     #   Z          covCN         q      C6AA      α(0)
     1   6 C        2.919    -0.039    28.967     8.826
     2   6 C        2.919    -0.030    28.752     8.793
     3   6 C        2.922    -0.048    29.181     8.859
     4   6 C        2.924     0.065    26.537     8.448
     5   7 N        2.752    -0.078    22.746     7.083
     6   6 C        2.924     0.065    26.537     8.448
     7   6 C        2.922    -0.048    29.187     8.860
     8   6 C        2.919    -0.030    28.755     8.794
     9   6 C        2.919    -0.039    28.971     8.827
    10   6 C        2.919    -0.030    28.752     8.793
    11   6 C        2.922    -0.048    29.183     8.859
    12   6 C        2.922     0.065    26.551     8.450
    13   6 C        2.920    -0.049    29.223     8.865
    14   6 C        2.924    -0.034    28.856     8.809
    15   6 C        2.975     0.000    28.017     8.682
    16   6 C        2.976     0.013    27.727     8.637
    17   6 C        2.924    -0.035    28.883     8.813
    18   6 C        2.920    -0.036    28.896     8.815
    19   6 C        2.974    -0.005    28.142     8.702
    20   6 C        3.191     0.138    24.553     8.082
    21   7 N        1.894    -0.321    29.168     8.007
    22   6 C        3.206     0.060    26.073     8.316
    23   6 C        2.985    -0.003    28.102     8.696
    24   6 C        2.921    -0.034    28.836     8.806
    25   6 C        2.917    -0.032    28.798     8.800
    26   6 C        2.917    -0.034    28.858     8.809
    27   6 C        2.921    -0.037    28.911     8.817
    28   6 C        2.979    -0.005    28.144     8.702
    29   6 C        2.979    -0.002    28.069     8.691
    30   6 C        2.922    -0.035    28.877     8.812
    31   6 C        2.916    -0.034    28.853     8.808
    32   6 C        2.916    -0.032    28.807     8.801
    33   6 C        2.919    -0.041    29.028     8.835
    34   6 C        2.977    -0.005    28.151     8.703
    35   6 C        3.072     0.022    27.438     8.589
    36   7 N        2.841    -0.056    22.313     7.016
    37   6 C        2.911     0.066    26.513     8.443
    38   6 C        2.921    -0.041    29.022     8.834
    39   6 C        2.918    -0.026    28.660     8.779
    40   6 C        2.923    -0.033    28.821     8.804
    41   6 C        2.977     0.018    27.600     8.618
    42   6 C        2.977     0.001    27.994     8.679
    43   6 C        2.920    -0.035    28.867     8.811
    44   6 C        2.918    -0.038    28.942     8.822
    45   6 C        2.982     0.010    27.794     8.648
    46   6 C        2.913    -0.037    28.910     8.817
    47   6 C        2.913    -0.036    28.900     8.815
    48   6 C        2.982     0.011    27.772     8.644
    49   6 C        2.920    -0.037    28.924     8.819
    50   6 C        2.913    -0.031    28.766     8.795
    51   6 C        2.920    -0.037    28.928     8.820
    52   6 C        2.982     0.011    27.774     8.645
    53   6 C        2.913    -0.037    28.908     8.817
    54   6 C        2.912    -0.037    28.909     8.817
    55   6 C        2.982     0.007    27.855     8.657
    56   6 C        2.995     0.002    27.966     8.675
    57   6 C        2.997     0.002    27.964     8.674
    58   6 C        2.926    -0.042    29.049     8.839
    59   6 C        2.926    -0.030    28.747     8.793
    60   6 C        2.923    -0.034    28.849     8.808
    61   6 C        2.924    -0.034    28.855     8.809
    62   6 C        2.920    -0.049    29.223     8.865
    63   6 C        2.922    -0.048    29.180     8.858
    64   6 C        2.919    -0.030    28.752     8.793
    65   1 H        0.926     0.032     2.556     2.500
    66   1 H        0.926     0.034     2.534     2.489
    67   1 H        0.926     0.032     2.552     2.498
    68   1 H        0.926     0.032     2.553     2.499
    69   1 H        0.926     0.034     2.536     2.490
    70   1 H        0.926     0.032     2.558     2.501
    71   1 H        0.926     0.033     2.539     2.492
    72   1 H        0.926     0.031     2.565     2.505
    73   1 H        0.926     0.033     2.539     2.492
    74   1 H        0.926     0.036     2.498     2.472
    75   1 H        0.926     0.039     2.467     2.456
    76   1 H        0.926     0.027     2.631     2.536
    77   1 H        0.926     0.043     2.410     2.428
    78   1 H        0.926     0.032     2.555     2.500
    79   1 H        0.926     0.032     2.562     2.503
    80   1 H        0.926     0.034     2.526     2.485
    81   1 H        0.926     0.037     2.494     2.470
    82   1 H        0.926     0.032     2.555     2.500
    83   1 H        0.926     0.031     2.568     2.506
    84   1 H        0.926     0.029     2.604     2.523
    85   1 H        0.926     0.037     2.494     2.469
    86   1 H        0.926     0.047     2.360     2.402
    87   1 H        0.926     0.047     2.357     2.401
    88   1 H        0.926     0.031     2.573     2.508
    89   1 H        0.926     0.036     2.509     2.477
    90   1 H        0.926     0.034     2.527     2.486
    91   1 H        0.926     0.034     2.527     2.486
    92   1 H        0.926     0.034     2.536     2.490
    93   1 H        0.926     0.033     2.551     2.498
    94   1 H        0.926     0.033     2.538     2.491
    95   1 H        0.926     0.034     2.535     2.490
    96   1 H        0.926     0.033     2.538     2.491
    97   1 H        0.926     0.040     2.444     2.445
    98   1 H        0.926     0.043     2.410     2.428
    99   1 H        0.926     0.041     2.439     2.442
   100   1 H        0.926     0.036     2.508     2.476
   101   1 H        0.926     0.033     2.541     2.493
   102   1 H        0.926     0.032     2.563     2.503
   103   1 H        0.926     0.034     2.537     2.491

molecular dipole:
                 x           y           z       tot (Debye)
 q only:        0.279       1.668       0.424
   full:        0.020       1.876       0.518       4.947

 projected vibrational frequencies (cm⁻¹)
eigval :       -0.00    -0.00    -0.00    -0.00     0.00     0.00
eigval :        6.12    10.11    12.35    14.41    17.13    18.47
eigval :       27.66    32.63    41.24    44.74    49.97    57.64
eigval :       63.32    67.73    73.00    76.44    82.38    84.55
eigval :       95.03    95.60   105.86   111.71   123.15   137.85
eigval :      153.57   160.66   186.59   202.94   204.23   210.73
eigval :      222.46   225.37   234.09   240.05   244.19   249.09
eigval :      257.42   267.53   272.64   285.36   310.07   315.71
eigval :      316.97   334.29   355.99   373.23   373.82   376.59
eigval :      381.24   383.96   388.35   394.26   395.27   400.61
eigval :      410.96   414.18   417.71   429.97   435.40   443.16
eigval :      449.09   457.66   467.63   474.69   480.08   484.73
eigval :      491.59   495.10   500.49   510.33   515.32   518.68
eigval :      526.76   534.97   538.51   543.15   579.72   584.07
eigval :      585.41   586.23   593.62   596.21   602.78   612.05
eigval :      616.92   624.34   640.15   648.46   652.19   659.01
eigval :      663.15   664.41   668.36   672.65   678.15   680.57
eigval :      681.91   685.77   688.14   691.18   706.22   717.02
eigval :      727.24   736.04   753.01   754.49   757.25   757.79
eigval :      763.74   765.11   775.88   781.20   791.26   802.03
eigval :      807.70   809.22   818.96   830.92   836.24   849.26
eigval :      859.24   860.73   868.88   873.17   874.09   875.03
eigval :      877.15   886.00   889.11   893.15   893.93   901.96
eigval :      906.62   909.31   909.64   914.66   915.44   916.19
eigval :      920.75   922.37   922.46   924.48   925.97   926.28
eigval :      927.06   927.94   929.88   930.59   930.68   932.77
eigval :      935.84   939.51   958.18   976.49   987.46   994.64
eigval :     1004.05  1008.48  1017.70  1025.15  1040.30  1073.98
eigval :     1080.11  1081.88  1082.75  1085.56  1107.70  1107.85
eigval :     1115.91  1120.25  1122.37  1127.08  1130.42  1137.56
eigval :     1144.42  1146.11  1151.62  1161.21  1173.05  1177.53
eigval :     1178.44  1179.07  1181.50  1183.61  1184.54  1185.52
eigval :     1193.87  1194.79  1195.69  1200.67  1201.90  1208.62
eigval :     1214.54  1222.43  1232.90  1246.10  1254.53  1256.44
eigval :     1259.75  1268.38  1272.01  1277.25  1278.24  1281.73
eigval :     1284.29  1289.67  1305.91  1307.60  1310.30  1312.94
eigval :     1314.10  1318.94  1323.68  1324.15  1326.78  1329.86
eigval :     1334.70  1337.89  1347.40  1357.49  1368.81  1386.39
eigval :     1391.24  1395.99  1406.05  1410.54  1412.90  1414.41
eigval :     1416.12  1427.14  1434.04  1434.40  1440.48  1440.99
eigval :     1448.79  1460.94  1469.64  1470.36  1472.59  1488.18
eigval :     1494.42  1503.11  1512.27  1514.61  1540.51  1540.96
eigval :     1551.67  1558.77  1561.35  1563.53  1567.98  1571.47
eigval :     1575.64  1577.99  1579.34  1585.25  1586.43  1591.16
eigval :     1593.40  1596.57  1602.82  1603.50  1603.81  1606.05
eigval :     3063.31  3065.14  3066.54  3066.86  3069.52  3071.30
eigval :     3071.89  3071.90  3072.32  3073.24  3073.46  3075.22
eigval :     3076.02  3077.12  3079.19  3079.60  3080.03  3080.88
eigval :     3081.41  3081.94  3082.74  3083.03  3083.73  3083.82
eigval :     3084.48  3085.44  3087.12  3087.33  3089.88  3090.01
eigval :     3093.31  3094.08  3094.24  3095.81  3096.81  3098.09
eigval :     3099.24  3109.07  3121.95

   temp. (K)  partition function   enthalpy   heat capacity  entropy
                                   cal/mol     cal/K/mol   cal/K/mol   J/K/mol
 298.15  VIB  0.307E+24            29145.179    185.916    182.205
         ROT  0.304E+09              888.752      2.981     41.794
         INT  0.933E+32            30033.931    188.897    223.999
         TR   0.225E+29             1481.254      4.968     45.947
         TOT                       31515.1849   193.8651   269.9459  1129.4539

       T/K    H(0)-H(T)+PV         H(T)/Eh          T*S/Eh         G(T)/Eh
   ------------------------------------------------------------------------
    298.15    0.502226E-01    0.842686E+00    0.128260E+00    0.714426E+00
   ------------------------------------------------------------------------

         :::::::::::::::::::::::::::::::::::::::::::::::::::::
         ::                  THERMODYNAMIC                  ::
         :::::::::::::::::::::::::::::::::::::::::::::::::::::
         :: total free energy        -158.725736265428 Eh   ::
         ::.................................................::
         :: total energy             -159.440162223552 Eh   ::
         :: zero point energy           0.792463345607 Eh   ::
         :: G(RRHO) w/o ZPVE           -0.078037387483 Eh   ::
         :: G(RRHO) contrib.            0.714425958124 Eh   ::
         :::::::::::::::::::::::::::::::::::::::::::::::::::::

           -------------------------------------------------
          | TOTAL ENERGY             -159.440162223552 Eh   |
          | TOTAL ENTHALPY           -158.597476234059 Eh   |
          | TOTAL FREE ENERGY        -158.725736265428 Eh   |
          | GRADIENT NORM               0.000040567821 Eh/α |
          | HOMO-LUMO GAP               1.838966430018 eV   |
           -------------------------------------------------

 * finished run on 2025/08/25 at 22:41:14.220
