   * xtb version 6.7.1 (edcfbbe) compiled by 'albert@albert-system' on 2024-07-22

   ID    Z sym.   atoms
    1    6 C      1-4, 6-20, 22-35, 37-64
    2    7 N      5, 21, 36
    3    1 H      65-103

          program call               : xtb data2507/toluene/TPAPyPI/TPAPyPI_toluene_T1_crest.xyz --gfn 2 --uhf 2 --gbsa toluene --ohess vtight --parallel 40 --molden --ceasefiles --namespace data2507/toluene/TPAPyPI/TPAPyPI_toluene_T1_finalOpt
      * Solvation model:               GBSA
        Solvent                        toluene
        Solvent mass                       9.2140E+01 g/mol
          :  Hamiltonian                  GFN2-xTB          :
 * total energy  :  -159.3659458 Eh     change       -0.6077187E-08 Eh
 * total energy  :  -159.3660478 Eh     change       -0.1019551E-03 Eh
 * total energy  :  -159.3661745 Eh     change       -0.1267051E-03 Eh
 * total energy  :  -159.3662434 Eh     change       -0.6889891E-04 Eh
 * total energy  :  -159.3663318 Eh     change       -0.8845045E-04 Eh
 * total energy  :  -159.3664067 Eh     change       -0.7490396E-04 Eh
 * total energy  :  -159.3664577 Eh     change       -0.5099094E-04 Eh
 * total energy  :  -159.3665056 Eh     change       -0.4789018E-04 Eh
 * total energy  :  -159.3665275 Eh     change       -0.2189560E-04 Eh
 * total energy  :  -159.3665710 Eh     change       -0.4354584E-04 Eh
 * total energy  :  -159.3672964 Eh     change       -0.2265942E-06 Eh
 * total energy  :  -159.3672966 Eh     change       -0.2006185E-06 Eh
 * total energy  :  -159.3672968 Eh     change       -0.1617636E-06 Eh
 * total energy  :  -159.3672969 Eh     change       -0.1215581E-06 Eh
 * total energy  :  -159.3672970 Eh     change       -0.1161918E-06 Eh
 * total energy  :  -159.3672970 Eh     change        0.1964796E-07 Eh
 * total energy  :  -159.3672973 Eh     change       -0.2617339E-06 Eh
 * total energy  :  -159.3672974 Eh     change       -0.1301181E-06 Eh
 * total energy  :  -159.3672974 Eh     change       -0.2326109E-07 Eh
   *** GEOMETRY OPTIMIZATION CONVERGED AFTER 114 ITERATIONS ***

 final structure:
================
103
 xtb: 6.7.1 (edcfbbe)
C            7.58099432557945       -4.18089259726358       -2.42284762828596
C            6.37536658844185       -3.56267924226273       -2.71585188864574
C            5.77124330977082       -2.73291686400315       -1.79094170083403
C            6.36967310349599       -2.51535726206055       -0.54930579807572
N            5.76027749173323       -1.67887309364363        0.39566113593312
C            6.54655070888056       -0.80667805516665        1.15655601448298
C            6.22623673247748       -0.54284721488358        2.48907401722829
C            7.01399486020599        0.30973209024773        3.23727063013408
C            8.13242005738468        0.90621258587731        2.67681326221334
C            8.45599751150601        0.64613710050726        1.35464441403107
C            7.67051009869834       -0.19903277553706        0.59564626453339
C            4.37482879325635       -1.69471547440220        0.54526219568140
C            3.65076761660295       -2.88085731668166        0.39396963964881
C            2.27682128239252       -2.88161722528765        0.50467550495603
C            1.57365511399270       -1.70601476933053        0.77640246587719
C            0.10910778663862       -1.66857869290311        0.82769472766219
C           -0.55512580819415       -0.77689316246432        1.67256359551387
C           -1.92588788084307       -0.63911380526495        1.62370394665416
C           -2.68046839390976       -1.40136548214064        0.73352071519298
C           -4.10959436546838       -1.16783695822687        0.54603130456587
N           -5.03827682400053       -2.08676476761791        0.59108254954153
C           -6.21001539674814       -1.44155333925941        0.32607708665687
C           -7.52267349601420       -1.98958321920846        0.30963660145058
C           -7.75237140871773       -3.33862710623660        0.60354532193432
C           -9.03119459149957       -3.83688906569986        0.62653697139595
C          -10.10231718379832       -2.98559557460693        0.36019694379282
C           -9.88837721894284       -1.65997849272257        0.06138230586212
C           -8.59530030269059       -1.11592110870147        0.01429131658868
C           -8.33410817944561        0.26774831335387       -0.34459015652166
C           -9.36284747103410        1.12911845461979       -0.75356536516742
C           -9.11730091167436        2.42347112201423       -1.14768950123604
C           -7.81417068434748        2.91138041221125       -1.17101478352704
C           -6.77884747493070        2.10270981497237       -0.77099747998182
C           -7.01199002536016        0.79138344078955       -0.33101059254241
C           -5.97429310698117       -0.08829443337551        0.08985229966700
N           -4.61745109406696        0.08020093155369        0.25105372870815
C           -3.82936696638806        1.25034280135007        0.22580725008462
C           -4.15040956485361        2.34136236827415        1.03243639356396
C           -3.30407623775787        3.44003371372040        1.04032443964160
C           -2.11880035646370        3.42643554435512        0.33288512329511
C           -1.75506128471427        2.31204620410513       -0.43822587700522
C           -0.47394575298103        2.18239669612263       -1.10616659193336
C           -0.42987244806118        1.66417324600626       -2.40783056131966
C            0.74361106544888        1.49712093101277       -3.08726238347613
C            1.99616297387544        1.80624562056383       -2.47230325176155
C            3.20701527182855        1.60546961821536       -3.13317691557089
C            4.41628380040382        1.88395626927061       -2.51297419901114
C            4.45125216583801        2.36349957886742       -1.19939489916853
C            5.67682472749908        2.63374918306837       -0.53131444888240
C            5.68699378937670        3.09276064982436        0.77187233302185
C            4.50845777349901        3.29064292028698        1.45974064741867
C            3.25398396542313        3.02943857508062        0.83829200572689
C            2.04349505629019        3.16862968395972        1.51993987844019
C            0.83306104724772        2.88764227361280        0.89817523668340
C            0.77103660344789        2.49532798602664       -0.44124326265988
C            1.99353335705724        2.30545161279573       -1.14317801099890
C            3.22897165259230        2.57363802416399       -0.50619542880418
C           -2.66967528028797        1.25524049514587       -0.52834822200449
C           -2.03442771233207       -2.35733685980261       -0.04702763959878
C           -0.66062460242627       -2.48203589965725       -0.00521122714109
C            2.30848117848091       -0.53192029802202        0.95612275426783
C            3.67995092747963       -0.52105677485892        0.84380366210736
C            7.58339806686441       -3.13944095940034       -0.25874747509542
C            8.18166040817053       -3.96315363024165       -1.19273410132097
H            8.05008030970854       -4.82745038017330       -3.14896442760365
H            5.90535677397893       -3.72096003848762       -3.67537646917263
H            4.83891396454786       -2.23957429888250       -2.02401156361405
H            5.36400948733279       -1.01816402380902        2.93301397485523
H            6.75745612356552        0.50255289332793        4.26860795981437
H            8.74769854993287        1.56907068504163        3.26662344114671
H            9.32242250119945        1.11192646408908        0.90816675548408
H            7.91750494845931       -0.39075352665638       -0.43808921890858
H            4.17683948110915       -3.80274300830329        0.19341232214699
H            1.74244821308192       -3.81436192882996        0.40389570769240
H            0.01069586731300       -0.18158635265796        2.37292108967914
H           -2.41810626387851        0.06726303315359        2.27692581537245
H           -6.89663668057498       -3.96101863738884        0.81731499623293
H           -9.21066646678132       -4.87715578814296        0.85563433633061
H          -11.11174906117034       -3.37035394351104        0.38822847883985
H          -10.74736073426972       -1.03765471480795       -0.13349681712908
H          -10.38063482082154        0.77460790745827       -0.77663606200677
H           -9.93622704902122        3.05702094755575       -1.45568728448687
H           -7.61579004317517        3.91856436657532       -1.50717583847858
H           -5.76716823015924        2.47495433567875       -0.81077782971942
H           -5.04675482503123        2.32471483624508        1.63418999381701
H           -3.56800985282721        4.30628637169253        1.62930550578274
H           -1.47571289772931        4.29356919821386        0.34699834205829
H           -1.36488928314185        1.43761497435042       -2.90199717261124
H            0.74380688482598        1.13050401667386       -4.10333418909915
H            3.19649235993247        1.22130839299218       -4.14366763440300
H            5.34514188699484        1.72423596834387       -3.04179825881841
H            6.60300149216225        2.47060887189040       -1.06128380022343
H            6.63106057731975        3.28876640720300        1.25987197027974
H            4.51828490933112        3.63713110532260        2.48245706064328
H            2.05172421235419        3.48413361421238        2.55371453777366
H           -0.07392159445862        2.95041307504198        1.47899073664464
H           -2.43227292184207        0.39659712882259       -1.13772459499761
H           -2.62149940097432       -2.97098807534012       -0.71448357287180
H           -0.17534672407236       -3.18835843184824       -0.66184624584084
H            1.79361247516560        0.39651536057350        1.14395981325655
H            4.22346727169456        0.40373589559306        0.95811018230881
H            8.04619416588131       -2.97849658292374        0.70385650875531
H            9.11857778929731       -4.44507382929342       -0.95517228631061

          :  Hamiltonian                  GFN2-xTB          :
         :: gradient norm              0.000192335856 Eh/a0 ::
         :: HOMO-LUMO gap              0.552933465326 eV    ::
         :: SCC energy              -162.396498895640 Eh    ::
         :: -> dispersion             -0.166371453525 Eh    ::
         :: -> Gsolv                  -0.060375689056 Eh    ::
         :: repulsion energy           3.029201463205 Eh    ::

    * Orbital Energies and Occupations

         #    Occupation            Energy/Eh            Energy/eV
      -------------------------------------------------------------
         1        2.0000           -0.6877698             -18.7152
       ...           ...                  ...                  ...
       138        2.0000           -0.4055929             -11.0367
       139        2.0000           -0.4025367             -10.9536
       140        2.0000           -0.4007402             -10.9047
       141        2.0000           -0.3979730             -10.8294
       142        2.0000           -0.3961033             -10.7785
       143        2.0000           -0.3949256             -10.7465
       144        2.0000           -0.3894215             -10.5967
       145        2.0000           -0.3823877             -10.4053
       146        2.0000           -0.3801426             -10.3442
       147        2.0000           -0.3658836              -9.9562
       148        1.8085           -0.3555232              -9.6743
       149        1.1915           -0.3527868              -9.5998
       150        1.0000           -0.2834090              -7.7120 (HOMO)
       151        0.0000           -0.2630895              -7.1590 (LUMO)
       152                         -0.2524141              -6.8685
       153                         -0.2493793              -6.7860
       154                         -0.2398332              -6.5262
       155                         -0.2368657              -6.4454
       156                         -0.2335910              -6.3563
       157                         -0.2325847              -6.3290
       158                         -0.2295278              -6.2458
       159                         -0.2273816              -6.1874
       160                         -0.2268724              -6.1735
       161                         -0.2259613              -6.1487
       ...                                ...                  ...
       295                          0.7276889              19.8014
      -------------------------------------------------------------
                  HL-Gap            0.0203195 Eh            0.5529 eV

     #   Z          covCN         q      C6AA      α(0)
     1   6 C        2.919    -0.034    28.843     8.807
     2   6 C        2.919    -0.027    28.685     8.783
     3   6 C        2.921    -0.043    29.064     8.841
     4   6 C        2.925     0.065    26.545     8.449
     5   7 N        2.752    -0.055    22.297     7.013
     6   6 C        2.924     0.065    26.537     8.448
     7   6 C        2.922    -0.044    29.088     8.844
     8   6 C        2.919    -0.027    28.678     8.782
     9   6 C        2.919    -0.034    28.835     8.806
    10   6 C        2.919    -0.027    28.668     8.780
    11   6 C        2.922    -0.043    29.060     8.840
    12   6 C        2.924     0.065    26.544     8.449
    13   6 C        2.920    -0.046    29.148     8.853
    14   6 C        2.923    -0.033    28.815     8.803
    15   6 C        2.975     0.006    27.874     8.660
    16   6 C        2.975     0.013    27.712     8.635
    17   6 C        2.924    -0.033    28.820     8.804
    18   6 C        2.921    -0.031    28.778     8.797
    19   6 C        2.974    -0.001    28.043     8.686
    20   6 C        3.198     0.140    24.454     8.060
    21   7 N        1.890    -0.320    29.150     8.004
    22   6 C        3.210     0.059    26.059     8.310
    23   6 C        2.985    -0.003    28.098     8.695
    24   6 C        2.921    -0.034    28.836     8.806
    25   6 C        2.917    -0.032    28.796     8.800
    26   6 C        2.917    -0.034    28.857     8.809
    27   6 C        2.921    -0.037    28.908     8.817
    28   6 C        2.979    -0.005    28.145     8.702
    29   6 C        2.979    -0.002    28.072     8.691
    30   6 C        2.922    -0.035    28.879     8.813
    31   6 C        2.916    -0.034    28.853     8.808
    32   6 C        2.917    -0.033    28.812     8.802
    33   6 C        2.919    -0.040    29.006     8.832
    34   6 C        2.978    -0.005    28.142     8.702
    35   6 C        3.073     0.023    27.421     8.586
    36   7 N        2.840    -0.055    22.302     7.014
    37   6 C        2.910     0.062    26.616     8.460
    38   6 C        2.919    -0.047    29.173     8.857
    39   6 C        2.917    -0.031    28.772     8.796
    40   6 C        2.921    -0.038    28.945     8.823
    41   6 C        2.974     0.013    27.710     8.635
    42   6 C        2.972    -0.009    28.237     8.716
    43   6 C        2.913    -0.035    28.879     8.812
    44   6 C        2.913    -0.044    29.101     8.846
    45   6 C        2.978     0.005    27.905     8.665
    46   6 C        2.916    -0.042    29.033     8.836
    47   6 C        2.916    -0.044    29.082     8.843
    48   6 C        2.977     0.008    27.830     8.653
    49   6 C        2.918    -0.045    29.113     8.848
    50   6 C        2.907    -0.031    28.767     8.795
    51   6 C        2.917    -0.046    29.131     8.851
    52   6 C        2.977     0.009    27.818     8.652
    53   6 C        2.915    -0.044    29.089     8.844
    54   6 C        2.915    -0.043    29.067     8.841
    55   6 C        2.974     0.004    27.932     8.669
    56   6 C        2.992     0.001    27.995     8.679
    57   6 C        2.996     0.001    27.988     8.678
    58   6 C        2.931    -0.048    29.192     8.861
    59   6 C        2.923    -0.030    28.739     8.791
    60   6 C        2.924    -0.033    28.829     8.805
    61   6 C        2.925    -0.032    28.794     8.800
    62   6 C        2.920    -0.044    29.103     8.847
    63   6 C        2.922    -0.044    29.081     8.843
    64   6 C        2.919    -0.028    28.692     8.784
    65   1 H        0.926     0.039     2.465     2.455
    66   1 H        0.926     0.040     2.454     2.450
    67   1 H        0.926     0.037     2.486     2.466
    68   1 H        0.926     0.037     2.484     2.465
    69   1 H        0.926     0.039     2.464     2.455
    70   1 H        0.926     0.037     2.485     2.465
    71   1 H        0.926     0.039     2.464     2.455
    72   1 H        0.926     0.037     2.489     2.467
    73   1 H        0.926     0.041     2.435     2.440
    74   1 H        0.926     0.044     2.397     2.421
    75   1 H        0.926     0.041     2.433     2.439
    76   1 H        0.926     0.027     2.628     2.535
    77   1 H        0.926     0.043     2.408     2.427
    78   1 H        0.926     0.033     2.549     2.497
    79   1 H        0.926     0.032     2.555     2.500
    80   1 H        0.926     0.035     2.520     2.483
    81   1 H        0.926     0.037     2.489     2.467
    82   1 H        0.926     0.033     2.549     2.497
    83   1 H        0.926     0.031     2.567     2.505
    84   1 H        0.926     0.030     2.583     2.513
    85   1 H        0.926     0.035     2.513     2.479
    86   1 H        0.926     0.040     2.449     2.447
    87   1 H        0.926     0.043     2.411     2.428
    88   1 H        0.925     0.024     2.668     2.554
    89   1 H        0.926     0.027     2.631     2.537
    90   1 H        0.926     0.027     2.632     2.537
    91   1 H        0.926     0.027     2.631     2.537
    92   1 H        0.926     0.025     2.653     2.547
    93   1 H        0.926     0.025     2.665     2.553
    94   1 H        0.926     0.026     2.647     2.544
    95   1 H        0.926     0.027     2.636     2.539
    96   1 H        0.926     0.031     2.575     2.510
    97   1 H        0.926     0.032     2.563     2.504
    98   1 H        0.926     0.039     2.460     2.453
    99   1 H        0.926     0.045     2.389     2.417
   100   1 H        0.926     0.040     2.446     2.446
   101   1 H        0.926     0.039     2.466     2.456
   102   1 H        0.926     0.039     2.466     2.456
   103   1 H        0.926     0.040     2.444     2.445

molecular dipole:
                 x           y           z       tot (Debye)
 q only:        2.859      -0.357       0.178
   full:        2.735       0.044       0.075       6.955

 projected vibrational frequencies (cm⁻¹)
eigval :       -0.00    -0.00    -0.00    -0.00     0.00     0.00
eigval :        9.45    12.15    15.43    20.28    23.80    31.43
eigval :       32.81    40.08    47.02    48.72    53.14    61.95
eigval :       66.62    72.46    78.17    81.87    84.45    93.91
eigval :       95.34   101.62   112.30   121.17   125.32   136.18
eigval :      151.34   173.94   183.99   199.10   202.25   208.64
eigval :      219.67   226.69   235.48   246.26   250.34   254.51
eigval :      265.87   270.52   274.53   285.50   307.55   316.16
eigval :      320.51   331.94   354.23   371.41   376.53   377.37
eigval :      380.95   385.39   388.12   392.95   395.08   399.66
eigval :      405.00   416.01   416.50   419.78   430.26   432.85
eigval :      444.08   444.60   455.96   459.75   477.96   484.44
eigval :      490.99   492.67   497.28   504.73   510.26   519.89
eigval :      528.27   533.58   536.00   544.74   562.90   583.12
eigval :      583.89   584.89   591.04   592.96   599.33   612.03
eigval :      615.64   616.53   626.21   634.08   645.20   657.15
eigval :      659.45   663.78   665.74   670.01   670.48   675.92
eigval :      678.00   680.02   684.54   690.72   705.05   712.96
eigval :      718.77   724.82   734.93   745.17   752.36   756.26
eigval :      757.98   759.52   764.18   765.98   782.38   792.30
eigval :      794.69   797.29   801.48   807.32   813.41   822.35
eigval :      832.79   854.59   864.62   865.20   870.66   872.89
eigval :      874.65   875.17   876.42   878.57   882.69   896.86
eigval :      897.26   900.00   905.19   909.02   909.83   910.21
eigval :      913.73   915.00   915.26   920.46   921.60   925.87
eigval :      926.78   928.14   928.68   928.99   931.81   935.31
eigval :      936.26   939.12   949.59   973.89   984.81   986.18
eigval :     1003.29  1007.23  1015.45  1020.96  1037.08  1077.37
eigval :     1077.79  1080.41  1081.67  1085.11  1106.71  1108.80
eigval :     1119.18  1119.70  1121.69  1122.12  1132.69  1135.86
eigval :     1139.43  1150.33  1150.95  1152.21  1166.22  1173.22
eigval :     1177.26  1177.51  1180.53  1181.69  1182.59  1185.53
eigval :     1188.88  1191.31  1192.41  1200.44  1202.35  1205.88
eigval :     1210.77  1216.59  1227.14  1235.78  1247.11  1255.15
eigval :     1259.45  1267.88  1274.05  1275.13  1277.07  1277.69
eigval :     1281.76  1283.36  1295.99  1301.30  1304.44  1311.24
eigval :     1313.98  1315.19  1319.99  1320.95  1323.79  1324.20
eigval :     1328.56  1334.29  1337.65  1344.67  1359.52  1367.20
eigval :     1372.17  1379.22  1392.42  1394.40  1405.67  1407.01
eigval :     1414.36  1415.35  1423.03  1430.80  1432.85  1436.52
eigval :     1438.87  1451.57  1458.29  1463.04  1463.67  1464.30
eigval :     1478.71  1490.38  1491.84  1506.65  1512.27  1513.35
eigval :     1515.72  1515.85  1535.41  1542.99  1550.36  1553.19
eigval :     1556.70  1562.77  1569.55  1571.32  1571.73  1574.60
eigval :     1578.07  1584.81  1592.06  1592.92  1600.22  1603.00
eigval :     3059.89  3063.09  3067.95  3069.26  3069.98  3072.76
eigval :     3072.81  3073.80  3074.52  3076.23  3076.41  3077.13
eigval :     3078.16  3078.51  3079.21  3079.86  3080.40  3081.31
eigval :     3082.60  3085.10  3086.42  3087.82  3088.41  3089.03
eigval :     3089.65  3090.52  3092.10  3093.54  3094.16  3095.31
eigval :     3095.36  3096.19  3097.02  3097.60  3098.01  3104.49
eigval :     3106.78  3109.25  3115.16

   temp. (K)  partition function   enthalpy   heat capacity  entropy
                                   cal/mol     cal/K/mol   cal/K/mol   J/K/mol
 298.15  VIB  0.147E+23            29137.105    188.148    180.009
         ROT  0.162E+09              888.752      2.981     40.548
         INT  0.239E+31            30025.857    191.129    220.557
         TR   0.225E+29             1481.254      4.968     45.947
         TOT                       31507.1112   196.0971   266.5041  1115.0534

       T/K    H(0)-H(T)+PV         H(T)/Eh          T*S/Eh         G(T)/Eh
   ------------------------------------------------------------------------
    298.15    0.502098E-01    0.839883E+00    0.126625E+00    0.713258E+00
   ------------------------------------------------------------------------

         :::::::::::::::::::::::::::::::::::::::::::::::::::::
         ::                  THERMODYNAMIC                  ::
         :::::::::::::::::::::::::::::::::::::::::::::::::::::
         :: total free energy        -158.654039569596 Eh   ::
         ::.................................................::
         :: total energy             -159.367297435196 Eh   ::
         :: zero point energy           0.789672808751 Eh   ::
         :: G(RRHO) w/o ZPVE           -0.076414943151 Eh   ::
         :: G(RRHO) contrib.            0.713257865600 Eh   ::
         :::::::::::::::::::::::::::::::::::::::::::::::::::::

           -------------------------------------------------
          | TOTAL ENERGY             -159.367297435196 Eh   |
          | TOTAL ENTHALPY           -158.527414848822 Eh   |
          | TOTAL FREE ENERGY        -158.654039569596 Eh   |
          | GRADIENT NORM               0.000188567057 Eh/α |
          | HOMO-LUMO GAP               0.552920733677 eV   |
           -------------------------------------------------

 * finished run on 2025/08/25 at 23:04:14.773
