   * xtb version 6.7.1 (edcfbbe) compiled by 'albert@albert-system' on 2024-07-22

   ID    Z sym.   atoms
    1    6 C      1-4, 6-20, 22-35, 37-64
    2    7 N      5, 21, 36
    3    1 H      65-103

          program call               : xtb data2507/toluene/TPAPyPI/TPAPyPI_toluene_S0_crest.xyz --gfn 2 --gbsa toluene --ohess vtight --parallel 40 --molden --ceasefiles --namespace data2507/toluene/TPAPyPI/TPAPyPI_toluene_S0_finalOpt
      * Solvation model:               GBSA
        Solvent                        toluene
        Solvent mass                       9.2140E+01 g/mol
          :  Hamiltonian                  GFN2-xTB          :
 * total energy  :  -159.4410921 Eh     change       -0.4173813E-08 Eh
 * total energy  :  -159.4411396 Eh     change       -0.4746955E-04 Eh
 * total energy  :  -159.4411683 Eh     change       -0.2875345E-04 Eh
 * total energy  :  -159.4411826 Eh     change       -0.1432856E-04 Eh
 * total energy  :  -159.4411961 Eh     change       -0.1342742E-04 Eh
 * total energy  :  -159.4412054 Eh     change       -0.9281188E-05 Eh
 * total energy  :  -159.4412121 Eh     change       -0.6705908E-05 Eh
 * total energy  :  -159.4412200 Eh     change       -0.7984100E-05 Eh
 * total energy  :  -159.4412300 Eh     change       -0.9974964E-05 Eh
 * total energy  :  -159.4412411 Eh     change       -0.1106419E-04 Eh
 * total energy  :  -159.4414016 Eh     change       -0.9864457E-06 Eh
 * total energy  :  -159.4414026 Eh     change       -0.9809572E-06 Eh
 * total energy  :  -159.4414035 Eh     change       -0.9508498E-06 Eh
 * total energy  :  -159.4414045 Eh     change       -0.9012875E-06 Eh
 * total energy  :  -159.4414053 Eh     change       -0.8520899E-06 Eh
 * total energy  :  -159.4414061 Eh     change       -0.8199681E-06 Eh
 * total energy  :  -159.4414069 Eh     change       -0.8123454E-06 Eh
 * total energy  :  -159.4414078 Eh     change       -0.8275892E-06 Eh
 * total energy  :  -159.4414078 Eh     change       -0.6922249E-08 Eh
   *** GEOMETRY OPTIMIZATION CONVERGED AFTER 68 ITERATIONS ***

 final structure:
================
103
 xtb: 6.7.1 (edcfbbe)
C            9.26400745174687       -4.56781134773117        1.95914766502657
C            8.10901212346131       -4.92248178653078        1.28066667280664
C            7.35478917527108       -3.96305040752410        0.63289232902609
C            7.74337014332644       -2.62354738714308        0.66408885857240
N            6.98012839898760       -1.64584456443458        0.01233555304992
C            7.61839575304209       -0.58819981907370       -0.64837949593775
C            7.07314150748262        0.69559814020777       -0.62008652055024
C            7.70510574130354        1.73531496177463       -1.27482184079236
C            8.89059017686376        1.51776972922422       -1.95844678846712
C            9.43877547203363        0.24545868718797       -1.98613834032649
C            8.80950131685678       -0.80251365067567       -1.34198725973099
C            5.58556406939966       -1.73438889539431        0.01063662103572
C            4.90116635849190       -2.20616634402616        1.13213483004251
C            3.52598858241525       -2.30628628325095        1.12285454284562
C            2.78526312205749       -1.94373400472429       -0.00163048629005
C            1.32320930297801       -2.07757473813130       -0.01905620826724
C            0.55746826106103       -1.75113502551651        1.09976119592228
C           -0.81809111730936       -1.86564944089199        1.07926527529974
C           -1.47076489478637       -2.31342559486921       -0.06814197330494
C           -2.91873756642985       -2.44111783653012       -0.14940953331134
N           -3.52383743852161       -3.45828386805266       -0.71068913303618
C           -4.85711988082889       -3.21438271870127       -0.58470346673155
C           -5.93803290680876       -4.04845248018219       -0.98580262409044
C           -5.71312257681237       -5.29308483040979       -1.58486324573510
C           -6.76912313715294       -6.10156003842692       -1.92475005660203
C           -8.06974897330703       -5.67450110144004       -1.66225225679375
C           -8.30328307533816       -4.44983918044530       -1.08108000787850
C           -7.25109504691006       -3.58917772293131       -0.73062125335199
C           -7.46678697555344       -2.27215862862428       -0.15565645058426
C           -8.75583760833421       -1.74616859624529        0.01550981949341
C           -8.96834445661947       -0.48006907969251        0.50800720479974
C           -7.88697831311383        0.33220932594691        0.83574363119154
C           -6.60865270356510       -0.14838647155156        0.69241691012633
C           -6.37083436682853       -1.44906859319006        0.22444755227397
C           -5.06668752421242       -1.99565201515373        0.05750424029172
N           -3.80871754478400       -1.51360561897399        0.34522211995737
C           -3.43323840443700       -0.34653655078323        1.04134332947308
C           -3.85498704424640       -0.14621637299024        2.35230814804800
C           -3.42889352042704        0.97818454156317        3.03698094616254
C           -2.57699202125472        1.88616892281336        2.43308421954490
C           -2.14363265545425        1.68733641038314        1.12364034868896
C           -1.17366259569557        2.60093241680893        0.49539894896439
C            0.02176306105953        2.06220756171397        0.02663133310744
C            1.00934523063276        2.86421843821053       -0.50615285159193
C            0.83202862244643        4.24628469450484       -0.59685497409448
C            1.84086478210752        5.10654179956849       -1.12152644777819
C            1.64939874034927        6.44322560450305       -1.20773405226671
C            0.42614436702488        7.04243895034451       -0.78440718695657
C            0.20495317586359        8.41834960327136       -0.86973354506277
C           -0.99486193112116        8.96890891955880       -0.45661435140178
C           -1.99968314322361        8.16484587851088        0.04993741414475
C           -1.82107406339140        6.78439024369967        0.15661776446191
C           -2.83854043343993        5.92190593650904        0.65938755056952
C           -2.64220570707400        4.58725759066725        0.76655220350667
C           -1.40603246483448        3.98286874151185        0.38673295292876
C           -0.39126304438727        4.81153535220183       -0.15748888802314
C           -0.59500775140243        6.21015337530984       -0.26080417760945
C           -2.58367529421813        0.56523567387646        0.43044437103421
C           -0.70697625743658       -2.67413024572180       -1.17813569840621
C            0.66610965908402       -2.55050216226077       -1.15550209202427
C            3.47329160051219       -1.46324416442901       -1.11563747956334
C            4.84806136870711       -1.35776132455173       -1.11313709468259
C            8.90488194656096       -2.27162242346318        1.35170554846657
C            9.65796051109664       -3.23965714938688        1.98812439724920
H            9.85303755908824       -5.32095965433447        2.46069909423519
H            7.79680903684844       -5.95634995993551        1.24713977880236
H            6.46059462338651       -4.24491687757084        0.09603161380351
H            6.15461227708337        0.87076439217871       -0.07888275622016
H            7.27330577366429        2.72519362852791       -1.24213325480967
H            9.38390607903223        2.33343271867657       -2.46556470921303
H           10.35994864374920        0.06442828375891       -2.52087193768437
H            9.23515976018157       -1.79503145123580       -1.37332737276833
H            5.45852833509022       -2.49589425935312        2.01108297895924
H            3.01835546964431       -2.69088533431707        1.99521959145419
H            1.04445521572696       -1.38480317672167        1.99180937433895
H           -1.38409289074477       -1.62001729831061        1.96571649177338
H           -4.69051994156946       -5.59171692996051       -1.75925527823656
H           -6.59791883663843       -7.06357172271490       -2.38535684986919
H           -8.90405387593471       -6.31169482332735       -1.91843520788303
H           -9.32590248029563       -4.16309007347657       -0.89381560415243
H           -9.61559659331087       -2.33766312727774       -0.25467060362366
H           -9.97645692942717       -0.11012550815250        0.62522624938600
H           -8.05059990629929        1.33730263300011        1.19583121335314
H           -5.77188082284189        0.49015876220614        0.92684051057683
H           -4.50613061980523       -0.86942633526258        2.82135208557885
H           -3.75235826129897        1.13641982209697        4.05490955220395
H           -2.22371269338988        2.74478683692798        2.98427831882280
H            0.18048518959549        0.99593674718992        0.10897934663359
H            1.93484389202786        2.42410541395853       -0.84899105953316
H            2.76871727210491        4.65861877414395       -1.44872267714942
H            2.42086778016347        7.08783396515747       -1.60524077986372
H            0.98467067833151        9.05345378103832       -1.26587898251859
H           -1.14891235217645       10.03603308638886       -0.53134414820633
H           -2.93615431790375        8.60123137876580        0.36745436587508
H           -3.78209377049476        6.36284883360023        0.94924084383811
H           -3.43352953963781        3.95020012213922        1.13310854492724
H           -2.26418296595052        0.39867060741467       -0.58800890041699
H           -1.21271623126859       -3.04779775067685       -2.05576432346151
H            1.24167231342131       -2.84059352517538       -2.02208100916750
H            2.92148414604821       -1.15970191420705       -1.99331709395409
H            5.36376042134129       -0.98827455433492       -1.98762509896032
H            9.20993447920077       -1.23561683888643        1.38398638856482
H           10.55464811956795       -2.95285385930118        2.51825795767327

          :  Hamiltonian                  GFN2-xTB          :
         :: gradient norm              0.000069497009 Eh/a0 ::
         :: HOMO-LUMO gap              1.865394041728 eV    ::
         :: SCC energy              -162.487608989315 Eh    ::
         :: -> dispersion             -0.153091656769 Eh    ::
         :: -> Gsolv                  -0.065383531635 Eh    ::
         :: repulsion energy           3.046201219781 Eh    ::

    * Orbital Energies and Occupations

         #    Occupation            Energy/Eh            Energy/eV
      -------------------------------------------------------------
         1        2.0000           -0.6884082             -18.7325
       ...           ...                  ...                  ...
       137        2.0000           -0.4075870             -11.0910
       138        2.0000           -0.4070510             -11.0764
       139        2.0000           -0.4050926             -11.0231
       140        2.0000           -0.4046124             -11.0101
       141        2.0000           -0.4044424             -11.0054
       142        2.0000           -0.3986861             -10.8488
       143        2.0000           -0.3937060             -10.7133
       144        2.0000           -0.3924510             -10.6791
       145        2.0000           -0.3829557             -10.4208
       146        2.0000           -0.3799375             -10.3386
       147        2.0000           -0.3658577              -9.9555
       148        2.0000           -0.3653254              -9.9410
       149        2.0000           -0.3490898              -9.4992 (HOMO)
       150                         -0.2805379              -7.6338 (LUMO)
       151                         -0.2638950              -7.1809
       152                         -0.2520464              -6.8585
       153                         -0.2478237              -6.7436
       154                         -0.2458473              -6.6898
       155                         -0.2380747              -6.4783
       156                         -0.2367598              -6.4426
       157                         -0.2305743              -6.2742
       158                         -0.2276909              -6.1958
       159                         -0.2273222              -6.1858
       160                         -0.2253850              -6.1330
       ...                                ...                  ...
       295                          0.7279972              19.8098
      -------------------------------------------------------------
                  HL-Gap            0.0685520 Eh            1.8654 eV

     #   Z          covCN         q      C6AA      α(0)
     1   6 C        2.919    -0.039    28.972     8.827
     2   6 C        2.919    -0.030    28.753     8.793
     3   6 C        2.922    -0.048    29.189     8.860
     4   6 C        2.923     0.065    26.536     8.448
     5   7 N        2.752    -0.078    22.757     7.085
     6   6 C        2.923     0.065    26.535     8.448
     7   6 C        2.922    -0.048    29.190     8.860
     8   6 C        2.919    -0.030    28.754     8.793
     9   6 C        2.919    -0.039    28.974     8.827
    10   6 C        2.919    -0.030    28.752     8.793
    11   6 C        2.922    -0.048    29.186     8.859
    12   6 C        2.923     0.065    26.545     8.449
    13   6 C        2.920    -0.049    29.206     8.862
    14   6 C        2.924    -0.034    28.847     8.808
    15   6 C        2.975     0.001    28.004     8.680
    16   6 C        2.975     0.013    27.721     8.636
    17   6 C        2.923    -0.035    28.871     8.811
    18   6 C        2.920    -0.035    28.862     8.810
    19   6 C        2.974    -0.004    28.116     8.698
    20   6 C        3.193     0.138    24.527     8.076
    21   7 N        1.893    -0.320    29.156     8.005
    22   6 C        3.206     0.060    26.075     8.316
    23   6 C        2.985    -0.003    28.100     8.695
    24   6 C        2.921    -0.034    28.835     8.806
    25   6 C        2.917    -0.032    28.796     8.800
    26   6 C        2.917    -0.034    28.857     8.809
    27   6 C        2.921    -0.037    28.910     8.817
    28   6 C        2.979    -0.005    28.144     8.702
    29   6 C        2.979    -0.002    28.068     8.690
    30   6 C        2.922    -0.035    28.875     8.812
    31   6 C        2.916    -0.034    28.854     8.808
    32   6 C        2.917    -0.033    28.811     8.802
    33   6 C        2.919    -0.041    29.016     8.833
    34   6 C        2.978    -0.005    28.146     8.702
    35   6 C        3.073     0.022    27.443     8.589
    36   7 N        2.841    -0.054    22.288     7.012
    37   6 C        2.911     0.065    26.533     8.447
    38   6 C        2.920    -0.041    29.019     8.834
    39   6 C        2.918    -0.028    28.702     8.785
    40   6 C        2.923    -0.034    28.839     8.807
    41   6 C        2.978     0.019    27.589     8.616
    42   6 C        2.977     0.001    28.001     8.680
    43   6 C        2.921    -0.034    28.857     8.809
    44   6 C        2.918    -0.037    28.925     8.819
    45   6 C        2.982     0.010    27.790     8.647
    46   6 C        2.913    -0.036    28.906     8.816
    47   6 C        2.913    -0.036    28.903     8.816
    48   6 C        2.982     0.011    27.774     8.645
    49   6 C        2.920    -0.037    28.929     8.820
    50   6 C        2.913    -0.031    28.770     8.796
    51   6 C        2.920    -0.037    28.932     8.821
    52   6 C        2.982     0.010    27.776     8.645
    53   6 C        2.913    -0.037    28.914     8.817
    54   6 C        2.912    -0.037    28.916     8.818
    55   6 C        2.982     0.007    27.856     8.658
    56   6 C        2.995     0.002    27.971     8.676
    57   6 C        2.997     0.002    27.964     8.675
    58   6 C        2.928    -0.044    29.091     8.845
    59   6 C        2.925    -0.029    28.734     8.791
    60   6 C        2.923    -0.034    28.842     8.807
    61   6 C        2.924    -0.034    28.850     8.808
    62   6 C        2.920    -0.049    29.211     8.863
    63   6 C        2.922    -0.048    29.187     8.860
    64   6 C        2.919    -0.030    28.754     8.793
    65   1 H        0.926     0.032     2.561     2.503
    66   1 H        0.926     0.033     2.540     2.492
    67   1 H        0.926     0.032     2.561     2.503
    68   1 H        0.926     0.032     2.557     2.501
    69   1 H        0.926     0.033     2.537     2.491
    70   1 H        0.926     0.032     2.561     2.502
    71   1 H        0.926     0.033     2.543     2.494
    72   1 H        0.926     0.031     2.568     2.506
    73   1 H        0.926     0.033     2.541     2.493
    74   1 H        0.926     0.036     2.505     2.475
    75   1 H        0.926     0.039     2.465     2.455
    76   1 H        0.926     0.026     2.637     2.539
    77   1 H        0.926     0.043     2.411     2.428
    78   1 H        0.926     0.032     2.554     2.499
    79   1 H        0.926     0.032     2.559     2.502
    80   1 H        0.926     0.035     2.522     2.484
    81   1 H        0.926     0.037     2.493     2.469
    82   1 H        0.926     0.033     2.550     2.497
    83   1 H        0.926     0.032     2.561     2.503
    84   1 H        0.926     0.029     2.600     2.521
    85   1 H        0.926     0.040     2.444     2.445
    86   1 H        0.926     0.046     2.365     2.405
    87   1 H        0.926     0.047     2.361     2.403
    88   1 H        0.926     0.031     2.579     2.511
    89   1 H        0.926     0.036     2.508     2.477
    90   1 H        0.926     0.035     2.521     2.483
    91   1 H        0.926     0.034     2.526     2.485
    92   1 H        0.926     0.033     2.537     2.491
    93   1 H        0.926     0.032     2.554     2.499
    94   1 H        0.926     0.033     2.541     2.493
    95   1 H        0.926     0.034     2.534     2.489
    96   1 H        0.926     0.034     2.527     2.486
    97   1 H        0.926     0.036     2.504     2.475
    98   1 H        0.926     0.041     2.434     2.440
    99   1 H        0.926     0.041     2.433     2.439
   100   1 H        0.926     0.037     2.491     2.468
   101   1 H        0.926     0.034     2.536     2.491
   102   1 H        0.926     0.032     2.563     2.503
   103   1 H        0.926     0.033     2.540     2.492

molecular dipole:
                 x           y           z       tot (Debye)
 q only:        0.998       1.353       0.549
   full:        0.827       1.566       0.705       4.845

 projected vibrational frequencies (cm⁻¹)
eigval :       -0.00    -0.00     0.00     0.00     0.00     0.00
eigval :        6.56     9.74    14.59    15.64    21.05    26.07
eigval :       28.12    36.18    40.99    47.92    54.04    55.92
eigval :       67.24    70.50    74.70    77.67    84.99    87.22
eigval :       93.59   106.50   108.33   111.59   122.19   138.56
eigval :      148.58   165.52   184.42   203.79   207.30   212.20
eigval :      219.93   228.08   237.28   239.47   245.51   253.28
eigval :      259.52   269.50   274.11   285.64   306.09   316.43
eigval :      318.73   341.35   354.61   370.87   372.83   376.31
eigval :      378.76   380.44   389.02   394.08   394.98   397.39
eigval :      413.43   414.70   423.65   430.29   439.30   444.48
eigval :      448.71   460.50   469.66   477.18   479.67   486.63
eigval :      492.66   495.18   503.25   513.02   516.94   519.48
eigval :      524.80   534.46   537.00   545.03   574.42   583.94
eigval :      585.53   586.33   592.65   600.51   606.58   611.94
eigval :      617.10   628.21   639.58   645.82   654.84   660.87
eigval :      662.53   665.11   669.25   673.27   677.68   679.94
eigval :      681.08   684.43   689.55   692.84   706.45   714.43
eigval :      727.50   734.08   754.28   755.63   756.50   759.63
eigval :      762.50   765.01   778.38   779.86   792.66   802.49
eigval :      806.77   811.50   823.11   832.90   837.96   852.75
eigval :      862.44   864.85   869.65   872.82   874.10   874.89
eigval :      876.37   887.40   891.63   892.47   893.06   905.01
eigval :      908.89   909.19   911.61   915.12   915.99   919.25
eigval :      920.63   922.52   923.82   924.28   925.36   925.94
eigval :      926.71   927.93   928.08   928.52   929.19   932.94
eigval :      938.02   939.65   957.84   976.47   987.41   995.13
eigval :     1003.82  1008.56  1017.78  1026.05  1039.52  1076.71
eigval :     1079.77  1081.51  1082.54  1085.01  1106.67  1108.55
eigval :     1116.10  1118.74  1122.30  1124.07  1130.93  1136.53
eigval :     1145.76  1146.01  1151.69  1160.46  1173.66  1177.39
eigval :     1178.65  1179.28  1179.88  1184.08  1184.26  1184.59
eigval :     1192.28  1193.62  1196.37  1200.66  1201.20  1210.17
eigval :     1214.31  1222.78  1233.87  1245.92  1254.33  1258.82
eigval :     1259.82  1268.20  1272.16  1276.59  1277.66  1281.34
eigval :     1283.27  1288.66  1305.85  1307.91  1310.03  1313.74
eigval :     1314.79  1316.71  1323.74  1324.11  1326.22  1331.31
eigval :     1333.48  1337.73  1347.30  1358.91  1369.98  1386.39
eigval :     1391.18  1394.78  1406.72  1409.34  1412.65  1413.91
eigval :     1416.18  1426.35  1432.70  1434.32  1440.83  1443.47
eigval :     1449.23  1460.70  1469.77  1471.75  1472.61  1488.15
eigval :     1494.88  1503.58  1512.82  1515.54  1540.30  1542.49
eigval :     1551.99  1558.89  1561.13  1563.53  1568.22  1571.55
eigval :     1575.67  1578.24  1579.46  1586.23  1586.65  1591.28
eigval :     1593.19  1596.64  1602.56  1603.38  1603.60  1606.06
eigval :     3062.88  3065.50  3067.26  3068.34  3068.60  3070.36
eigval :     3071.10  3071.44  3071.54  3072.36  3073.00  3074.47
eigval :     3075.92  3076.15  3077.46  3078.39  3080.59  3081.26
eigval :     3081.28  3081.37  3082.51  3082.82  3083.04  3083.54
eigval :     3084.71  3086.24  3086.49  3087.04  3088.24  3088.89
eigval :     3090.02  3093.28  3094.09  3095.14  3095.25  3097.13
eigval :     3097.23  3108.26  3111.82

   temp. (K)  partition function   enthalpy   heat capacity  entropy
                                   cal/mol     cal/K/mol   cal/K/mol   J/K/mol
 298.15  VIB  0.832E+23            29047.036    186.148    180.818
         ROT  0.254E+09              888.752      2.981     41.442
         INT  0.211E+32            29935.789    189.128    222.260
         TR   0.225E+29             1481.254      4.968     45.947
         TOT                       31417.0425   194.0966   268.2068  1122.1771

       T/K    H(0)-H(T)+PV         H(T)/Eh          T*S/Eh         G(T)/Eh
   ------------------------------------------------------------------------
    298.15    0.500662E-01    0.842750E+00    0.127434E+00    0.715317E+00
   ------------------------------------------------------------------------

         :::::::::::::::::::::::::::::::::::::::::::::::::::::
         ::                  THERMODYNAMIC                  ::
         :::::::::::::::::::::::::::::::::::::::::::::::::::::
         :: total free energy        -158.726091108913 Eh   ::
         ::.................................................::
         :: total energy             -159.441407769891 Eh   ::
         :: zero point energy           0.792684101253 Eh   ::
         :: G(RRHO) w/o ZPVE           -0.077367440276 Eh   ::
         :: G(RRHO) contrib.            0.715316660977 Eh   ::
         :::::::::::::::::::::::::::::::::::::::::::::::::::::

           -------------------------------------------------
          | TOTAL ENERGY             -159.441407769891 Eh   |
          | TOTAL ENTHALPY           -158.598657424615 Eh   |
          | TOTAL FREE ENERGY        -158.726091108913 Eh   |
          | GRADIENT NORM               0.000069497116 Eh/α |
          | HOMO-LUMO GAP               1.865394154590 eV   |
           -------------------------------------------------

 * finished run on 2025/08/25 at 22:53:51.950
