   * xtb version 6.7.1 (edcfbbe) compiled by 'albert@albert-system' on 2024-07-22

   ID    Z sym.   atoms
    1    6 C      1-4, 6-20, 22-35, 37-64
    2    7 N      5, 21, 36
    3    1 H      65-103

          program call               : xtb data2507/toluene/TPAPyPI/TPAPyPI_toluene_S0_finalOpt.xtbopt.xyz --gfn 2 --uhf 2 --gbsa toluene --ohess vtight --parallel 40 --molden --ceasefiles --namespace data2507/toluene/TPAPyPI/TPAPyPI_toluene_T1_preOpt
      * Solvation model:               GBSA
        Solvent                        toluene
        Solvent mass                       9.2140E+01 g/mol
          :  Hamiltonian                  GFN2-xTB          :
 * total energy  :  -159.3588685 Eh     change       -0.7205756E-08 Eh
 * total energy  :  -159.3642042 Eh     change       -0.5335762E-02 Eh
 * total energy  :  -159.3657103 Eh     change       -0.1506058E-02 Eh
 * total energy  :  -159.3658097 Eh     change       -0.9939048E-04 Eh
 * total energy  :  -159.3659444 Eh     change       -0.1347092E-03 Eh
 * total energy  :  -159.3659993 Eh     change       -0.5494542E-04 Eh
 * total energy  :  -159.3660657 Eh     change       -0.6635967E-04 Eh
 * total energy  :  -159.3661116 Eh     change       -0.4586641E-04 Eh
 * total energy  :  -159.3661347 Eh     change       -0.2311852E-04 Eh
 * total energy  :  -159.3661966 Eh     change       -0.6194141E-04 Eh
 * total energy  :  -159.3667452 Eh     change       -0.8146720E-06 Eh
 * total energy  :  -159.3667460 Eh     change       -0.8115526E-06 Eh
 * total energy  :  -159.3667468 Eh     change       -0.7783316E-06 Eh
 * total energy  :  -159.3667475 Eh     change       -0.6868981E-06 Eh
 * total energy  :  -159.3667481 Eh     change       -0.5916343E-06 Eh
 * total energy  :  -159.3667486 Eh     change       -0.5336101E-06 Eh
 * total energy  :  -159.3667492 Eh     change       -0.5306928E-06 Eh
 * total energy  :  -159.3667498 Eh     change       -0.6279760E-06 Eh
 * total energy  :  -159.3667498 Eh     change       -0.3986770E-08 Eh
   *** GEOMETRY OPTIMIZATION CONVERGED AFTER 68 ITERATIONS ***

 final structure:
================
103
 xtb: 6.7.1 (edcfbbe)
C            9.28076924595974       -4.31846650065278        2.08040400279109
C            8.13627927377463       -4.74241241018855        1.42334791939147
C            7.34983562053719       -3.83945084514718        0.73453086467442
C            7.69861009075242       -2.48840596283941        0.69947645678907
N            6.90517039676626       -1.56997579519605        0.00181615943820
C            7.50679963096797       -0.51959625428211       -0.70154568193947
C            6.91197531499361        0.74272675686025       -0.73037601394241
C            7.51030914239884        1.77704496387015       -1.42368266941555
C            8.70767388478987        1.57428812475155       -2.09183089577846
C            9.30303361504863        0.32286633774908       -2.06491089125220
C            8.71003243500692       -0.71983536907381       -1.37954403698642
C            5.51519405589575       -1.70233790100014        0.00675010269730
C            4.84594162308063       -2.13570984623468        1.15361232000134
C            3.47379165969693       -2.26616239705202        1.15422077977200
C            2.72283852576549       -1.98017736461620        0.01363393041892
C            1.26337286493063       -2.13417121067795        0.01253187746527
C            0.50115740644373       -1.74541301028729        1.11388867614756
C           -0.87334042442183       -1.86852120625273        1.10674479686941
C           -1.52832737161771       -2.38991807995353       -0.00822221115036
C           -2.97597020811995       -2.51920133870614       -0.08129842516385
N           -3.58349749455798       -3.55688671202961       -0.60363483009220
C           -4.91518299271444       -3.30093279870163       -0.49478354351143
C           -5.99857096111707       -4.14054375870287       -0.87688000876659
C           -5.77737039548919       -5.40819411784254       -1.42714198619564
C           -6.83633188441744       -6.21753376501176       -1.75573800407993
C           -8.13626407303130       -5.76790717593856       -1.53068104584437
C           -8.36593302414708       -4.52076492329880       -0.99749916523818
C           -7.31048525137693       -3.65912928547063       -0.65987019661232
C           -7.52135486532359       -2.32042199421871       -0.13489788479895
C           -8.80762049247875       -1.77717935628935       -0.00133439827804
C           -9.01517387061400       -0.49325410025042        0.44523884988667
C           -7.93116766314544        0.31862370750492        0.76493408741447
C           -6.65542997294882       -0.17820422213903        0.65739900369884
C           -6.42307113692794       -1.49430537973871        0.23178049008238
C           -5.12113649900038       -2.05470848965760        0.09606226325657
N           -3.86311542441678       -1.56914667153688        0.37130996410025
C           -3.47878139744576       -0.36278727283871        0.99648441515830
C           -3.87985128751289       -0.09131227065177        2.30361332505748
C           -3.43921220746155        1.07570470393353        2.91052587937182
C           -2.60931334745940        1.95003263329238        2.24015503952659
C           -2.19174485086277        1.68711646766808        0.92531157372255
C           -1.25899615510239        2.54901819058337        0.23017157605415
C           -0.19849562505523        1.96403112569709       -0.47893273325287
C            0.81373948323455        2.71009513982100       -1.01295809713404
C            0.81679537924211        4.13594984482494       -0.89565251878404
C            1.84987282541106        4.91564785434437       -1.41274744580127
C            1.82445614358873        6.29933995400053       -1.30750915357520
C            0.74525916734156        6.95139629993283       -0.70069688164457
C            0.68211431135906        8.36793638925538       -0.59797967140946
C           -0.40074217672218        8.98658069984085       -0.00236995183611
C           -1.45192068304366        8.24612441922206        0.49660344155388
C           -1.44033752202299        6.82469917446386        0.41513210592695
C           -2.50253264313043        6.04333511451020        0.87556636981536
C           -2.45806633070356        4.65679156087096        0.80054865067192
C           -1.34167161745157        3.99080883510217        0.29177127137936
C           -0.28123089894414        4.76492316072058       -0.25151839715902
C           -0.32398728949755        6.17727620106673       -0.17617865424690
C           -2.64835938752423        0.50960407588852        0.31701949453857
C           -0.76671405902598       -2.81739590606839       -1.09636759628149
C            0.60543402166363       -2.68304543005705       -1.08889704364019
C            3.39718063712003       -1.54911000788679       -1.12945008621377
C            4.76800921281211       -1.40619816739346       -1.13565436443888
C            8.84995048747097       -2.06605412646860        1.36556615867134
C            9.63295665457440       -2.97831979068024        2.04616689016601
H            9.89423897528748       -5.02769709059876        2.61515561923867
H            7.85809829239283       -5.78598538066970        1.43950272013738
H            6.46537810364502       -4.17396197506054        0.21247479020755
H            5.98590643121520        0.90668498534784       -0.19906132371146
H            7.04251794915506        2.75062941528399       -1.43393312141067
H            9.17396891760969        2.38589150669275       -2.62968527579337
H           10.23278099594045        0.15469642550427       -2.58825224477298
H            9.17030587893111       -1.69693644065674       -1.36938884340192
H            5.41187393911108       -2.36209544162407        2.04530281853016
H            2.97526066813330       -2.61173577193788        2.04752773489678
H            0.98892494473167       -1.31857797953891        1.97780154827240
H           -1.43716862483323       -1.56987783942755        1.97784519890778
H           -4.75529318546571       -5.72276968794599       -1.57436885486355
H           -6.66810384788199       -7.19698156599314       -2.17912017967714
H           -8.97328233772203       -6.40490318643664       -1.77834774271610
H           -9.38834068482419       -4.21686147235998       -0.83831895236931
H           -9.66910972494736       -2.36944418425143       -0.26420676337502
H          -10.02122764788520       -0.10988208106206        0.53352569263107
H           -8.09020757867330        1.33616065588690        1.09058313783454
H           -5.81598670790294        0.45847269895608        0.88744382519403
H           -4.51798534272646       -0.78701277628433        2.82784103294040
H           -3.73612501235860        1.28851872984556        3.92700369165591
H           -2.23190564342732        2.82521188754136        2.74692853938751
H           -0.15251637343544        0.88527401734905       -0.53896109957223
H            1.64315217071144        2.23280936245228       -1.51346572850484
H            2.68017137367291        4.42890909882901       -1.90482963221790
H            2.63975931637271        6.88696841036767       -1.70460898332309
H            1.49604200396760        8.95356870344930       -0.99917816559094
H           -0.42620942077795       10.06539875465191        0.06685313398772
H           -2.30195995338109        8.73217339881707        0.95231842227328
H           -3.37393658795591        6.52833844872861        1.29206096603283
H           -3.31535434179397        4.08807920244382        1.12782962032454
H           -2.36803245237358        0.28558719306528       -0.70169890057203
H           -1.27487491560831       -3.24788285159278       -1.94605046296326
H            1.17890166358847       -3.02278033013198       -1.93863449542206
H            2.83623361067316       -1.31174054190041       -2.02120022228116
H            5.27402164088276       -1.07347991329835       -2.03007294359961
H            9.11963336605373       -1.02024597915915        1.35038636796091
H           10.51995453877195       -2.63871600570166        2.56054010702096

          :  Hamiltonian                  GFN2-xTB          :
         :: gradient norm              0.000054258225 Eh/a0 ::
         :: HOMO-LUMO gap              0.524725808799 eV    ::
         :: SCC energy              -162.395155749793 Eh    ::
         :: -> dispersion             -0.152950653659 Eh    ::
         :: -> Gsolv                  -0.066253748016 Eh    ::
         :: repulsion energy           3.028405954812 Eh    ::

    * Orbital Energies and Occupations

         #    Occupation            Energy/Eh            Energy/eV
      -------------------------------------------------------------
         1        2.0000           -0.6876316             -18.7114
       ...           ...                  ...                  ...
       138        2.0000           -0.4058614             -11.0441
       139        2.0000           -0.4038396             -10.9890
       140        2.0000           -0.4010502             -10.9131
       141        2.0000           -0.3982226             -10.8362
       142        2.0000           -0.3971829             -10.8079
       143        2.0000           -0.3959424             -10.7741
       144        2.0000           -0.3895553             -10.6003
       145        2.0000           -0.3824650             -10.4074
       146        2.0000           -0.3796646             -10.3312
       147        2.0000           -0.3654400              -9.9441
       148        1.8345           -0.3558405              -9.6829
       149        1.1656           -0.3527671              -9.5993
       150        1.0000           -0.2841795              -7.7329 (HOMO)
       151        0.0000           -0.2648966              -7.2082 (LUMO)
       152                         -0.2512570              -6.8371
       153                         -0.2486714              -6.7667
       154                         -0.2396732              -6.5218
       155                         -0.2366998              -6.4409
       156                         -0.2338650              -6.3638
       157                         -0.2330361              -6.3412
       158                         -0.2299079              -6.2561
       159                         -0.2280816              -6.2064
       160                         -0.2275908              -6.1931
       161                         -0.2271402              -6.1808
       ...                                ...                  ...
       295                          0.7279764              19.8092
      -------------------------------------------------------------
                  HL-Gap            0.0192829 Eh            0.5247 eV

     #   Z          covCN         q      C6AA      α(0)
     1   6 C        2.919    -0.035    28.868     8.811
     2   6 C        2.919    -0.028    28.700     8.785
     3   6 C        2.922    -0.045    29.116     8.849
     4   6 C        2.924     0.065    26.553     8.450
     5   7 N        2.752    -0.058    22.368     7.024
     6   6 C        2.924     0.065    26.551     8.450
     7   6 C        2.922    -0.045    29.112     8.848
     8   6 C        2.919    -0.028    28.698     8.785
     9   6 C        2.919    -0.035    28.868     8.811
    10   6 C        2.919    -0.028    28.702     8.785
    11   6 C        2.922    -0.045    29.112     8.848
    12   6 C        2.924     0.064    26.559     8.451
    13   6 C        2.920    -0.045    29.124     8.850
    14   6 C        2.923    -0.032    28.800     8.801
    15   6 C        2.975     0.007    27.863     8.658
    16   6 C        2.976     0.013    27.713     8.635
    17   6 C        2.923    -0.034    28.838     8.806
    18   6 C        2.920    -0.034    28.836     8.806
    19   6 C        2.974    -0.002    28.075     8.691
    20   6 C        3.196     0.138    24.506     8.070
    21   7 N        1.893    -0.321    29.172     8.007
    22   6 C        3.207     0.060    26.064     8.313
    23   6 C        2.985    -0.003    28.102     8.696
    24   6 C        2.921    -0.033    28.833     8.806
    25   6 C        2.917    -0.032    28.796     8.800
    26   6 C        2.917    -0.034    28.855     8.809
    27   6 C        2.921    -0.036    28.907     8.817
    28   6 C        2.979    -0.005    28.143     8.702
    29   6 C        2.979    -0.002    28.069     8.691
    30   6 C        2.922    -0.035    28.878     8.812
    31   6 C        2.916    -0.034    28.850     8.808
    32   6 C        2.917    -0.032    28.809     8.802
    33   6 C        2.919    -0.041    29.007     8.832
    34   6 C        2.978    -0.005    28.145     8.702
    35   6 C        3.075     0.023    27.407     8.583
    36   7 N        2.841    -0.054    22.289     7.012
    37   6 C        2.909     0.063    26.583     8.454
    38   6 C        2.919    -0.047    29.163     8.856
    39   6 C        2.916    -0.031    28.764     8.795
    40   6 C        2.922    -0.037    28.921     8.819
    41   6 C        2.974     0.014    27.702     8.633
    42   6 C        2.972    -0.007    28.194     8.710
    43   6 C        2.913    -0.034    28.848     8.807
    44   6 C        2.913    -0.043    29.071     8.841
    45   6 C        2.978     0.006    27.888     8.662
    46   6 C        2.915    -0.041    29.012     8.833
    47   6 C        2.916    -0.043    29.073     8.842
    48   6 C        2.977     0.009    27.822     8.652
    49   6 C        2.917    -0.044    29.086     8.844
    50   6 C        2.906    -0.031    28.762     8.794
    51   6 C        2.917    -0.044    29.090     8.844
    52   6 C        2.977     0.009    27.819     8.652
    53   6 C        2.916    -0.043    29.077     8.842
    54   6 C        2.915    -0.041    29.012     8.833
    55   6 C        2.975     0.004    27.936     8.670
    56   6 C        2.993     0.000    28.010     8.682
    57   6 C        2.996     0.000    28.013     8.682
    58   6 C        2.928    -0.048    29.196     8.861
    59   6 C        2.925    -0.029    28.734     8.791
    60   6 C        2.923    -0.033    28.829     8.805
    61   6 C        2.923    -0.032    28.797     8.800
    62   6 C        2.920    -0.045    29.126     8.850
    63   6 C        2.922    -0.045    29.113     8.848
    64   6 C        2.919    -0.028    28.702     8.785
    65   1 H        0.926     0.037     2.491     2.468
    66   1 H        0.926     0.038     2.471     2.458
    67   1 H        0.926     0.037     2.485     2.465
    68   1 H        0.926     0.037     2.489     2.467
    69   1 H        0.926     0.038     2.477     2.461
    70   1 H        0.926     0.037     2.493     2.469
    71   1 H        0.926     0.038     2.470     2.458
    72   1 H        0.926     0.037     2.484     2.465
    73   1 H        0.926     0.039     2.457     2.451
    74   1 H        0.926     0.041     2.434     2.440
    75   1 H        0.926     0.040     2.444     2.445
    76   1 H        0.926     0.028     2.615     2.529
    77   1 H        0.926     0.043     2.406     2.426
    78   1 H        0.926     0.033     2.548     2.496
    79   1 H        0.926     0.032     2.556     2.500
    80   1 H        0.926     0.035     2.522     2.483
    81   1 H        0.926     0.037     2.488     2.467
    82   1 H        0.926     0.033     2.548     2.496
    83   1 H        0.926     0.031     2.569     2.506
    84   1 H        0.926     0.030     2.590     2.517
    85   1 H        0.926     0.035     2.520     2.482
    86   1 H        0.926     0.040     2.444     2.445
    87   1 H        0.926     0.043     2.412     2.429
    88   1 H        0.925     0.025     2.652     2.546
    89   1 H        0.926     0.030     2.588     2.516
    90   1 H        0.926     0.030     2.593     2.518
    91   1 H        0.926     0.028     2.609     2.526
    92   1 H        0.926     0.028     2.617     2.530
    93   1 H        0.925     0.027     2.628     2.535
    94   1 H        0.926     0.027     2.624     2.533
    95   1 H        0.926     0.028     2.617     2.530
    96   1 H        0.926     0.032     2.565     2.504
    97   1 H        0.926     0.031     2.567     2.505
    98   1 H        0.926     0.043     2.411     2.428
    99   1 H        0.926     0.043     2.404     2.425
   100   1 H        0.926     0.041     2.429     2.437
   101   1 H        0.926     0.039     2.456     2.451
   102   1 H        0.926     0.037     2.487     2.466
   103   1 H        0.926     0.038     2.471     2.458

molecular dipole:
                 x           y           z       tot (Debye)
 q only:        3.089      -0.341       0.397
   full:        2.877      -0.056       0.558       7.451

 projected vibrational frequencies (cm⁻¹)
eigval :       -0.00    -0.00     0.00     0.00     0.00     0.00
eigval :        5.21     9.77    13.43    14.43    21.88    22.70
eigval :       26.99    33.51    39.97    47.96    53.40    56.77
eigval :       63.48    71.09    73.59    75.40    83.58    86.67
eigval :       93.95   105.75   110.79   112.00   123.58   138.98
eigval :      139.73   163.61   183.91   192.47   197.90   207.97
eigval :      218.93   226.48   235.95   239.68   246.63   251.85
eigval :      259.94   270.45   276.73   286.06   304.73   309.82
eigval :      316.36   340.83   354.85   370.60   372.48   373.76
eigval :      377.72   378.10   386.63   393.06   394.04   396.82
eigval :      404.52   413.85   419.11   422.85   430.44   438.65
eigval :      441.98   446.91   454.58   458.13   475.28   483.64
eigval :      492.31   496.75   498.43   507.35   514.16   518.84
eigval :      522.37   531.33   534.56   543.05   558.14   582.31
eigval :      584.02   585.02   588.69   592.47   602.59   611.40
eigval :      616.69   617.65   627.45   638.69   644.90   657.52
eigval :      660.07   663.83   666.06   668.19   671.13   675.85
eigval :      678.08   680.12   684.19   688.76   706.61   712.17
eigval :      721.96   725.19   734.65   746.63   752.60   755.37
eigval :      756.49   762.75   764.20   765.96   781.60   788.81
eigval :      796.57   799.00   803.03   804.69   812.02   827.09
eigval :      831.83   854.98   859.69   864.38   870.72   871.53
eigval :      871.66   871.85   872.66   873.69   877.10   893.41
eigval :      894.51   899.95   906.01   907.62   908.88   911.16
eigval :      912.30   912.76   914.88   920.27   923.63   925.37
eigval :      926.66   927.74   928.51   929.15   929.83   931.46
eigval :      934.16   939.15   949.38   974.01   983.56   986.20
eigval :     1002.88  1006.94  1015.63  1019.10  1036.32  1076.74
eigval :     1078.37  1080.81  1081.78  1084.23  1106.02  1106.96
eigval :     1119.14  1120.73  1121.25  1122.88  1131.73  1134.86
eigval :     1138.94  1143.80  1150.05  1151.46  1163.99  1173.65
eigval :     1178.77  1179.29  1179.60  1180.86  1182.29  1183.62
eigval :     1188.32  1191.24  1192.61  1198.44  1200.65  1205.32
eigval :     1210.42  1212.75  1225.93  1235.39  1245.91  1253.75
eigval :     1258.23  1265.89  1269.64  1275.22  1275.45  1276.77
eigval :     1280.74  1285.43  1298.14  1302.73  1306.65  1313.04
eigval :     1313.71  1316.58  1319.98  1321.99  1323.55  1324.40
eigval :     1329.98  1334.10  1337.59  1346.60  1360.28  1366.62
eigval :     1372.15  1379.01  1392.60  1394.58  1404.96  1408.21
eigval :     1412.71  1414.45  1423.76  1430.91  1432.63  1436.89
eigval :     1439.07  1450.27  1457.21  1461.97  1464.12  1464.58
eigval :     1478.44  1489.69  1490.73  1507.83  1511.68  1512.67
eigval :     1514.53  1515.20  1532.01  1541.21  1548.68  1554.32
eigval :     1557.19  1562.40  1567.77  1571.58  1572.33  1574.94
eigval :     1580.31  1585.07  1592.11  1592.76  1598.84  1602.58
eigval :     3060.76  3062.05  3064.48  3067.77  3068.87  3073.02
eigval :     3075.35  3075.67  3075.94  3076.39  3076.50  3077.19
eigval :     3077.76  3077.92  3078.68  3079.32  3080.64  3081.81
eigval :     3082.99  3083.09  3083.99  3085.03  3085.92  3086.23
eigval :     3087.28  3087.83  3088.61  3088.77  3090.20  3091.29
eigval :     3092.89  3093.99  3095.43  3096.40  3096.50  3096.68
eigval :     3096.85  3107.77  3111.06

   temp. (K)  partition function   enthalpy   heat capacity  entropy
                                   cal/mol     cal/K/mol   cal/K/mol   J/K/mol
 298.15  VIB  0.221E+24            29315.723    187.637    182.790
         ROT  0.252E+09              888.752      2.981     41.426
         INT  0.556E+32            30204.476    190.618    224.215
         TR   0.225E+29             1481.254      4.968     45.947
         TOT                       31685.7297   195.5859   270.1624  1130.3596

       T/K    H(0)-H(T)+PV         H(T)/Eh          T*S/Eh         G(T)/Eh
   ------------------------------------------------------------------------
    298.15    0.504944E-01    0.839480E+00    0.128363E+00    0.711117E+00
   ------------------------------------------------------------------------

         :::::::::::::::::::::::::::::::::::::::::::::::::::::
         ::                  THERMODYNAMIC                  ::
         :::::::::::::::::::::::::::::::::::::::::::::::::::::
         :: total free energy        -158.655633017502 Eh   ::
         ::.................................................::
         :: total energy             -159.366749798622 Eh   ::
         :: zero point energy           0.788985248919 Eh   ::
         :: G(RRHO) w/o ZPVE           -0.077868467800 Eh   ::
         :: G(RRHO) contrib.            0.711116781120 Eh   ::
         :::::::::::::::::::::::::::::::::::::::::::::::::::::

           -------------------------------------------------
          | TOTAL ENERGY             -159.366749798622 Eh   |
          | TOTAL ENTHALPY           -158.527270125288 Eh   |
          | TOTAL FREE ENERGY        -158.655633017502 Eh   |
          | GRADIENT NORM               0.000054320462 Eh/α |
          | HOMO-LUMO GAP               0.524714380110 eV   |
           -------------------------------------------------

 * finished run on 2025/08/25 at 22:54:08.541
