   * xtb version 6.7.1 (edcfbbe) compiled by 'albert@albert-system' on 2024-07-22

   ID    Z sym.   atoms
    1    6 C      1-10, 12-23, 25-30, 32-37
    2    7 N      11, 31
    3    5 B      24
    4    1 H      38-64

          program call               : xtb data2507/toluene/B-dpa-Cz/B-dpa-Cz_toluene_S0_finalOpt.xtbopt.xyz --gfn 2 --uhf 2 --gbsa toluene --ohess vtight --parallel 40 --molden --ceasefiles --namespace data2507/toluene/B-dpa-Cz/B-dpa-Cz_toluene_T1_preOpt
      * Solvation model:               GBSA
        Solvent                        toluene
        Solvent mass                       9.2140E+01 g/mol
          :  Hamiltonian                  GFN2-xTB          :
 * total energy  :   -93.6914172 Eh     change       -0.2915897E-08 Eh
 * total energy  :   -93.6925276 Eh     change       -0.1110397E-02 Eh
 * total energy  :   -93.6927854 Eh     change       -0.2577521E-03 Eh
 * total energy  :   -93.6928122 Eh     change       -0.2687397E-04 Eh
 * total energy  :   -93.6928293 Eh     change       -0.1702630E-04 Eh
 * total energy  :   -93.6928247 Eh     change        0.4591397E-05 Eh
 * total energy  :   -93.6928357 Eh     change       -0.1102579E-04 Eh
 * total energy  :   -93.6928454 Eh     change       -0.9699446E-05 Eh
 * total energy  :   -93.6928524 Eh     change       -0.7010179E-05 Eh
 * total energy  :   -93.6928606 Eh     change       -0.8175627E-05 Eh
 * total energy  :   -93.6929749 Eh     change       -0.1573060E-05 Eh
 * total energy  :   -93.6929766 Eh     change       -0.1733758E-05 Eh
 * total energy  :   -93.6929786 Eh     change       -0.1993812E-05 Eh
 * total energy  :   -93.6929809 Eh     change       -0.2292891E-05 Eh
 * total energy  :   -93.6929832 Eh     change       -0.2263319E-05 Eh
 * total energy  :   -93.6929851 Eh     change       -0.1895647E-05 Eh
 * total energy  :   -93.6929864 Eh     change       -0.1310315E-05 Eh
 * total energy  :   -93.6929872 Eh     change       -0.8163912E-06 Eh
 * total energy  :   -93.6929872 Eh     change       -0.5311151E-08 Eh
   *** GEOMETRY OPTIMIZATION CONVERGED AFTER 44 ITERATIONS ***

 final structure:
================
64
 xtb: 6.7.1 (edcfbbe)
C            1.54831605576977       -4.20763940164293       -1.60344777379187
C            0.72859828648145       -4.00092738403201       -0.32065298851315
C            1.53603064606547       -4.48415868970439        0.89400983236501
C           -0.53980325922838       -4.85381137092739       -0.42004130308549
C            0.42463956533541       -2.52029687753778       -0.15755620787225
C            1.48723928817942       -1.61696233244864       -0.04880625247919
C            1.27437764486401       -0.23736731217908        0.02737729960217
C           -0.02986217183073        0.29808769653350        0.02402574483602
C           -1.09319331635259       -0.63395746385110        0.02513756284349
C           -0.86221369831999       -2.00818585523226       -0.12718418200449
N           -2.38159445871814       -0.12904622444768        0.09151936921921
C           -3.58313690640653       -0.77347850814907        0.32215399864118
C           -3.86812629979124       -2.03162950292592        0.84059383007966
C           -5.19136459645997       -2.40973349550890        0.97236969128140
C           -6.23300348121996       -1.54771248793735        0.61996126227473
C           -5.96931763945205       -0.26802649814576        0.17423967707591
C           -4.64751309342252        0.13769027614246        0.03846913898212
C           -4.04171506970560        1.38622069994062       -0.30696802282558
C           -4.53480443850461        2.64372889900098       -0.66180019735228
C           -3.60824478722146        3.65269841662850       -0.91150878183966
C           -2.24635578876242        3.45175585357068       -0.78131851110844
C           -1.69642132432521        2.21011126610561       -0.37636417531586
C           -2.65083780858326        1.19219858015581       -0.21740104891635
B           -0.24678457831193        1.80208621963673       -0.07771652370323
C            1.02122038065116        2.65169894150363        0.08723917643181
C            1.03932219793090        4.04933036638421        0.22130422936378
C            2.20521638348997        4.76844151495072        0.38015419383384
C            3.42754209648785        4.10558818494649        0.42294534007623
C            3.46151386004173        2.72754236665004        0.32184555097444
C            2.28197185177341        1.99119432119780        0.15922887486713
N            2.36312366190519        0.61233015619807        0.08101264768254
C            3.66232027392062        0.01988284309426        0.08757736513538
C            4.20526491908689       -0.46326127585531        1.27226742959532
C            5.46086760085699       -1.04556045675769        1.26438340172268
C            6.17408960519423       -1.14785826729281        0.08070372147564
C            5.63097139364147       -0.66599344076383       -1.09939695113885
C            4.37614636755862       -0.08201715634433       -1.10043785301393
H            2.49551450756522       -3.67662379616733       -1.55919995407260
H            0.99336289878551       -3.84533853686899       -2.46676192910123
H            1.75753029545650       -5.26564609633866       -1.74677093105533
H            0.97414143226866       -4.31670585498267        1.81097663165171
H            2.48486776651347       -3.96078259369014        0.97435213530310
H            1.74204298090958       -5.54876861922351        0.80573004758902
H           -0.26402425187280       -5.90068141149184       -0.53023484272976
H           -1.14572308789690       -4.76146762212731        0.47856310960864
H           -1.13692056096830       -4.57332364852804       -1.28496155776650
H            2.49637831786813       -1.99298479293632       -0.07461389183681
H           -1.70507783392674       -2.65716088441886       -0.27761711308271
H           -3.09154727173742       -2.69676001834098        1.18279909167817
H           -5.42471619287402       -3.38569514919999        1.37169960995211
H           -7.25493189150523       -1.88114040338015        0.72830693498254
H           -6.77378314489055        0.41532664880859       -0.05556174307523
H           -5.59518430210012        2.82372864476908       -0.75210358993171
H           -3.96871027324444        4.62941111077521       -1.20811324422081
H           -1.58025874502456        4.27214965816666       -0.99957773047120
H            0.09687931269403        4.57350812286234        0.21732540289459
H            2.17256854819637        5.84500053472030        0.47503252875796
H            4.34765881641892        4.65780426942492        0.54421807749386
H            4.41477153193099        2.22393483511257        0.37388069050016
H            3.63960466254537       -0.37940744176267        2.18852887810612
H            5.88178074288297       -1.42009841136240        2.18539235465242
H            7.15298110718651       -1.60310749404988        0.07802934975081
H            6.18373428330283       -0.74521375752759       -2.02345963909871
H            3.94203828705195        0.29706524632641       -2.01380920912050

          :  Hamiltonian                  GFN2-xTB          :
         :: gradient norm              0.000058683137 Eh/a0 ::
         :: HOMO-LUMO gap              0.575066915176 eV    ::
         :: SCC energy               -95.385171749438 Eh    ::
         :: -> dispersion             -0.089052887260 Eh    ::
         :: -> Gsolv                  -0.037472110889 Eh    ::
         :: repulsion energy           1.692184566744 Eh    ::

    * Orbital Energies and Occupations

         #    Occupation            Energy/Eh            Energy/eV
      -------------------------------------------------------------
         1        2.0000           -0.6751790             -18.3726
       ...           ...                  ...                  ...
        77        2.0000           -0.4147439             -11.2858
        78        2.0000           -0.4137259             -11.2581
        79        2.0000           -0.4103238             -11.1655
        80        2.0000           -0.4046831             -11.0120
        81        2.0000           -0.4014819             -10.9249
        82        2.0000           -0.3925922             -10.6830
        83        2.0000           -0.3877988             -10.5525
        84        2.0000           -0.3771246             -10.2621
        85        2.0000           -0.3758872             -10.2284
        86        1.9999           -0.3680996             -10.0165
        87        1.9994           -0.3658940              -9.9565
        88        1.0007           -0.3519119              -9.5760
        89        1.0000           -0.2609808              -7.1016 (HOMO)
        90        0.0000           -0.2398474              -6.5266 (LUMO)
        91        0.0000           -0.2382510              -6.4831
        92                         -0.2320851              -6.3154
        93                         -0.2269554              -6.1758
        94                         -0.2179922              -5.9319
        95                         -0.2135262              -5.8103
        96                         -0.2003899              -5.4529
        97                         -0.1817159              -4.9447
        98                         -0.1741293              -4.7383
        99                         -0.1325607              -3.6072
       100                         -0.1092756              -2.9735
       ...                                ...                  ...
       175                          0.7497151              20.4008
      -------------------------------------------------------------
                  HL-Gap            0.0211334 Eh            0.5751 eV

     #   Z          covCN         q      C6AA      α(0)
     1   6 C        3.761    -0.106    22.576     6.773
     2   6 C        3.903     0.026    20.083     6.370
     3   6 C        3.761    -0.106    22.572     6.773
     4   6 C        3.761    -0.107    22.588     6.775
     5   6 C        2.968    -0.001    28.055     8.688
     6   6 C        2.925    -0.053    29.313     8.879
     7   6 C        2.923     0.058    26.691     8.472
     8   6 C        2.895    -0.104    30.618     9.072
     9   6 C        2.916     0.043    27.025     8.525
    10   6 C        2.920    -0.048    29.202     8.862
    11   7 N        2.803    -0.001    21.288     6.853
    12   6 C        3.058     0.034    27.187     8.551
    13   6 C        2.909    -0.045    29.125     8.849
    14   6 C        2.920    -0.045    29.129     8.851
    15   6 C        2.918    -0.039    28.962     8.825
    16   6 C        2.910    -0.037    28.926     8.819
    17   6 C        3.073    -0.020    28.418     8.740
    18   6 C        3.054    -0.028    28.641     8.777
    19   6 C        2.911    -0.051    29.270     8.871
    20   6 C        2.914    -0.036    28.907     8.816
    21   6 C        2.924    -0.058    29.431     8.896
    22   6 C        2.879    -0.070    29.736     8.940
    23   6 C        3.102     0.041    26.966     8.509
    24   5 B        2.727     0.146    19.182     7.338
    25   6 C        2.884    -0.070    29.733     8.939
    26   6 C        2.920    -0.044    29.099     8.846
    27   6 C        2.913    -0.032    28.805     8.801
    28   6 C        2.916    -0.041    29.016     8.833
    29   6 C        2.918    -0.056    29.391     8.890
    30   6 C        2.924     0.058    26.701     8.474
    31   7 N        2.755    -0.022    21.675     6.915
    32   6 C        2.934     0.065    26.540     8.449
    33   6 C        2.920    -0.036    28.895     8.815
    34   6 C        2.920    -0.026    28.657     8.779
    35   6 C        2.919    -0.029    28.717     8.788
    36   6 C        2.920    -0.026    28.649     8.777
    37   6 C        2.921    -0.036    28.892     8.815
    38   1 H        0.925     0.036     2.496     2.471
    39   1 H        0.925     0.034     2.537     2.491
    40   1 H        0.925     0.040     2.443     2.444
    41   1 H        0.925     0.034     2.532     2.489
    42   1 H        0.925     0.037     2.488     2.467
    43   1 H        0.925     0.040     2.444     2.445
    44   1 H        0.925     0.039     2.461     2.453
    45   1 H        0.925     0.035     2.517     2.481
    46   1 H        0.925     0.036     2.504     2.474
    47   1 H        0.926     0.038     2.470     2.458
    48   1 H        0.926     0.053     2.286     2.364
    49   1 H        0.926     0.035     2.511     2.478
    50   1 H        0.926     0.027     2.634     2.538
    51   1 H        0.926     0.025     2.657     2.549
    52   1 H        0.926     0.025     2.656     2.548
    53   1 H        0.926     0.013     2.847     2.639
    54   1 H        0.925     0.013     2.847     2.638
    55   1 H        0.926     0.017     2.780     2.607
    56   1 H        0.926     0.029     2.606     2.525
    57   1 H        0.925     0.021     2.716     2.577
    58   1 H        0.926     0.021     2.712     2.575
    59   1 H        0.926     0.023     2.682     2.561
    60   1 H        0.926     0.046     2.372     2.409
    61   1 H        0.926     0.047     2.359     2.402
    62   1 H        0.926     0.046     2.375     2.410
    63   1 H        0.926     0.047     2.360     2.402
    64   1 H        0.926     0.045     2.381     2.413

molecular dipole:
                 x           y           z       tot (Debye)
 q only:        2.314      -1.687       0.084
   full:        2.297      -1.740       0.092       7.329

 projected vibrational frequencies (cm⁻¹)
eigval :       -0.00    -0.00    -0.00    -0.00     0.00     0.00
eigval :       15.48    27.04    34.12    41.90    46.08    59.29
eigval :       66.43    80.03    99.06   111.59   116.86   142.31
eigval :      146.89   177.45   188.44   192.73   212.37   221.95
eigval :      225.79   230.47   248.93   255.18   271.72   279.89
eigval :      292.74   312.91   323.44   334.23   359.10   367.79
eigval :      374.26   381.35   391.36   397.68   414.09   430.93
eigval :      435.31   454.87   464.33   476.12   485.95   496.50
eigval :      505.01   524.00   530.23   549.34   564.62   571.16
eigval :      579.15   587.91   592.80   600.07   601.61   620.65
eigval :      644.08   653.18   662.52   675.70   678.35   688.90
eigval :      703.09   735.00   745.66   749.39   758.73   768.96
eigval :      770.00   785.49   805.95   822.32   843.37   848.76
eigval :      864.49   864.62   874.22   882.25   887.05   894.23
eigval :      898.98   902.45   902.92   906.02   911.51   914.91
eigval :      927.83   931.74   933.27   957.21   960.53   962.44
eigval :      975.10   987.96  1031.89  1034.21  1042.41  1068.13
eigval :     1074.00  1077.41  1089.74  1103.24  1113.28  1126.91
eigval :     1138.84  1146.09  1173.17  1177.32  1178.74  1182.38
eigval :     1185.15  1188.70  1198.03  1209.83  1222.44  1223.79
eigval :     1233.96  1240.76  1247.51  1260.89  1265.86  1271.17
eigval :     1274.51  1278.55  1287.44  1291.24  1305.46  1309.48
eigval :     1327.81  1343.52  1353.55  1367.21  1378.34  1383.53
eigval :     1394.02  1402.06  1403.44  1409.31  1417.60  1426.44
eigval :     1428.48  1430.46  1451.08  1463.79  1465.20  1472.06
eigval :     1488.64  1489.07  1491.37  1498.53  1503.70  1507.70
eigval :     1512.73  1517.10  1519.50  1521.49  1542.47  1554.72
eigval :     1560.86  1578.04  1587.82  3020.48  3021.08  3024.12
eigval :     3025.34  3028.35  3030.37  3036.62  3042.34  3047.30
eigval :     3047.51  3060.55  3068.87  3076.12  3076.47  3080.35
eigval :     3080.82  3082.33  3085.16  3088.35  3090.44  3091.34
eigval :     3092.85  3098.85  3099.75  3105.29  3114.79  3154.08

   temp. (K)  partition function   enthalpy   heat capacity  entropy
                                   cal/mol     cal/K/mol   cal/K/mol   J/K/mol
 298.15  VIB  0.588E+12            17185.762    113.716    103.443
         ROT  0.309E+08              888.752      2.981     37.251
         INT  0.181E+20            18074.514    116.697    140.694
         TR   0.100E+29             1481.254      4.968     44.339
         TOT                       19555.7681   121.6654   185.0322   774.1748

       T/K    H(0)-H(T)+PV         H(T)/Eh          T*S/Eh         G(T)/Eh
   ------------------------------------------------------------------------
    298.15    0.311641E-01    0.533511E+00    0.879148E-01    0.445596E+00
   ------------------------------------------------------------------------

         :::::::::::::::::::::::::::::::::::::::::::::::::::::
         ::                  THERMODYNAMIC                  ::
         :::::::::::::::::::::::::::::::::::::::::::::::::::::
         :: total free energy         -93.247391019154 Eh   ::
         ::.................................................::
         :: total energy              -93.692987178750 Eh   ::
         :: zero point energy           0.502346832505 Eh   ::
         :: G(RRHO) w/o ZPVE           -0.056750672908 Eh   ::
         :: G(RRHO) contrib.            0.445596159597 Eh   ::
         :::::::::::::::::::::::::::::::::::::::::::::::::::::

           -------------------------------------------------
          | TOTAL ENERGY              -93.692987178750 Eh   |
          | TOTAL ENTHALPY            -93.159476246089 Eh   |
          | TOTAL FREE ENERGY         -93.247391019154 Eh   |
          | GRADIENT NORM               0.000058600430 Eh/α |
          | HOMO-LUMO GAP               0.575068816126 eV   |
           -------------------------------------------------

 * finished run on 2025/09/09 at 00:09:46.551
