   * xtb version 6.7.1 (edcfbbe) compiled by 'albert@albert-system' on 2024-07-22

   ID    Z sym.   atoms
    1    6 C      1-10, 12-23, 25-30, 32-37
    2    7 N      11, 31
    3    5 B      24
    4    1 H      38-64

          program call               : xtb data2507/toluene/B-dpa-Cz/B-dpa-Cz_toluene_T1_crest.xyz --gfn 2 --uhf 2 --gbsa toluene --ohess vtight --parallel 40 --molden --ceasefiles --namespace data2507/toluene/B-dpa-Cz/B-dpa-Cz_toluene_T1_finalOpt
      * Solvation model:               GBSA
        Solvent                        toluene
        Solvent mass                       9.2140E+01 g/mol
          :  Hamiltonian                  GFN2-xTB          :
 * total energy  :   -93.6929031 Eh     change       -0.4270120E-08 Eh
 * total energy  :   -93.6929353 Eh     change       -0.3220821E-04 Eh
 * total energy  :   -93.6929465 Eh     change       -0.1112803E-04 Eh
 * total energy  :   -93.6929520 Eh     change       -0.5553141E-05 Eh
 * total energy  :   -93.6929597 Eh     change       -0.7717874E-05 Eh
 * total energy  :   -93.6929695 Eh     change       -0.9809486E-05 Eh
 * total energy  :   -93.6929785 Eh     change       -0.8989176E-05 Eh
 * total energy  :   -93.6929856 Eh     change       -0.7060259E-05 Eh
 * total energy  :   -93.6929918 Eh     change       -0.6179728E-05 Eh
 * total energy  :   -93.6929965 Eh     change       -0.4750100E-05 Eh
 * total energy  :   -93.6930101 Eh     change       -0.1285838E-05 Eh
 * total energy  :   -93.6930109 Eh     change       -0.7939084E-06 Eh
 * total energy  :   -93.6930117 Eh     change       -0.7562994E-06 Eh
 * total energy  :   -93.6930125 Eh     change       -0.8183886E-06 Eh
 * total energy  :   -93.6930133 Eh     change       -0.7883828E-06 Eh
 * total energy  :   -93.6930140 Eh     change       -0.7128847E-06 Eh
 * total energy  :   -93.6930142 Eh     change       -0.1847532E-06 Eh
 * total energy  :   -93.6930146 Eh     change       -0.4562209E-06 Eh
 * total energy  :   -93.6930147 Eh     change       -0.4719230E-07 Eh
   *** GEOMETRY OPTIMIZATION CONVERGED AFTER 24 ITERATIONS ***

 final structure:
================
64
 xtb: 6.7.1 (edcfbbe)
C           -0.52805120876500       -4.84165518830341        0.57426456233052
C            0.73820211795417       -3.98965547745343        0.44477575036867
C            1.54373081181381       -4.50775098264912       -0.75663949156245
C            1.56159775545111       -4.15530872340680        1.73128641493131
C            0.43043666768633       -2.51537008763835        0.23781213091223
C            1.49091723203185       -1.61231848231580        0.10662018604194
C            1.27492592156221       -0.23530533088263       -0.00121109581620
C           -0.03050766836252        0.29698086392493       -0.00811029877399
C           -1.09083696339472       -0.63833387117251        0.00281140167332
C           -0.85774826189375       -2.00791458572337        0.18849531809960
N           -2.37939706937422       -0.13806312975940       -0.08669505277095
C           -3.57546992912054       -0.78851257099650       -0.32674134105576
C           -3.84798119455628       -2.05519917997124       -0.83068807931943
C           -5.16778794140427       -2.43692040208367       -0.98412018037461
C           -6.21717916960781       -1.57100094708450       -0.66573699137817
C           -5.96425242285748       -0.28491248514842       -0.23225358610964
C           -4.64601762131309        0.12485542784459       -0.07565546997054
C           -4.04814321663216        1.37953351037331        0.26183154299168
C           -4.54854588293737        2.64100581284213        0.59136642728357
C           -3.62749063840830        3.65489651808872        0.84142109773813
C           -2.26336926878476        3.45508191012603        0.73387959142024
C           -1.70546766260949        2.20966408141344        0.35229901199443
C           -2.65561059730018        1.18722690765765        0.19664516160375
B           -0.25215772961711        1.80156466972600        0.06996298340691
C            1.01475658843504        2.65194309857081       -0.09991548065358
C            1.03011857946354        4.04848478999404       -0.24513156300779
C            2.19421081866501        4.76869716082402       -0.41184629535378
C            3.41769242301478        4.10790156551513       -0.45193227335246
C            3.45444999643763        2.73073566829243       -0.34027599104174
C            2.27688632739146        1.99335356351773       -0.16834885282347
N            2.36138342943541        0.61542034115239       -0.07787668810875
C            3.65971239339548        0.02208106764789       -0.11310319353753
C            4.40455927450414       -0.07718384192655        1.05599882388259
C            5.65780374864474       -0.66364376548486        1.02335784784100
C            6.16869780312596       -1.15009044546105       -0.16925672505340
C            5.42467559380737       -1.05012567831743       -1.33399044922308
C            4.17015642370844       -0.46597917716828       -1.31012860358435
H           -1.13578019879527       -4.78067618093954       -0.32577157305711
H           -1.12432962349812       -4.53377148280874        1.43042051005987
H           -0.24970611796828       -5.88367550623562        0.71860181830998
H            0.97872150189551       -4.37060872265385       -1.67670119050015
H            1.75359994979889       -5.56842084665261       -0.63593958607078
H            2.49048458372263       -3.98371705847372       -0.85591901900198
H            1.77019503536780       -5.20831309400747        1.90838823010319
H            2.50927072788412       -3.62727758808590        1.66702031586566
H            1.00962904300300       -3.76454899948781        2.58405843391318
H            2.50102334836095       -1.98503636490631        0.14176873265975
H           -1.70037162664285       -2.65504435027722        0.34908671617623
H           -3.06308074554039       -2.72401143785428       -1.14580266338213
H           -5.39208074649267       -3.41888263921805       -1.37381415592651
H           -7.23633182768164       -1.90705015726557       -0.79086209177130
H           -6.77414852877866        0.40022999626007       -0.02828697950766
H           -5.61045840239454        2.82042756363888        0.66296670282173
H           -3.99396807007723        4.63470718193290        1.11984449484906
H           -1.60221962561091        4.27976656931645        0.95094414551001
H            0.08671983248066        4.57086192055775       -0.24382603117517
H            2.15915961435609        5.84440087227258       -0.51519902640107
H            4.33654415675518        4.66089599358082       -0.57908490212778
H            4.40868914564717        2.22872484137917       -0.38949792975554
H            3.99536108842821        0.30531663511529        1.97940173667439
H            6.23478112034300       -0.74121695753481        1.93266787162221
H            7.14645956912046       -1.60723804656663       -0.19088288851670
H            5.82044608528935       -1.42791253711646       -2.26479579273332
H            3.58021330383814       -0.38428714973282       -2.21114226878616

          :  Hamiltonian                  GFN2-xTB          :
         :: gradient norm              0.000070176730 Eh/a0 ::
         :: HOMO-LUMO gap              0.577340886378 eV    ::
         :: SCC energy               -95.385230031103 Eh    ::
         :: -> dispersion             -0.089042971016 Eh    ::
         :: -> Gsolv                  -0.037476603526 Eh    ::
         :: repulsion energy           1.692215310541 Eh    ::

    * Orbital Energies and Occupations

         #    Occupation            Energy/Eh            Energy/eV
      -------------------------------------------------------------
         1        2.0000           -0.6751860             -18.3727
       ...           ...                  ...                  ...
        77        2.0000           -0.4147585             -11.2862
        78        2.0000           -0.4137534             -11.2588
        79        2.0000           -0.4103530             -11.1663
        80        2.0000           -0.4046767             -11.0118
        81        2.0000           -0.4015094             -10.9256
        82        2.0000           -0.3925696             -10.6824
        83        2.0000           -0.3877811             -10.5521
        84        2.0000           -0.3772189             -10.2646
        85        2.0000           -0.3759335             -10.2297
        86        1.9999           -0.3681059             -10.0167
        87        1.9994           -0.3659056              -9.9568
        88        1.0006           -0.3518435              -9.5741
        89        1.0000           -0.2610554              -7.1037 (HOMO)
        90        0.0000           -0.2398381              -6.5263 (LUMO)
        91        0.0000           -0.2382392              -6.4828
        92                         -0.2320846              -6.3153
        93                         -0.2269540              -6.1757
        94                         -0.2180321              -5.9330
        95                         -0.2135756              -5.8117
        96                         -0.2003340              -5.4514
        97                         -0.1817320              -4.9452
        98                         -0.1741761              -4.7396
        99                         -0.1325628              -3.6072
       100                         -0.1092713              -2.9734
       ...                                ...                  ...
       175                          0.7496952              20.4002
      -------------------------------------------------------------
                  HL-Gap            0.0212173 Eh            0.5774 eV

     #   Z          covCN         q      C6AA      α(0)
     1   6 C        3.761    -0.107    22.588     6.775
     2   6 C        3.903     0.026    20.083     6.370
     3   6 C        3.761    -0.106    22.571     6.773
     4   6 C        3.761    -0.106    22.576     6.773
     5   6 C        2.968    -0.001    28.056     8.688
     6   6 C        2.925    -0.053    29.313     8.879
     7   6 C        2.923     0.058    26.691     8.472
     8   6 C        2.895    -0.104    30.618     9.072
     9   6 C        2.917     0.043    27.027     8.525
    10   6 C        2.920    -0.048    29.199     8.861
    11   7 N        2.804    -0.001    21.286     6.852
    12   6 C        3.058     0.034    27.186     8.551
    13   6 C        2.909    -0.045    29.125     8.849
    14   6 C        2.920    -0.045    29.128     8.850
    15   6 C        2.918    -0.039    28.963     8.825
    16   6 C        2.910    -0.037    28.926     8.819
    17   6 C        3.073    -0.020    28.418     8.741
    18   6 C        3.054    -0.028    28.640     8.777
    19   6 C        2.911    -0.051    29.269     8.871
    20   6 C        2.914    -0.036    28.908     8.817
    21   6 C        2.924    -0.057    29.429     8.896
    22   6 C        2.879    -0.070    29.733     8.939
    23   6 C        3.102     0.041    26.965     8.509
    24   5 B        2.727     0.146    19.182     7.338
    25   6 C        2.884    -0.070    29.733     8.940
    26   6 C        2.920    -0.044    29.100     8.846
    27   6 C        2.913    -0.032    28.806     8.801
    28   6 C        2.916    -0.041    29.015     8.833
    29   6 C        2.918    -0.056    29.392     8.890
    30   6 C        2.924     0.058    26.701     8.474
    31   7 N        2.755    -0.022    21.675     6.915
    32   6 C        2.934     0.065    26.540     8.449
    33   6 C        2.921    -0.036    28.893     8.815
    34   6 C        2.920    -0.026    28.651     8.778
    35   6 C        2.919    -0.029    28.717     8.788
    36   6 C        2.920    -0.026    28.654     8.778
    37   6 C        2.921    -0.036    28.893     8.815
    38   1 H        0.925     0.035     2.517     2.481
    39   1 H        0.925     0.036     2.504     2.474
    40   1 H        0.925     0.039     2.461     2.453
    41   1 H        0.925     0.034     2.533     2.489
    42   1 H        0.925     0.040     2.444     2.445
    43   1 H        0.925     0.037     2.489     2.467
    44   1 H        0.925     0.040     2.444     2.445
    45   1 H        0.925     0.037     2.495     2.470
    46   1 H        0.925     0.033     2.537     2.491
    47   1 H        0.926     0.038     2.472     2.458
    48   1 H        0.926     0.052     2.289     2.366
    49   1 H        0.926     0.035     2.513     2.479
    50   1 H        0.926     0.027     2.634     2.538
    51   1 H        0.926     0.025     2.657     2.549
    52   1 H        0.926     0.025     2.656     2.548
    53   1 H        0.926     0.013     2.846     2.638
    54   1 H        0.925     0.013     2.846     2.638
    55   1 H        0.926     0.017     2.779     2.607
    56   1 H        0.926     0.029     2.605     2.524
    57   1 H        0.925     0.021     2.716     2.577
    58   1 H        0.926     0.021     2.712     2.575
    59   1 H        0.926     0.023     2.682     2.561
    60   1 H        0.926     0.045     2.378     2.412
    61   1 H        0.926     0.047     2.360     2.402
    62   1 H        0.926     0.046     2.375     2.410
    63   1 H        0.926     0.047     2.359     2.402
    64   1 H        0.926     0.046     2.375     2.410

molecular dipole:
                 x           y           z       tot (Debye)
 q only:        2.314      -1.679      -0.062
   full:        2.298      -1.732      -0.073       7.316

 projected vibrational frequencies (cm⁻¹)
eigval :       -0.00    -0.00    -0.00     0.00     0.00     0.00
eigval :       16.65    27.20    35.93    40.20    48.79    58.50
eigval :       66.35    80.18    99.34   111.85   121.27   142.81
eigval :      148.61   182.32   191.46   193.42   214.31   225.51
eigval :      226.84   231.03   250.51   255.07   271.72   280.41
eigval :      292.69   313.18   323.03   335.02   358.89   367.92
eigval :      374.35   381.61   392.70   398.36   414.34   430.67
eigval :      435.02   456.01   464.75   476.10   486.84   496.85
eigval :      505.20   524.40   530.31   549.47   564.74   571.29
eigval :      579.83   587.58   592.73   599.52   601.42   620.69
eigval :      644.31   653.05   662.99   675.84   678.71   688.83
eigval :      702.23   735.13   745.72   749.29   760.37   769.15
eigval :      770.12   785.62   805.23   821.84   844.15   849.93
eigval :      864.76   865.71   875.07   882.78   887.25   896.43
eigval :      899.01   902.24   903.14   906.73   911.29   915.11
eigval :      928.82   931.82   933.25   957.47   960.39   962.53
eigval :      975.00   988.08  1032.46  1034.18  1042.62  1068.09
eigval :     1074.06  1077.07  1089.80  1103.48  1112.98  1126.91
eigval :     1138.16  1146.18  1173.45  1177.35  1178.43  1182.18
eigval :     1185.12  1188.97  1198.23  1209.92  1222.28  1223.92
eigval :     1233.81  1240.51  1247.52  1261.11  1265.83  1270.96
eigval :     1274.53  1278.43  1287.53  1291.37  1305.40  1309.60
eigval :     1327.73  1343.62  1353.49  1367.24  1378.65  1383.80
eigval :     1394.10  1402.47  1403.59  1409.32  1417.68  1426.70
eigval :     1428.62  1430.96  1451.27  1463.61  1465.40  1471.98
eigval :     1489.14  1489.68  1491.84  1498.30  1504.56  1507.79
eigval :     1512.65  1516.88  1519.53  1521.44  1542.80  1555.00
eigval :     1561.10  1577.89  1587.71  3020.48  3021.66  3023.99
eigval :     3026.02  3028.49  3030.17  3036.51  3042.53  3046.90
eigval :     3047.10  3060.61  3068.77  3076.37  3076.45  3080.25
eigval :     3080.88  3082.62  3084.95  3088.60  3090.40  3091.82
eigval :     3093.00  3098.06  3099.80  3105.75  3114.18  3151.60

   temp. (K)  partition function   enthalpy   heat capacity  entropy
                                   cal/mol     cal/K/mol   cal/K/mol   J/K/mol
 298.15  VIB  0.470E+12            17150.764    113.707    103.075
         ROT  0.308E+08              888.752      2.981     37.250
         INT  0.145E+20            18039.516    116.687    140.326
         TR   0.100E+29             1481.254      4.968     44.339
         TOT                       19520.7704   121.6556   184.6642   772.6351

       T/K    H(0)-H(T)+PV         H(T)/Eh          T*S/Eh         G(T)/Eh
   ------------------------------------------------------------------------
    298.15    0.311083E-01    0.533563E+00    0.877399E-01    0.445823E+00
   ------------------------------------------------------------------------

         :::::::::::::::::::::::::::::::::::::::::::::::::::::
         ::                  THERMODYNAMIC                  ::
         :::::::::::::::::::::::::::::::::::::::::::::::::::::
         :: total free energy         -93.247191438731 Eh   ::
         ::.................................................::
         :: total energy              -93.693014717872 Eh   ::
         :: zero point energy           0.502454886112 Eh   ::
         :: G(RRHO) w/o ZPVE           -0.056631606972 Eh   ::
         :: G(RRHO) contrib.            0.445823279141 Eh   ::
         :::::::::::::::::::::::::::::::::::::::::::::::::::::

           -------------------------------------------------
          | TOTAL ENERGY              -93.693014717872 Eh   |
          | TOTAL ENTHALPY            -93.159451504070 Eh   |
          | TOTAL FREE ENERGY         -93.247191438731 Eh   |
          | GRADIENT NORM               0.000071844615 Eh/α |
          | HOMO-LUMO GAP               0.577351039074 eV   |
           -------------------------------------------------

 * finished run on 2025/09/09 at 00:12:42.048
