   * xtb version 6.7.1 (edcfbbe) compiled by 'albert@albert-system' on 2024-07-22

   ID    Z sym.   atoms
    1    6 C      1-10, 12-23, 25-30, 32-37
    2    7 N      11, 31
    3    5 B      24
    4    1 H      38-64

          program call               : xtb data2507/toluene/B-dpa-Cz/B-dpa-Cz.xyz --gfn 2 --gbsa toluene --ohess vtight --parallel 40 --molden --ceasefiles --namespace data2507/toluene/B-dpa-Cz/B-dpa-Cz_toluene_S0_preOpt
      * Solvation model:               GBSA
        Solvent                        toluene
        Solvent mass                       9.2140E+01 g/mol
          :  Hamiltonian                  GFN2-xTB          :
 * total energy  :   -93.6982177 Eh     change       -0.2155900E-08 Eh
 * total energy  :   -93.7415263 Eh     change       -0.4330868E-01 Eh
 * total energy  :   -93.7572439 Eh     change       -0.1571757E-01 Eh
 * total energy  :   -93.7635119 Eh     change       -0.6268022E-02 Eh
 * total energy  :   -93.7672013 Eh     change       -0.3689383E-02 Eh
 * total energy  :   -93.7694801 Eh     change       -0.2278748E-02 Eh
 * total energy  :   -93.7709724 Eh     change       -0.1492334E-02 Eh
 * total energy  :   -93.7720781 Eh     change       -0.1105736E-02 Eh
 * total energy  :   -93.7729031 Eh     change       -0.8249437E-03 Eh
 * total energy  :   -93.7735514 Eh     change       -0.6483046E-03 Eh
 * total energy  :   -93.7791800 Eh     change       -0.2204851E-05 Eh
 * total energy  :   -93.7791817 Eh     change       -0.1694856E-05 Eh
 * total energy  :   -93.7791830 Eh     change       -0.1324947E-05 Eh
 * total energy  :   -93.7791840 Eh     change       -0.9201819E-06 Eh
 * total energy  :   -93.7791846 Eh     change       -0.5917817E-06 Eh
 * total energy  :   -93.7791850 Eh     change       -0.4556785E-06 Eh
 * total energy  :   -93.7791855 Eh     change       -0.5192822E-06 Eh
 * total energy  :   -93.7791860 Eh     change       -0.5124280E-06 Eh
 * total energy  :   -93.7791861 Eh     change       -0.8959006E-08 Eh
   *** GEOMETRY OPTIMIZATION CONVERGED AFTER 68 ITERATIONS ***

 final structure:
================
64
 xtb: 6.7.1 (edcfbbe)
C            2.14023823550826       -3.92010509575233        0.01698550476028
C            0.64628062831413       -3.58307216002945       -0.02466763452658
C           -0.02771538178851       -4.26206859272221        1.17704514412753
C            0.06547812683844       -4.14513102706498       -1.33094201137928
C            0.37846457439405       -2.08571499068361        0.02914097644185
C            1.39718624395458       -1.15278034088354        0.06494028500817
C            1.12393899631456        0.21937001524242        0.04324328873260
C           -0.20471475231435        0.68581417235621        0.01515916272925
C           -1.23487235609252       -0.28276793962775        0.07646044439703
C           -0.94113778049834       -1.63574713839899        0.03471781342672
N           -2.54457246547538        0.18279317933921        0.11362143299067
C           -3.73515532063767       -0.48952259138433        0.36896485646303
C           -3.98210519707107       -1.71961080290055        0.96358357053169
C           -5.29561861811576       -2.12801150620270        1.11860112210764
C           -6.36072546136827       -1.33181479133719        0.71228198178917
C           -6.13210670135688       -0.07780385665833        0.17929947731552
C           -4.82273911275262        0.35119219081487        0.02111017573236
C           -4.25855086892740        1.60247415249926       -0.40785923780644
C           -4.78788795787721        2.80100064208406       -0.85762411739504
C           -3.90891860042170        3.82857626245991       -1.16567196029849
C           -2.53895927578742        3.68815816701986       -0.99119999805930
C           -1.95771452917385        2.50738594091446       -0.51764652129650
C           -2.86083788799746        1.46455117403536       -0.28635150494073
B           -0.48391647373748        2.17215166312187       -0.18143099131648
C            0.74055926937082        3.09052535731845       -0.03002831142266
C            0.67677561771781        4.48735451023657        0.06502939518736
C            1.79894305376507        5.27398706964817        0.18924852327114
C            3.05132228709040        4.67020287415054        0.22195398832132
C            3.16133171211194        3.30091162198469        0.15940964509668
C            2.01922812331552        2.49212639196932        0.05110444570115
N            2.17110855847075        1.11918150063413        0.02542159656132
C            3.49897997448839        0.59010647599466        0.00752233982427
C            4.13713647483520        0.26696226745458        1.19918305864506
C            5.41809127350951       -0.25613089916008        1.17364638589807
C            6.06366181215863       -0.45684194791729       -0.03587813766921
C            5.42774788347293       -0.13213241570619       -1.22295473807819
C            4.14611636043699        0.39099289028407       -1.20503278181468
H            2.59831278090306       -3.55889785398530        0.93518923920707
H            2.66417717530044       -3.49150034538845       -0.83451843636022
H            2.26758966474644       -5.00030989606419       -0.02017837297162
H           -1.10758649428430       -4.14820178174357        1.14394994918183
H            0.33509059708915       -3.82903243707278        2.10736065970233
H            0.19832568092463       -5.32643204055887        1.18038133722352
H            0.25351964253263       -5.21504394359152       -1.39398087544349
H           -1.00770254736951       -3.98440704064766       -1.39078380264510
H            0.53010853671363       -3.66147854570791       -2.18809630112995
H            2.42254544202477       -1.47552233211667        0.08524195977029
H           -1.74248698233641       -2.34832650864525       -0.04015133375617
H           -3.18810023643021       -2.34014456066092        1.34517626707560
H           -5.49536880329935       -3.08527368458282        1.57831974044874
H           -7.37228524500573       -1.68767629435498        0.84235525314112
H           -6.95353190961248        0.56673782858208       -0.09671391109666
H           -5.85429853803747        2.93023798503511       -0.97163563197364
H           -4.30054827984489        4.76577203315847       -1.53647436331372
H           -1.90202656427702        4.52221831108277       -1.24505279654010
H           -0.29512044775547        4.95592690207430        0.05957080725334
H            1.71273605842394        6.34870327287870        0.26120188061431
H            3.94354845524282        5.27410865998507        0.30937197401958
H            4.14087578728665        2.84926168370506        0.20706542550414
H            3.62327350935455        0.42695956974656        2.13580248050883
H            5.91260385945123       -0.50724371406398        2.10027038101573
H            7.06266329488483       -0.86621665496449       -0.05294120408749
H            5.92930867713529       -0.28717871335407       -2.16664204595302
H            3.64003842155355        0.64639767812003       -2.12447694844280

          :  Hamiltonian                  GFN2-xTB          :
         :: gradient norm              0.000064060255 Eh/a0 ::
         :: HOMO-LUMO gap              2.201036246120 eV    ::
         :: SCC energy               -95.486881313920 Eh    ::
         :: -> dispersion             -0.089172336159 Eh    ::
         :: -> Gsolv                  -0.036059424566 Eh    ::
         :: repulsion energy           1.707695260593 Eh    ::

    * Orbital Energies and Occupations

         #    Occupation            Energy/Eh            Energy/eV
      -------------------------------------------------------------
         1        2.0000           -0.6706016             -18.2480
       ...           ...                  ...                  ...
        76        2.0000           -0.4173896             -11.3577
        77        2.0000           -0.4156481             -11.3104
        78        2.0000           -0.4144786             -11.2785
        79        2.0000           -0.4090767             -11.1315
        80        2.0000           -0.4050878             -11.0230
        81        2.0000           -0.4008853             -10.9086
        82        2.0000           -0.3953761             -10.7587
        83        2.0000           -0.3886626             -10.5760
        84        2.0000           -0.3819700             -10.3939
        85        2.0000           -0.3789601             -10.3120
        86        2.0000           -0.3752322             -10.2106
        87        2.0000           -0.3671105              -9.9896
        88        2.0000           -0.3464088              -9.4263 (HOMO)
        89                         -0.2655223              -7.2252 (LUMO)
        90                         -0.2352789              -6.4023
        91                         -0.2346846              -6.3861
        92                         -0.2338262              -6.3627
        93                         -0.2220390              -6.0420
        94                         -0.2165186              -5.8918
        95                         -0.2158798              -5.8744
        96                         -0.1992885              -5.4229
        97                         -0.1844911              -5.0203
        98                         -0.1737967              -4.7292
        99                         -0.1372881              -3.7358
       ...                                ...                  ...
       175                          0.7493362              20.3905
      -------------------------------------------------------------
                  HL-Gap            0.0808866 Eh            2.2010 eV

     #   Z          covCN         q      C6AA      α(0)
     1   6 C        3.761    -0.106    22.578     6.774
     2   6 C        3.903     0.025    20.098     6.373
     3   6 C        3.761    -0.103    22.512     6.764
     4   6 C        3.761    -0.104    22.535     6.767
     5   6 C        2.972     0.010    27.788     8.647
     6   6 C        2.924    -0.077    29.932     8.972
     7   6 C        2.925     0.060    26.660     8.467
     8   6 C        2.897    -0.107    30.694     9.084
     9   6 C        2.915     0.058    26.710     8.475
    10   6 C        2.924    -0.073    29.812     8.954
    11   7 N        2.800    -0.032    21.860     6.944
    12   6 C        3.063     0.046    26.897     8.505
    13   6 C        2.911    -0.050    29.249     8.868
    14   6 C        2.922    -0.037    28.923     8.819
    15   6 C        2.919    -0.042    29.032     8.836
    16   6 C        2.912    -0.036    28.890     8.814
    17   6 C        3.072    -0.017    28.356     8.731
    18   6 C        3.058    -0.020    28.458     8.748
    19   6 C        2.913    -0.034    28.846     8.807
    20   6 C        2.917    -0.044    29.084     8.844
    21   6 C        2.928    -0.036    28.885     8.814
    22   6 C        2.880    -0.082    30.058     8.988
    23   6 C        3.105     0.043    26.907     8.499
    24   5 B        2.727     0.193    18.472     7.201
    25   6 C        2.888    -0.085    30.127     8.999
    26   6 C        2.923    -0.034    28.841     8.807
    27   6 C        2.913    -0.045    29.111     8.847
    28   6 C        2.919    -0.030    28.756     8.794
    29   6 C        2.919    -0.057    29.419     8.895
    30   6 C        2.926     0.060    26.649     8.466
    31   7 N        2.755    -0.053    22.263     7.008
    32   6 C        2.933     0.069    26.463     8.437
    33   6 C        2.921    -0.037    28.917     8.818
    34   6 C        2.920    -0.027    28.686     8.783
    35   6 C        2.919    -0.030    28.746     8.792
    36   6 C        2.920    -0.027    28.680     8.782
    37   6 C        2.921    -0.037    28.925     8.820
    38   1 H        0.925     0.035     2.512     2.478
    39   1 H        0.925     0.035     2.518     2.481
    40   1 H        0.925     0.038     2.477     2.461
    41   1 H        0.925     0.035     2.519     2.482
    42   1 H        0.925     0.033     2.549     2.497
    43   1 H        0.925     0.038     2.473     2.459
    44   1 H        0.925     0.039     2.462     2.454
    45   1 H        0.925     0.036     2.503     2.474
    46   1 H        0.925     0.033     2.550     2.497
    47   1 H        0.926     0.034     2.537     2.491
    48   1 H        0.926     0.034     2.531     2.488
    49   1 H        0.926     0.035     2.513     2.479
    50   1 H        0.926     0.030     2.587     2.515
    51   1 H        0.926     0.028     2.621     2.532
    52   1 H        0.926     0.029     2.594     2.519
    53   1 H        0.926     0.025     2.657     2.549
    54   1 H        0.925     0.022     2.703     2.571
    55   1 H        0.926     0.029     2.595     2.519
    56   1 H        0.926     0.031     2.572     2.508
    57   1 H        0.926     0.020     2.726     2.582
    58   1 H        0.926     0.024     2.677     2.559
    59   1 H        0.926     0.022     2.696     2.568
    60   1 H        0.926     0.042     2.416     2.431
    61   1 H        0.926     0.043     2.408     2.427
    62   1 H        0.926     0.043     2.414     2.429
    63   1 H        0.926     0.043     2.409     2.427
    64   1 H        0.926     0.042     2.428     2.437

molecular dipole:
                 x           y           z       tot (Debye)
 q only:        1.373      -0.858       0.037
   full:        1.366      -0.915       0.055       4.182

 projected vibrational frequencies (cm⁻¹)
eigval :       -0.00    -0.00     0.00     0.00     0.00     0.00
eigval :       18.37    27.62    29.04    39.27    46.44    58.42
eigval :       71.63    85.81    99.49   113.92   123.35   144.09
eigval :      150.99   179.33   191.01   200.13   214.20   218.53
eigval :      223.30   234.84   247.55   259.63   272.93   282.42
eigval :      291.38   321.68   325.95   342.08   362.13   371.02
eigval :      377.62   387.14   401.95   407.80   418.43   433.71
eigval :      438.56   461.97   467.64   486.72   500.17   502.55
eigval :      529.00   533.52   537.18   553.54   576.26   580.58
eigval :      588.35   592.16   599.18   606.47   628.65   633.34
eigval :      648.25   658.31   678.54   688.29   690.70   707.33
eigval :      719.99   740.73   768.27   770.14   773.73   775.17
eigval :      789.88   790.48   826.43   855.43   866.78   868.03
eigval :      876.21   876.81   888.01   892.67   900.72   902.34
eigval :      908.03   913.51   916.51   918.50   923.49   924.91
eigval :      929.72   935.14   944.39   958.68   960.88   961.46
eigval :      980.25   991.97  1033.29  1033.69  1049.59  1078.21
eigval :     1079.44  1086.83  1098.59  1108.68  1113.28  1137.08
eigval :     1148.04  1153.16  1177.29  1179.00  1182.17  1187.03
eigval :     1190.53  1197.46  1206.04  1219.66  1224.87  1234.59
eigval :     1241.15  1252.63  1262.40  1269.25  1273.03  1284.82
eigval :     1288.19  1291.06  1305.74  1307.02  1311.66  1334.62
eigval :     1338.67  1358.55  1360.06  1374.58  1399.11  1402.15
eigval :     1404.08  1418.48  1422.60  1426.82  1427.89  1430.44
eigval :     1448.60  1454.84  1468.10  1474.14  1482.70  1489.51
eigval :     1491.44  1499.06  1502.81  1511.79  1518.07  1531.82
eigval :     1548.59  1565.08  1573.56  1581.73  1583.95  1589.80
eigval :     1592.18  1595.11  1609.25  3018.92  3020.24  3022.72
eigval :     3024.97  3027.23  3029.35  3034.90  3042.04  3046.15
eigval :     3060.25  3063.22  3070.21  3073.22  3075.82  3077.25
eigval :     3078.38  3079.91  3086.62  3086.82  3088.42  3089.65
eigval :     3090.56  3098.08  3098.93  3106.73  3141.18  3145.10

   temp. (K)  partition function   enthalpy   heat capacity  entropy
                                   cal/mol     cal/K/mol   cal/K/mol   J/K/mol
 298.15  VIB  0.392E+12            16933.388    112.063    101.715
         ROT  0.309E+08              888.752      2.981     37.251
         INT  0.121E+20            17822.140    115.043    138.966
         TR   0.100E+29             1481.254      4.968     44.339
         TOT                       19303.3939   120.0116   183.3042   766.9448

       T/K    H(0)-H(T)+PV         H(T)/Eh          T*S/Eh         G(T)/Eh
   ------------------------------------------------------------------------
    298.15    0.307619E-01    0.536976E+00    0.870937E-01    0.449882E+00
   ------------------------------------------------------------------------

         :::::::::::::::::::::::::::::::::::::::::::::::::::::
         ::                  THERMODYNAMIC                  ::
         :::::::::::::::::::::::::::::::::::::::::::::::::::::
         :: total free energy         -93.329303973698 Eh   ::
         ::.................................................::
         :: total energy              -93.779186055420 Eh   ::
         :: zero point energy           0.506213911753 Eh   ::
         :: G(RRHO) w/o ZPVE           -0.056331830031 Eh   ::
         :: G(RRHO) contrib.            0.449882081722 Eh   ::
         :::::::::::::::::::::::::::::::::::::::::::::::::::::

           -------------------------------------------------
          | TOTAL ENERGY              -93.779186055420 Eh   |
          | TOTAL ENTHALPY            -93.242210227446 Eh   |
          | TOTAL FREE ENERGY         -93.329303973698 Eh   |
          | GRADIENT NORM               0.000064055060 Eh/α |
          | HOMO-LUMO GAP               2.201035905728 eV   |
           -------------------------------------------------

 * finished run on 2025/09/09 at 00:07:10.489
