   * xtb version 6.7.1 (edcfbbe) compiled by 'albert@albert-system' on 2024-07-22

   ID    Z sym.   atoms
    1    6 C      1-10, 12-23, 25-30, 32-37
    2    7 N      11, 31
    3    5 B      24
    4    1 H      38-64

          program call               : xtb data2507/toluene/B-dpa-Cz/B-dpa-Cz_toluene_S0_crest.xyz --gfn 2 --gbsa toluene --ohess vtight --parallel 40 --molden --ceasefiles --namespace data2507/toluene/B-dpa-Cz/B-dpa-Cz_toluene_S0_finalOpt
      * Solvation model:               GBSA
        Solvent                        toluene
        Solvent mass                       9.2140E+01 g/mol
          :  Hamiltonian                  GFN2-xTB          :
 * total energy  :   -93.7792621 Eh     change       -0.3224699E-08 Eh
 * total energy  :   -93.7792859 Eh     change       -0.2382942E-04 Eh
 * total energy  :   -93.7792913 Eh     change       -0.5418114E-05 Eh
 * total energy  :   -93.7792930 Eh     change       -0.1686746E-05 Eh
 * total energy  :   -93.7792939 Eh     change       -0.8761827E-06 Eh
 * total energy  :   -93.7792950 Eh     change       -0.1109759E-05 Eh
 * total energy  :   -93.7792957 Eh     change       -0.6485230E-06 Eh
 * total energy  :   -93.7792957 Eh     change       -0.2330069E-07 Eh
   *** GEOMETRY OPTIMIZATION CONVERGED AFTER 8 ITERATIONS ***

 final structure:
================
64
 xtb: 6.7.1 (edcfbbe)
C            1.57616794236716       -4.22681605952397       -1.52884905652010
C            0.73444818435495       -4.00103552350782       -0.26404627486899
C            1.51866440245441       -4.46959999014468        0.97103777427478
C           -0.53111130030196       -4.85677586828642       -0.37632298271721
C            0.43545326673637       -2.51482264900646       -0.12539504448253
C            1.49455011639800       -1.62724928397018       -0.02480558682374
C            1.28501492886405       -0.24917193747825        0.04514458367470
C           -0.02430485853413        0.27400660367297        0.04847954742728
C           -1.09386608035069       -0.65051137813556        0.03554385538833
C           -0.86087465292032       -2.01309307839713       -0.09629788833438
N           -2.38340891500941       -0.13373247201000        0.09584350572203
C           -3.60566041536376       -0.77152335508901        0.28640687078112
C           -3.91504149441855       -2.03204697635272        0.77969722227823
C           -5.24717528028488       -2.39439100232571        0.88261613400795
C           -6.27083844942982       -1.52433330867100        0.52449373721934
C           -5.98025282707940       -0.24334565159353        0.09628008168675
C           -4.65142811010592        0.13991001461204       -0.00737815030150
C           -4.02917050242303        1.39532848542834       -0.33026304628661
C           -4.50221641554657        2.64728003998345       -0.68722433176841
C           -3.57735834388894        3.65764367876471       -0.90486778403778
C           -2.21679311533229        3.44442407255872       -0.73251643775972
C           -1.69172928186825        2.20568793624173       -0.34975349503462
C           -2.64030838867267        1.18764163510686       -0.20680124908314
B           -0.23714124140078        1.78192805636650       -0.03431603583607
C            1.02428117226660        2.63292074887031        0.19061405497651
C            1.01903983209524        4.01902885607087        0.39655959382909
C            2.17335550737268        4.74579665244001        0.57846525731905
C            3.39925604017831        4.08962978264321        0.55747909239245
C            3.45151037691339        2.72603044934288        0.38708646476374
C            2.27642432811652        1.97681056848626        0.22090428869193
N            2.36957760540807        0.60482546585723        0.08892560054209
C            3.67266188585848        0.02339169906473        0.01128376719629
C            4.31392857139133       -0.41179874728312        1.16492292907939
C            5.57209258469889       -0.98204882060464        1.07895210242668
C            6.19113440879606       -1.11904052388184       -0.15325339126711
C            5.55089952604575       -0.68513014739086       -1.30261778147297
C            4.29215555446986       -0.11414402755879       -1.22408008024256
H            2.52384664943231       -3.69778144384542       -1.47461722808726
H            1.03778312515539       -3.87375686639349       -2.40636126682096
H            1.78460340309706       -5.28734218848716       -1.65491533409065
H            0.94315225135654       -4.28268188947003        1.87578973015170
H            2.46896832912747       -3.94980446964814        1.05787762753316
H            1.71930058446933       -5.53695466481502        0.90393681582466
H           -0.25130961698599       -5.90322794772622       -0.48226223226776
H           -1.14707555254847       -4.76539261189217        0.51544740052336
H           -1.11902905971522       -4.57812854043213       -1.24812643166320
H            2.50372942120553       -2.00426134081664       -0.02440092251287
H           -1.69491089480102       -2.67589842050277       -0.22362368825572
H           -3.15561215369848       -2.71564824228242        1.12129475769068
H           -5.49462892812133       -3.37514338752210        1.26251649354081
H           -7.29851090596556       -1.84567711154016        0.60987596382331
H           -6.76901388454724        0.45544035583229       -0.14021891489752
H           -5.56081455350090        2.83106064496693       -0.79879182187685
H           -3.92498698466073        4.63751775662872       -1.20178137329065
H           -1.54179782950940        4.26705320738538       -0.91533673115254
H            0.06750809793675        4.52657035909099        0.43198968143793
H            2.13249432832664        5.81407676636287        0.73577564177508
H            4.31626578851779        4.64682237174036        0.68780236966984
H            4.41113735182019        2.23118021702904        0.39498219493861
H            3.82069670940122       -0.30076303760737        2.11958554015306
H            6.06947744086389       -1.31946489478818        1.97620875173949
H            7.17267164434424       -1.56442055882895       -0.21758339361673
H            6.03145377302865       -0.79162434602441       -2.26379339964577
H            3.78226472581651        0.22662525068704       -2.11325503766347

          :  Hamiltonian                  GFN2-xTB          :
         :: gradient norm              0.000195405446 Eh/a0 ::
         :: HOMO-LUMO gap              2.193352713393 eV    ::
         :: SCC energy               -95.486943687190 Eh    ::
         :: -> dispersion             -0.089189571270 Eh    ::
         :: -> Gsolv                  -0.036054484989 Eh    ::
         :: repulsion energy           1.707648012396 Eh    ::

    * Orbital Energies and Occupations

         #    Occupation            Energy/Eh            Energy/eV
      -------------------------------------------------------------
         1        2.0000           -0.6705655             -18.2470
       ...           ...                  ...                  ...
        76        2.0000           -0.4169406             -11.3455
        77        2.0000           -0.4159328             -11.3181
        78        2.0000           -0.4142056             -11.2711
        79        2.0000           -0.4092788             -11.1370
        80        2.0000           -0.4048053             -11.0153
        81        2.0000           -0.4009540             -10.9105
        82        2.0000           -0.3953477             -10.7580
        83        2.0000           -0.3884852             -10.5712
        84        2.0000           -0.3818333             -10.3902
        85        2.0000           -0.3790003             -10.3131
        86        2.0000           -0.3752221             -10.2103
        87        2.0000           -0.3670602              -9.9882
        88        2.0000           -0.3463434              -9.4245 (HOMO)
        89                         -0.2657394              -7.2311 (LUMO)
        90                         -0.2353172              -6.4033
        91                         -0.2348138              -6.3896
        92                         -0.2340936              -6.3700
        93                         -0.2217511              -6.0342
        94                         -0.2163656              -5.8876
        95                         -0.2161901              -5.8828
        96                         -0.1991178              -5.4183
        97                         -0.1843420              -5.0162
        98                         -0.1738878              -4.7317
        99                         -0.1372419              -3.7345
       ...                                ...                  ...
       175                          0.7493460              20.3907
      -------------------------------------------------------------
                  HL-Gap            0.0806040 Eh            2.1933 eV

     #   Z          covCN         q      C6AA      α(0)
     1   6 C        3.761    -0.104    22.543     6.768
     2   6 C        3.903     0.025    20.102     6.373
     3   6 C        3.761    -0.104    22.536     6.767
     4   6 C        3.761    -0.105    22.553     6.770
     5   6 C        2.972     0.010    27.788     8.647
     6   6 C        2.926    -0.073    29.830     8.957
     7   6 C        2.924     0.060    26.659     8.467
     8   6 C        2.897    -0.107    30.690     9.083
     9   6 C        2.915     0.057    26.711     8.475
    10   6 C        2.922    -0.077    29.918     8.970
    11   7 N        2.800    -0.031    21.850     6.943
    12   6 C        3.062     0.046    26.900     8.505
    13   6 C        2.911    -0.050    29.246     8.868
    14   6 C        2.922    -0.037    28.918     8.819
    15   6 C        2.919    -0.041    29.028     8.835
    16   6 C        2.912    -0.036    28.890     8.814
    17   6 C        3.072    -0.017    28.351     8.730
    18   6 C        3.057    -0.020    28.454     8.748
    19   6 C        2.913    -0.034    28.844     8.807
    20   6 C        2.917    -0.044    29.081     8.843
    21   6 C        2.928    -0.036    28.884     8.814
    22   6 C        2.880    -0.082    30.057     8.988
    23   6 C        3.105     0.043    26.913     8.500
    24   5 B        2.727     0.194    18.470     7.200
    25   6 C        2.888    -0.085    30.130     8.999
    26   6 C        2.923    -0.034    28.842     8.807
    27   6 C        2.913    -0.045    29.114     8.848
    28   6 C        2.919    -0.030    28.757     8.794
    29   6 C        2.920    -0.057    29.423     8.895
    30   6 C        2.926     0.061    26.643     8.465
    31   7 N        2.755    -0.054    22.285     7.011
    32   6 C        2.933     0.069    26.460     8.436
    33   6 C        2.921    -0.037    28.926     8.820
    34   6 C        2.920    -0.028    28.696     8.785
    35   6 C        2.919    -0.030    28.755     8.793
    36   6 C        2.920    -0.027    28.685     8.783
    37   6 C        2.921    -0.037    28.929     8.820
    38   1 H        0.925     0.036     2.506     2.476
    39   1 H        0.925     0.033     2.549     2.497
    40   1 H        0.925     0.039     2.465     2.455
    41   1 H        0.925     0.033     2.547     2.496
    42   1 H        0.925     0.036     2.501     2.473
    43   1 H        0.925     0.039     2.465     2.455
    44   1 H        0.925     0.037     2.489     2.467
    45   1 H        0.925     0.034     2.526     2.485
    46   1 H        0.925     0.035     2.512     2.479
    47   1 H        0.926     0.026     2.649     2.545
    48   1 H        0.926     0.042     2.429     2.437
    49   1 H        0.926     0.037     2.493     2.469
    50   1 H        0.926     0.030     2.581     2.512
    51   1 H        0.926     0.028     2.619     2.531
    52   1 H        0.926     0.030     2.593     2.518
    53   1 H        0.926     0.025     2.654     2.548
    54   1 H        0.925     0.022     2.701     2.570
    55   1 H        0.926     0.030     2.592     2.518
    56   1 H        0.926     0.031     2.573     2.508
    57   1 H        0.926     0.020     2.728     2.583
    58   1 H        0.926     0.024     2.680     2.560
    59   1 H        0.926     0.022     2.703     2.571
    60   1 H        0.926     0.043     2.413     2.429
    61   1 H        0.926     0.043     2.409     2.427
    62   1 H        0.926     0.042     2.417     2.431
    63   1 H        0.926     0.043     2.408     2.427
    64   1 H        0.926     0.042     2.425     2.435

molecular dipole:
                 x           y           z       tot (Debye)
 q only:        1.272      -0.923      -0.027
   full:        1.282      -0.976      -0.015       4.097

 projected vibrational frequencies (cm⁻¹)
eigval :       -0.00    -0.00     0.00     0.00     0.00     0.00
eigval :       15.17    19.79    30.40    36.67    46.27    55.78
eigval :       71.37    86.72   101.10   114.61   118.37   142.63
eigval :      152.96   178.09   189.99   197.36   217.23   221.85
eigval :      224.81   232.47   247.97   255.24   277.27   283.63
eigval :      293.06   324.11   329.03   333.55   361.93   370.25
eigval :      374.38   389.08   403.27   406.18   418.02   435.25
eigval :      437.76   460.78   467.09   486.67   498.94   501.47
eigval :      529.06   533.70   538.15   553.32   576.34   580.70
eigval :      587.78   591.55   598.88   606.42   628.73   633.77
eigval :      648.47   658.14   677.30   686.20   690.79   706.65
eigval :      719.48   740.40   769.25   770.73   772.42   774.77
eigval :      790.26   793.24   829.68   856.99   868.14   869.29
eigval :      873.01   874.83   890.00   892.49   900.16   901.76
eigval :      908.27   914.22   919.19   920.99   923.77   925.88
eigval :      926.25   932.61   944.72   958.88   961.65   963.23
eigval :      980.14   992.01  1033.49  1035.40  1048.81  1076.77
eigval :     1078.28  1087.55  1099.75  1109.90  1111.55  1137.86
eigval :     1150.33  1153.64  1178.32  1179.00  1183.69  1186.33
eigval :     1192.18  1197.30  1206.88  1221.33  1224.89  1234.46
eigval :     1241.95  1254.37  1260.84  1271.27  1272.10  1286.23
eigval :     1287.72  1292.03  1305.82  1306.51  1312.77  1333.46
eigval :     1338.66  1359.27  1360.29  1371.47  1398.91  1403.02
eigval :     1404.71  1417.63  1423.18  1426.61  1428.44  1430.56
eigval :     1447.99  1456.82  1467.85  1474.54  1483.61  1488.55
eigval :     1492.11  1498.82  1501.47  1513.66  1518.04  1531.02
eigval :     1548.61  1565.01  1573.86  1581.29  1581.56  1589.87
eigval :     1591.85  1595.00  1609.52  3018.23  3019.83  3022.76
eigval :     3024.44  3026.68  3029.72  3035.10  3042.60  3046.18
eigval :     3061.77  3062.74  3071.60  3073.09  3076.27  3077.73
eigval :     3077.78  3079.83  3085.99  3087.73  3089.02  3089.92
eigval :     3090.41  3097.42  3099.28  3109.29  3112.74  3171.69

   temp. (K)  partition function   enthalpy   heat capacity  entropy
                                   cal/mol     cal/K/mol   cal/K/mol   J/K/mol
 298.15  VIB  0.694E+12            16957.395    111.915    102.157
         ROT  0.308E+08              888.752      2.981     37.250
         INT  0.214E+20            17846.147    114.896    139.407
         TR   0.100E+29             1481.254      4.968     44.339
         TOT                       19327.4011   119.8644   183.7454   768.7910

       T/K    H(0)-H(T)+PV         H(T)/Eh          T*S/Eh         G(T)/Eh
   ------------------------------------------------------------------------
    298.15    0.308002E-01    0.537008E+00    0.873034E-01    0.449705E+00
   ------------------------------------------------------------------------

         :::::::::::::::::::::::::::::::::::::::::::::::::::::
         ::                  THERMODYNAMIC                  ::
         :::::::::::::::::::::::::::::::::::::::::::::::::::::
         :: total free energy         -93.329590989796 Eh   ::
         ::.................................................::
         :: total energy              -93.779295669043 Eh   ::
         :: zero point energy           0.506207896577 Eh   ::
         :: G(RRHO) w/o ZPVE           -0.056503217329 Eh   ::
         :: G(RRHO) contrib.            0.449704679248 Eh   ::
         :::::::::::::::::::::::::::::::::::::::::::::::::::::

           -------------------------------------------------
          | TOTAL ENERGY              -93.779295669043 Eh   |
          | TOTAL ENTHALPY            -93.242287598259 Eh   |
          | TOTAL FREE ENERGY         -93.329590989796 Eh   |
          | GRADIENT NORM               0.000195384705 Eh/α |
          | HOMO-LUMO GAP               2.193346390142 eV   |
           -------------------------------------------------

 * finished run on 2025/09/09 at 00:09:41.972
