   * xtb version 6.7.1 (edcfbbe) compiled by 'albert@albert-system' on 2024-07-22

   ID    Z sym.   atoms
    1    7 N      1, 27
    2    6 C      2-26, 28-41
    3    1 H      42-65

          program call               : xtb data2507/gas/3CzAnBzt/3CzAnBzt_gas_T1_crest.xyz --gfn 2 --spinpol --tblite --uhf 2 --ohess vtight --parallel 40 --molden --ceasefiles --namespace data2507/gas/3CzAnBzt/3CzAnBzt_gas_T1_finalOpt
 * total energy  :  -101.5309508 Eh     change        0.3947169E-07 Eh
 * total energy  :  -101.5309905 Eh     change       -0.3968413E-04 Eh
 * total energy  :  -101.5310027 Eh     change       -0.1224273E-04 Eh
 * total energy  :  -101.5310068 Eh     change       -0.4043293E-05 Eh
 * total energy  :  -101.5310113 Eh     change       -0.4548903E-05 Eh
 * total energy  :  -101.5310157 Eh     change       -0.4374215E-05 Eh
 * total energy  :  -101.5310213 Eh     change       -0.5591035E-05 Eh
 * total energy  :  -101.5310263 Eh     change       -0.4993399E-05 Eh
 * total energy  :  -101.5310302 Eh     change       -0.3928935E-05 Eh
 * total energy  :  -101.5310307 Eh     change       -0.5386099E-06 Eh
 * total energy  :  -101.5310445 Eh     change       -0.1735408E-05 Eh
 * total energy  :  -101.5310456 Eh     change       -0.1188915E-05 Eh
 * total energy  :  -101.5310464 Eh     change       -0.7371220E-06 Eh
 * total energy  :  -101.5310466 Eh     change       -0.1992306E-06 Eh
 * total energy  :  -101.5310471 Eh     change       -0.5641105E-06 Eh
 * total energy  :  -101.5310472 Eh     change       -0.1038586E-06 Eh
 * total energy  :  -101.5310473 Eh     change       -0.1967865E-07 Eh
 * total energy  :  -101.5310474 Eh     change       -0.1076177E-06 Eh
 * total energy  :  -101.5310475 Eh     change       -0.9197437E-07 Eh
   *** GEOMETRY OPTIMIZATION CONVERGED AFTER 27 ITERATIONS ***

 final structure:
================
65
 xtb: 6.7.1 (edcfbbe)
N          -10.42130439419931        0.02113345182813        0.00326493811060
C           -9.27320984744811        0.03550445679611        0.01748968714134
C           -7.86449428296877        0.05325817818151        0.03465212361235
C           -7.17107694063169       -0.20754677960303        1.22130398770749
C           -5.79540909885531       -0.19777458672898        1.23100336941979
C           -5.06511277949369        0.08831890256093        0.06857420046241
C           -3.60955128149194        0.10505263491434        0.08434540729602
C           -2.88761445174167       -1.03502438879020        0.56332686598531
C           -3.53820960910735       -2.21092859551572        0.94436611519596
C           -2.83982817429520       -3.28556323170493        1.48960496847154
C           -1.47691116748574       -3.19366629209101        1.67059736823612
C           -0.79606547113587       -2.05697681490166        1.24271751330272
C           -1.46363725151178       -0.99253560736636        0.63107643023333
C           -0.75902383722127        0.13506957584277        0.10452183812350
C            0.70044296238426        0.14681676347167        0.10661939035617
C            1.39965292638218        1.20950963363489        0.70878960190815
C            2.77573642584247        1.26262615152775        0.73427455244978
C            3.48196452273435        0.23645810838946        0.11767820891107
C            2.80111245249248       -0.85349421348146       -0.47558176209832
C            1.41824074750316       -0.89754223989027       -0.47704251534550
C            3.81465485036640       -1.74382105501452       -0.97181106711797
C            3.77228818116673       -2.95334772798749       -1.65102670906654
C            4.96463651701534       -3.55201099926255       -2.00795694532657
C            6.18540370148518       -2.95232944722796       -1.70793461401414
C            6.25234981123637       -1.74919686212897       -1.03072152849817
C            5.05854386331495       -1.15516864713471       -0.64856579527209
N            4.84046832537379        0.04144335959964        0.00860378954620
C            5.83413409655659        0.91521899257554        0.47358270742008
C            5.78306298991537        2.26738033331202        0.14772031430087
C            6.76243266367388        3.12589202895977        0.61144124963087
C            7.80081117319212        2.64495506647489        1.39166300818645
C            7.85471191795799        1.29882588101325        1.71330649553142
C            6.87470245669205        0.43403111554559        1.26269918282410
C           -1.47979808438519        1.24903222133780       -0.42877053349436
C           -0.82627212092186        2.32818530266126       -1.02967596306829
C           -1.52474822283091        3.45092005115650       -1.46562301951196
C           -2.89165527593013        3.51413179208363       -1.30311157483585
C           -3.57493237710596        2.42392962437564       -0.76994887537292
C           -2.90500554376821        1.26143124491963       -0.38133408174043
C           -5.77412155558955        0.35724299632788       -1.11110594451391
C           -7.14934776729038        0.33265965350643       -1.13479320906200
H           -7.72480894074028       -0.41132332983082        2.12636331306332
H           -5.26341944551668       -0.37727837957723        2.15400863605828
H           -4.60550362503996       -2.29772739293663        0.81000673069092
H           -3.37505616391926       -4.17743368303656        1.77881938743065
H           -0.92752203975716       -4.00285616642547        2.12816211672880
H            0.27099486380416       -1.99799034027311        1.39290382955294
H            0.83109180007734        1.98611083840428        1.19905956889551
H            3.28725997638215        2.07153053289745        1.23397538009922
H            0.89629293053608       -1.71333288672393       -0.95423423231452
H            2.82524433880062       -3.40913572026316       -1.89734854863549
H            4.95504688579487       -4.49368169359660       -2.53603517186481
H            7.10091615527691       -3.43639235479765       -2.01406175318886
H            7.20320548471049       -1.28467749653389       -0.81770125787546
H            4.98445758819724        2.63401609202883       -0.47981875785572
H            6.71878994191768        4.17398236796361        0.35511486501437
H            8.56605004619255        3.31750516068258        1.74824586169233
H            8.65997944258149        0.92075270816708        2.32541951729283
H            6.90054740214515       -0.61178107907822        1.53013285742092
H            0.24385679020312        2.29149987563634       -1.16387037833753
H           -0.98655484996008        4.27226455752558       -1.91485760976393
H           -3.44127817584765        4.39523315917248       -1.59829436046678
H           -4.64578216247742        2.48741638599010       -0.65173444527874
H           -5.22451369075131        0.55060352035442       -2.02089302130307
H           -7.68591864248633        0.52352742249012       -2.05290021167979

 projected vibrational frequencies (cm⁻¹)
eigval :       -0.00    -0.00     0.00     0.00     0.00     0.00
eigval :        9.86    17.32    21.31    37.81    42.18    57.88
eigval :       59.11    65.76    69.49    77.93   105.58   122.93
eigval :      126.81   129.19   137.51   141.80   158.25   182.46
eigval :      208.15   221.49   231.24   237.28   252.08   268.65
eigval :      276.87   315.16   334.23   353.44   366.09   368.11
eigval :      380.32   387.06   392.78   397.37   398.96   413.24
eigval :      421.88   432.46   442.94   458.37   471.05   477.09
eigval :      509.82   532.63   535.63   537.49   541.65   553.87
eigval :      570.95   579.84   583.15   585.88   594.03   607.08
eigval :      615.89   621.39   628.16   642.59   669.53   674.12
eigval :      680.16   689.11   689.80   707.46   716.65   723.98
eigval :      749.15   761.29   763.35   769.50   775.80   792.81
eigval :      815.41   826.23   846.66   851.44   868.49   870.17
eigval :      881.12   884.57   887.85   891.25   894.09   898.77
eigval :      902.54   906.08   907.58   908.73   922.17   922.36
eigval :      922.83   923.62   925.91   933.64   934.31   934.80
eigval :      945.92   963.41   998.04  1013.48  1028.61  1071.80
eigval :     1080.77  1102.26  1105.60  1115.57  1115.88  1118.35
eigval :     1127.35  1135.12  1154.60  1176.85  1179.16  1180.92
eigval :     1181.73  1182.73  1183.34  1186.00  1190.88  1201.53
eigval :     1228.00  1234.70  1240.12  1245.58  1254.38  1261.03
eigval :     1268.25  1272.96  1274.62  1292.74  1300.73  1309.01
eigval :     1310.96  1318.04  1334.92  1341.31  1358.27  1363.21
eigval :     1367.11  1374.39  1379.21  1403.12  1409.86  1420.75
eigval :     1425.02  1430.93  1436.81  1460.61  1465.52  1477.60
eigval :     1481.35  1484.27  1490.49  1514.85  1522.22  1530.87
eigval :     1550.46  1554.45  1569.26  1580.11  1581.78  1590.58
eigval :     1594.63  1608.56  2354.04  3077.79  3078.01  3078.43
eigval :     3079.22  3079.43  3079.94  3081.27  3082.99  3084.44
eigval :     3086.36  3086.61  3089.09  3089.85  3090.07  3091.18
eigval :     3091.53  3092.58  3095.30  3095.50  3096.00  3098.12
eigval :     3099.43  3099.90  3101.24

   temp. (K)  partition function   enthalpy   heat capacity  entropy
                                   cal/mol     cal/K/mol   cal/K/mol   J/K/mol
 298.15  VIB  0.332E+14            18237.533    118.612    112.281
         ROT  0.541E+08              888.752      2.981     38.365
         INT  0.179E+22            19126.285    121.593    150.647
         TR   0.115E+29             1481.254      4.968     44.616
         TOT                       20607.5393   126.5607   195.2623   816.9776

       T/K    H(0)-H(T)+PV         H(T)/Eh          T*S/Eh         G(T)/Eh
   ------------------------------------------------------------------------
    298.15    0.328402E-01    0.525072E+00    0.927754E-01    0.432296E+00
   ------------------------------------------------------------------------

         :::::::::::::::::::::::::::::::::::::::::::::::::::::
         ::                  THERMODYNAMIC                  ::
         :::::::::::::::::::::::::::::::::::::::::::::::::::::
         :: total free energy        -101.098751057204 Eh   ::
         ::.................................................::
         :: total energy             -101.531047469816 Eh   ::
         :: zero point energy           0.492231640607 Eh   ::
         :: G(RRHO) w/o ZPVE           -0.059935227994 Eh   ::
         :: G(RRHO) contrib.            0.432296412613 Eh   ::
         :::::::::::::::::::::::::::::::::::::::::::::::::::::

           -------------------------------------------------
          | TOTAL ENERGY             -101.531047469816 Eh   |
          | TOTAL ENTHALPY           -101.005975625004 Eh   |
          | TOTAL FREE ENERGY        -101.098751057204 Eh   |
          | GRADIENT NORM               0.000169219357 Eh/α |
           -------------------------------------------------

 * finished run on 2025/09/09 at 21:55:05.895
