   * xtb version 6.7.1 (edcfbbe) compiled by 'albert@albert-system' on 2024-07-22

   ID    Z sym.   atoms
    1    7 N      1, 27
    2    6 C      2-26, 28-41
    3    1 H      42-65

          program call               : xtb data2507/gas/3CzAnBzt/3CzAnBzt_gas_S0_finalOpt.xtbopt.xyz --gfn 2 --spinpol --tblite --uhf 2 --ohess vtight --parallel 40 --molden --ceasefiles --namespace data2507/gas/3CzAnBzt/3CzAnBzt_gas_T1_preOpt
 * total energy  :  -101.5216879 Eh     change       -0.1116391E-07 Eh
 * total energy  :  -101.5277560 Eh     change       -0.6068106E-02 Eh
 * total energy  :  -101.5292115 Eh     change       -0.1455493E-02 Eh
 * total energy  :  -101.5293565 Eh     change       -0.1449736E-03 Eh
 * total energy  :  -101.5295196 Eh     change       -0.1631459E-03 Eh
 * total energy  :  -101.5296159 Eh     change       -0.9627017E-04 Eh
 * total energy  :  -101.5297233 Eh     change       -0.1073859E-03 Eh
 * total energy  :  -101.5298522 Eh     change       -0.1289378E-03 Eh
 * total energy  :  -101.5299587 Eh     change       -0.1064343E-03 Eh
 * total energy  :  -101.5300661 Eh     change       -0.1074793E-03 Eh
 * total energy  :  -101.5310479 Eh     change       -0.5117444E-06 Eh
 * total energy  :  -101.5310490 Eh     change       -0.1103672E-05 Eh
 * total energy  :  -101.5310496 Eh     change       -0.5639566E-06 Eh
 * total energy  :  -101.5310501 Eh     change       -0.5041096E-06 Eh
 * total energy  :  -101.5310505 Eh     change       -0.4113307E-06 Eh
 * total energy  :  -101.5310508 Eh     change       -0.2571077E-06 Eh
 * total energy  :  -101.5310510 Eh     change       -0.2063548E-06 Eh
 * total energy  :  -101.5310511 Eh     change       -0.1271393E-06 Eh
 * total energy  :  -101.5310512 Eh     change       -0.6265255E-07 Eh
   *** GEOMETRY OPTIMIZATION CONVERGED AFTER 59 ITERATIONS ***

 final structure:
================
65
 xtb: 6.7.1 (edcfbbe)
N          -10.42328584934891        0.01431568932621        0.02582063612773
C           -9.27514103727497        0.02789363701991        0.03023593604421
C           -7.86631690193693        0.04447038320575        0.03567250248501
C           -7.16438763909429       -0.13393516582909        1.23254800698415
C           -5.78871584334208       -0.12573253801714        1.23135655012497
C           -5.06675698779397        0.07735782826794        0.04644245956666
C           -3.61107239188668        0.09422989926399        0.05212786432249
C           -2.88733969436253       -1.01036268969919        0.60590918643352
C           -3.53688884241761       -2.15802356489707        1.06644294417391
C           -2.83725659228114       -3.19329854745734        1.68174607320620
C           -1.47415391883170       -3.08884382750050        1.85413001522163
C           -0.79448510074995       -1.98303007301152        1.35023267457367
C           -1.46332511805484       -0.96237411088184        0.66922931934444
C           -0.76064948467665        0.12864190198675        0.06840431692043
C            0.69881970794295        0.14797965715960        0.07759384454778
C            1.38756443565356        1.25231662196527        0.61318108547826
C            2.76304350111182        1.31350020703192        0.64864741420566
C            3.47955637735497        0.25138007376823        0.10971646822466
C            2.80921308032807       -0.87825663680893       -0.41758637176509
C            1.42652503018469       -0.92887331687711       -0.42952196420309
C            3.83140309583382       -1.79522041161589       -0.84250058025500
C            3.80111931282070       -3.04717695322651       -1.44068699993605
C            4.99958816803038       -3.66360807552614       -1.74264895966923
C            6.21478596412756       -3.04089583425906       -1.46797561530482
C            6.26973832154988       -1.79528512611472       -0.87128521132376
C            5.06949584273367       -1.18172005056363       -0.54410589060987
N            4.83986833076399        0.05493837447919        0.02958707126252
C            5.82503226126683        0.96023105652009        0.45036434315209
C            5.77568393741826        2.28814184823198        0.03646972660386
C            6.74614691974274        3.17815306433379        0.45759727927977
C            7.77393850867228        2.75234294623073        1.28258020164183
C            7.82625138280656        1.43012921642168        1.69176705865157
C            6.85502103358429        0.53468989647648        1.28406626046877
C           -1.48312860525878        1.20105863014230       -0.54214514173183
C           -0.83047014582108        2.23605894685357       -1.21702794280405
C           -1.53011485190641        3.32419567809746       -1.73177303311625
C           -2.89716585737022        3.39689330693474       -1.57473226609115
C           -3.57939653271178        2.34658691303066       -0.96550724455325
C           -2.90834938586194        1.21518085078879       -0.49553844225930
C           -5.78413191128492        0.26336454319720       -1.14404695290640
C           -7.15957229350305        0.23928124170874       -1.15579492316726
H           -7.71157181494547       -0.27318452722525        2.15366869315812
H           -5.24996844785587       -0.24128457562298        2.16064671059258
H           -4.60441907097303       -2.25376098813038        0.94015097363148
H           -3.37165580563852       -4.06386706221945        2.03113404034113
H           -0.92365778896394       -3.86526047548640        2.36414716469890
H            0.27265425501553       -1.91354433209143        1.49516991746079
H            0.81085006027457        2.05746128184987        1.04431018393382
H            3.26620959624338        2.15636807875296        1.09815737092460
H            0.91270252103373       -1.77688514965701       -0.85676101153458
H            2.85859453070462       -3.52195023465489       -1.66774574550674
H            4.99935230842622       -4.63822939452534       -2.20722614728652
H            7.13545801277719       -3.54082397140832       -1.72996136545506
H            7.21644874761799       -1.31405038120150       -0.67777075021416
H            4.98550263936831        2.61061974655987       -0.62505758475220
H            6.70385102421248        4.20723874343603        0.13310506384719
H            8.53217273256861        3.44918010201463        1.60595010125278
H            8.62322601409521        1.09526344143537        2.33889469010484
H            6.87934779012520       -0.49146833938181        1.61922247261290
H            0.23989743350098        2.19152136063214       -1.34701834206439
H           -0.99273976219946        4.11244220532546       -2.23769512832990
H           -3.44778697812459        4.25409682176943       -1.93191179272041
H           -4.65027178462543        2.41740500620894       -0.85195119649855
H           -5.24115539789049        0.39109781133019       -2.06925770903882
H           -7.70276823016105        0.36549658017923       -2.08114582899608

 projected vibrational frequencies (cm⁻¹)
eigval :       -0.00    -0.00    -0.00     0.00     0.00     0.00
eigval :        9.88    17.19    21.04    37.62    42.07    57.73
eigval :       58.85    65.43    69.29    77.94   105.74   122.69
eigval :      126.51   128.91   137.07   141.74   157.89   182.56
eigval :      208.07   221.38   231.15   237.30   252.21   268.62
eigval :      276.71   315.06   334.18   353.46   366.05   368.29
eigval :      380.22   387.17   392.78   397.21   398.92   413.14
eigval :      421.88   432.66   442.87   458.39   470.96   477.14
eigval :      509.82   532.54   535.57   537.46   541.80   553.71
eigval :      570.91   579.77   583.04   585.79   593.93   607.03
eigval :      615.83   621.38   628.12   642.82   669.51   674.09
eigval :      680.14   689.13   689.79   707.48   716.59   724.00
eigval :      749.04   761.11   763.30   769.46   775.94   792.75
eigval :      815.46   825.99   846.44   851.05   868.51   870.33
eigval :      881.02   884.40   887.90   891.11   894.13   898.71
eigval :      902.65   905.95   907.48   908.61   922.15   922.30
eigval :      922.85   923.29   925.97   933.54   934.13   934.87
eigval :      946.15   963.59   998.06  1013.77  1028.77  1071.71
eigval :     1080.60  1102.71  1105.86  1115.55  1115.85  1118.38
eigval :     1127.29  1134.99  1154.49  1176.52  1178.92  1180.64
eigval :     1181.39  1182.38  1183.03  1185.47  1190.16  1201.23
eigval :     1227.81  1234.61  1239.99  1245.12  1254.29  1260.88
eigval :     1268.02  1272.81  1274.52  1292.52  1300.71  1309.04
eigval :     1310.88  1318.08  1334.98  1341.25  1358.21  1363.21
eigval :     1367.11  1374.19  1378.99  1402.93  1409.68  1420.76
eigval :     1424.95  1430.96  1436.53  1460.47  1465.21  1477.44
eigval :     1481.32  1483.87  1490.55  1514.90  1522.21  1530.84
eigval :     1550.53  1554.42  1569.23  1580.19  1581.97  1590.63
eigval :     1594.88  1608.59  2354.48  3077.56  3077.77  3078.18
eigval :     3078.88  3078.89  3079.58  3080.74  3082.57  3083.96
eigval :     3086.18  3086.35  3088.52  3089.49  3089.78  3090.79
eigval :     3091.10  3091.99  3094.72  3095.18  3095.74  3097.69
eigval :     3098.87  3099.20  3100.98

   temp. (K)  partition function   enthalpy   heat capacity  entropy
                                   cal/mol     cal/K/mol   cal/K/mol   J/K/mol
 298.15  VIB  0.347E+14            18242.373    118.601    112.335
         ROT  0.541E+08              888.752      2.981     38.366
         INT  0.188E+22            19131.125    121.582    150.701
         TR   0.115E+29             1481.254      4.968     44.616
         TOT                       20612.3793   126.5500   195.3169   817.2061

       T/K    H(0)-H(T)+PV         H(T)/Eh          T*S/Eh         G(T)/Eh
   ------------------------------------------------------------------------
    298.15    0.328479E-01    0.525032E+00    0.928014E-01    0.432230E+00
   ------------------------------------------------------------------------

         :::::::::::::::::::::::::::::::::::::::::::::::::::::
         ::                  THERMODYNAMIC                  ::
         :::::::::::::::::::::::::::::::::::::::::::::::::::::
         :: total free energy        -101.098821029191 Eh   ::
         ::.................................................::
         :: total energy             -101.531051177839 Eh   ::
         :: zero point energy           0.492183611074 Eh   ::
         :: G(RRHO) w/o ZPVE           -0.059953462425 Eh   ::
         :: G(RRHO) contrib.            0.432230148649 Eh   ::
         :::::::::::::::::::::::::::::::::::::::::::::::::::::

           -------------------------------------------------
          | TOTAL ENERGY             -101.531051177839 Eh   |
          | TOTAL ENTHALPY           -101.006019649544 Eh   |
          | TOTAL FREE ENERGY        -101.098821029191 Eh   |
          | GRADIENT NORM               0.000035367795 Eh/α |
           -------------------------------------------------

 * finished run on 2025/09/09 at 21:52:17.576
