   * xtb version 6.7.1 (edcfbbe) compiled by 'albert@albert-system' on 2024-07-22

   ID    Z sym.   atoms
    1    7 N      1, 27
    2    6 C      2-26, 28-41
    3    1 H      42-65

          program call               : xtb data2507/gas/3CzAnBzt/3CzAnBzt_gas_S0_crest.xyz --gfn 2 --ohess vtight --parallel 40 --molden --ceasefiles --namespace data2507/gas/3CzAnBzt/3CzAnBzt_gas_S0_finalOpt
          :  Hamiltonian                  GFN2-xTB          :
 * total energy  :  -101.5929437 Eh     change       -0.1337497E-08 Eh
 * total energy  :  -101.5929445 Eh     change       -0.8467445E-06 Eh
 * total energy  :  -101.5929429 Eh     change        0.1663494E-05 Eh
 * total energy  :  -101.5929419 Eh     change        0.9450192E-06 Eh
 * total energy  :  -101.5929486 Eh     change       -0.6714379E-05 Eh
 * total energy  :  -101.5929496 Eh     change       -0.9805117E-06 Eh
 * total energy  :  -101.5929511 Eh     change       -0.1463588E-05 Eh
 * total energy  :  -101.5929508 Eh     change        0.2303267E-06 Eh
 * total energy  :  -101.5929517 Eh     change       -0.8972186E-06 Eh
 * total energy  :  -101.5929523 Eh     change       -0.5166743E-06 Eh
 * total energy  :  -101.5929554 Eh     change       -0.5370121E-06 Eh
 * total energy  :  -101.5929558 Eh     change       -0.3209568E-06 Eh
 * total energy  :  -101.5929561 Eh     change       -0.2980026E-06 Eh
 * total energy  :  -101.5929563 Eh     change       -0.2316042E-06 Eh
 * total energy  :  -101.5929565 Eh     change       -0.1727819E-06 Eh
 * total energy  :  -101.5929566 Eh     change       -0.1533397E-06 Eh
 * total energy  :  -101.5929568 Eh     change       -0.1661243E-06 Eh
 * total energy  :  -101.5929568 Eh     change        0.5249774E-09 Eh
 * total energy  :  -101.5929568 Eh     change       -0.3676244E-07 Eh
   *** GEOMETRY OPTIMIZATION CONVERGED AFTER 23 ITERATIONS ***

 final structure:
================
65
 xtb: 6.7.1 (edcfbbe)
N          -10.41542063525252        0.01848608765686        0.04463624813798
C           -9.26874323292491        0.03077110407624        0.04930111366371
C           -7.85597387294559        0.04578190847202        0.05538211597659
C           -7.16544369604673        0.28730233991516        1.24414574944808
C           -5.78587940093397        0.29823988633733        1.24417002123036
C           -5.07266459737308        0.07489994493134        0.06753323726215
C           -3.59591226766318        0.09014134009984        0.07418124753044
C           -2.89213220163477       -0.92593084603203        0.73651495893938
C           -3.55854857635560       -2.00286813032830        1.37874039510729
C           -2.86480006134301       -2.96945037422945        2.03900721794183
C           -1.45827260262590       -2.91701023200082        2.10273037630109
C           -0.78029775425930       -1.91590338901737        1.47856860029977
C           -1.46279141646462       -0.90135367876357        0.75696174509245
C           -0.77202530742566        0.11943600504963        0.08759580218983
C            0.70587532217884        0.13638695340808        0.09407639624395
C            1.38541306263921        1.14545786892625        0.78776245674277
C            2.76386996381260        1.20507609807254        0.82226680220521
C            3.47506707800678        0.23497020197045        0.12990626826850
C            2.80489965753855       -0.80359013893928       -0.55735391355122
C            1.41877345052429       -0.84832932407421       -0.57385249185977
C            3.82403822615914       -1.64873510557153       -1.11293447152209
C            3.79120726202055       -2.79871718657871       -1.89060793681363
C            4.98726814603324       -3.36451479790358       -2.28348566745058
C            6.20425474991602       -2.78978083882935       -1.92282974441918
C            6.26224662370117       -1.64660353852756       -1.14909445903054
C            5.06366424061904       -1.08648420693666       -0.73072770634663
N            4.83782133910382        0.05143762052300        0.01867439241999
C            5.82460823667190        0.88062742351035        0.57114439504713
C            5.77970487359149        2.25583442850496        0.36165397799672
C            6.75191663463680        3.06989328975685        0.91247648964915
C            7.77819330758337        2.52233749270590        1.66417089919937
C            7.82688317299345        1.15347049855877        1.86930049768561
C            6.85321442898334        0.33235919000644        1.33165273536293
C           -1.47789896627836        1.12500747693260       -0.58883551173791
C           -0.80919666366423        2.15253766139891       -1.30485123803694
C           -1.50115165466269        3.13916244271604       -1.93660379403586
C           -2.90901572710639        3.16297972036376       -1.88636506526444
C           -3.58932567200682        2.18312053013901       -1.23167249432017
C           -2.90738128709161        1.12045227503338       -0.58207822061811
C           -5.77073063401000       -0.16300439979623       -1.11529687019578
C           -7.15019983147728       -0.18094601251941       -1.12729051721346
H           -7.71743157255878        0.46405381506706        2.15570917152442
H           -5.24627852375532        0.48760953751637        2.16074997200360
H           -4.63673525200710       -2.04685963082816        1.33203936260929
H           -3.38728506596805       -3.78178947541808        2.52254374762060
H           -0.92424171534231       -3.68115056677443        2.64808751789944
H            0.29764612392705       -1.87705687254933        1.52555592363459
H            0.80686927523346        1.88747736154776        1.31885370560469
H            3.26865325833852        1.97813128426424        1.38171464510345
H            0.89879740534829       -1.63368291421457       -1.10217886869238
H            2.84729395524968       -3.23384069702040       -2.18259048467558
H            4.98513839194836       -4.26000807845804       -2.88685700368076
H            7.12361298888650       -3.24633121807258       -2.25870532615652
H            7.21007585703424       -1.19946194167761       -0.88988385138223
H            4.99076688188930        2.67657314435590       -0.24381873698719
H            6.71241741374500        4.13630487547637        0.74654377317002
H            8.53801789756817        3.16065111077641        2.08897062730999
H            8.62294318452330        0.72280275358516        2.45844366043263
H            6.87521216144704       -0.73275673275660        1.50784563488975
H            0.26972253602031        2.13443678222354       -1.34144645051382
H           -0.97784584327314        3.91351762514339       -2.47801595399231
H           -3.44319191677768        3.96405575759263       -2.37587519263478
H           -4.66858719422860        2.20522149141867       -1.19552251400807
H           -5.21934825854112       -0.34104613394408       -2.02710211775657
H           -7.69038179987360       -0.36912444347037       -2.04362104114901

          :  Hamiltonian                  GFN2-xTB          :
         :: gradient norm              0.000074944851 Eh/a0 ::
         :: HOMO-LUMO gap              2.025085257350 eV    ::
         :: SCC energy              -103.591605486217 Eh    ::
         :: -> dispersion             -0.092470551223 Eh    ::
         :: repulsion energy           1.998648657403 Eh    ::

    * Orbital Energies and Occupations

         #    Occupation            Energy/Eh            Energy/eV
      -------------------------------------------------------------
         1        2.0000           -0.6798281             -18.4991
       ...           ...                  ...                  ...
        83        2.0000           -0.4226848             -11.5018
        84        2.0000           -0.4207922             -11.4503
        85        2.0000           -0.4185339             -11.3889
        86        2.0000           -0.4171374             -11.3509
        87        2.0000           -0.4148259             -11.2880
        88        2.0000           -0.4103060             -11.1650
        89        2.0000           -0.4102264             -11.1628
        90        2.0000           -0.4060752             -11.0499
        91        2.0000           -0.4042779             -11.0010
        92        2.0000           -0.4026988             -10.9580
        93        2.0000           -0.3816485             -10.3852
        94        2.0000           -0.3674914             -10.0000
        95        2.0000           -0.3598133              -9.7910 (HOMO)
        96                         -0.2853927              -7.7659 (LUMO)
        97                         -0.2682249              -7.2988
        98                         -0.2495027              -6.7893
        99                         -0.2418623              -6.5814
       100                         -0.2380541              -6.4778
       101                         -0.2363632              -6.4318
       102                         -0.2344307              -6.3792
       103                         -0.2256044              -6.1390
       104                         -0.2237018              -6.0872
       105                         -0.2032785              -5.5315
       106                         -0.1965849              -5.3493
       ...                                ...                  ...
       188                          1.1737058              31.9382
      -------------------------------------------------------------
                  HL-Gap            0.0744205 Eh            2.0251 eV

     #   Z          covCN         q      C6AA      α(0)
     1   7 N        0.911    -0.237    26.208     7.404
     2   6 C        1.912     0.111    28.356     8.600
     3   6 C        2.974     0.016    27.648     8.625
     4   6 C        2.925    -0.021    28.533     8.760
     5   6 C        2.923    -0.029    28.727     8.789
     6   6 C        2.977     0.025    27.432     8.591
     7   6 C        2.977    -0.011    28.279     8.723
     8   6 C        2.983     0.007    27.863     8.659
     9   6 C        2.917    -0.036    28.887     8.814
    10   6 C        2.914    -0.029    28.726     8.789
    11   6 C        2.914    -0.030    28.751     8.793
    12   6 C        2.918    -0.033    28.833     8.805
    13   6 C        2.984     0.006    27.875     8.660
    14   6 C        2.978    -0.002    28.078     8.692
    15   6 C        2.977     0.003    27.951     8.672
    16   6 C        2.928    -0.036    28.908     8.817
    17   6 C        2.908    -0.052    29.286     8.874
    18   6 C        3.077     0.045    26.904     8.504
    19   6 C        3.067    -0.018    28.384     8.736
    20   6 C        2.917    -0.036    28.905     8.816
    21   6 C        3.068    -0.017    28.369     8.734
    22   6 C        2.912    -0.032    28.810     8.801
    23   6 C        2.920    -0.040    29.005     8.832
    24   6 C        2.924    -0.033    28.819     8.804
    25   6 C        2.910    -0.051    29.257     8.869
    26   6 C        3.077     0.047    26.866     8.498
    27   7 N        2.803    -0.044    22.086     6.980
    28   6 C        2.913     0.065    26.550     8.449
    29   6 C        2.922    -0.042    29.048     8.838
    30   6 C        2.920    -0.028    28.694     8.784
    31   6 C        2.919    -0.033    28.816     8.803
    32   6 C        2.920    -0.028    28.692     8.784
    33   6 C        2.922    -0.042    29.047     8.838
    34   6 C        2.984     0.006    27.877     8.661
    35   6 C        2.918    -0.033    28.831     8.805
    36   6 C        2.914    -0.030    28.755     8.793
    37   6 C        2.915    -0.029    28.729     8.789
    38   6 C        2.917    -0.036    28.886     8.813
    39   6 C        2.983     0.007    27.864     8.659
    40   6 C        2.923    -0.029    28.727     8.789
    41   6 C        2.925    -0.021    28.532     8.760
    42   1 H        0.926     0.041     2.437     2.441
    43   1 H        0.926     0.039     2.462     2.454
    44   1 H        0.926     0.028     2.618     2.530
    45   1 H        0.926     0.030     2.590     2.516
    46   1 H        0.926     0.030     2.588     2.516
    47   1 H        0.926     0.034     2.524     2.484
    48   1 H        0.926     0.030     2.585     2.514
    49   1 H        0.926     0.029     2.600     2.521
    50   1 H        0.926     0.032     2.560     2.502
    51   1 H        0.926     0.031     2.569     2.507
    52   1 H        0.926     0.029     2.605     2.524
    53   1 H        0.926     0.030     2.590     2.517
    54   1 H        0.926     0.028     2.616     2.529
    55   1 H        0.926     0.040     2.447     2.446
    56   1 H        0.926     0.037     2.494     2.470
    57   1 H        0.926     0.036     2.505     2.475
    58   1 H        0.926     0.037     2.493     2.469
    59   1 H        0.926     0.041     2.438     2.442
    60   1 H        0.926     0.034     2.532     2.488
    61   1 H        0.926     0.029     2.594     2.519
    62   1 H        0.926     0.030     2.591     2.517
    63   1 H        0.926     0.028     2.618     2.530
    64   1 H        0.926     0.039     2.460     2.453
    65   1 H        0.926     0.041     2.436     2.441

molecular dipole:
                 x           y           z       tot (Debye)
 q only:        2.158       0.295       0.205
   full:        2.646       0.350       0.238       6.810

 projected vibrational frequencies (cm⁻¹)
eigval :       -0.00    -0.00     0.00     0.00     0.00     0.00
eigval :       12.82    13.65    18.91    37.99    39.58    44.97
eigval :       59.72    62.74    68.25    73.91   101.37   112.66
eigval :      119.92   131.50   135.92   138.00   148.02   185.09
eigval :      205.61   213.73   216.30   236.62   251.20   263.35
eigval :      269.79   316.46   335.91   354.75   363.60   380.60
eigval :      385.42   390.56   398.24   398.48   410.26   428.15
eigval :      430.69   447.64   450.52   458.82   462.50   477.51
eigval :      512.48   534.06   534.18   537.73   543.81   560.09
eigval :      581.03   583.37   587.31   589.04   599.75   610.02
eigval :      620.16   628.03   640.18   648.98   669.79   681.78
eigval :      686.57   693.16   697.56   708.26   724.55   740.02
eigval :      763.47   771.23   775.69   776.03   776.71   798.44
eigval :      815.20   823.55   869.97   870.54   873.55   875.66
eigval :      880.37   884.55   889.35   898.42   901.66   906.25
eigval :      913.74   916.67   919.22   920.97   922.21   922.73
eigval :      925.43   927.75   928.46   930.89   932.84   933.55
eigval :      934.21   964.96   998.23  1019.81  1031.03  1071.72
eigval :     1080.65  1082.48  1083.23  1118.11  1119.82  1132.09
eigval :     1135.13  1138.35  1156.87  1178.55  1181.22  1181.70
eigval :     1183.11  1184.72  1186.64  1195.58  1201.94  1207.72
eigval :     1229.08  1236.15  1243.37  1246.15  1259.33  1261.83
eigval :     1266.73  1275.10  1280.85  1304.16  1308.65  1318.18
eigval :     1325.71  1344.97  1350.62  1359.82  1361.92  1380.84
eigval :     1385.09  1393.29  1418.07  1418.84  1429.16  1432.75
eigval :     1436.91  1444.78  1468.45  1481.85  1484.58  1488.79
eigval :     1494.41  1526.98  1529.03  1541.71  1548.03  1564.75
eigval :     1582.93  1584.65  1588.68  1596.42  1598.60  1608.49
eigval :     1614.79  1622.69  2373.91  3074.56  3074.80  3077.23
eigval :     3078.54  3079.61  3080.42  3080.65  3081.24  3081.47
eigval :     3082.30  3082.49  3086.22  3089.74  3089.93  3090.43
eigval :     3090.64  3091.58  3092.57  3092.94  3094.24  3095.38
eigval :     3096.28  3096.77  3099.80

   temp. (K)  partition function   enthalpy   heat capacity  entropy
                                   cal/mol     cal/K/mol   cal/K/mol   J/K/mol
 298.15  VIB  0.617E+14            18220.606    117.399    112.682
         ROT  0.538E+08              888.752      2.981     38.357
         INT  0.332E+22            19109.359    120.380    151.039
         TR   0.115E+29             1481.254      4.968     44.616
         TOT                       20590.6126   125.3479   195.6549   818.6201

       T/K    H(0)-H(T)+PV         H(T)/Eh          T*S/Eh         G(T)/Eh
   ------------------------------------------------------------------------
    298.15    0.328132E-01    0.527332E+00    0.929620E-01    0.434370E+00
   ------------------------------------------------------------------------

         :::::::::::::::::::::::::::::::::::::::::::::::::::::
         ::                  THERMODYNAMIC                  ::
         :::::::::::::::::::::::::::::::::::::::::::::::::::::
         :: total free energy        -101.158587118580 Eh   ::
         ::.................................................::
         :: total energy             -101.592956828805 Eh   ::
         :: zero point energy           0.494518435579 Eh   ::
         :: G(RRHO) w/o ZPVE           -0.060148725353 Eh   ::
         :: G(RRHO) contrib.            0.434369710226 Eh   ::
         :::::::::::::::::::::::::::::::::::::::::::::::::::::

           -------------------------------------------------
          | TOTAL ENERGY             -101.592956828805 Eh   |
          | TOTAL ENTHALPY           -101.065625163408 Eh   |
          | TOTAL FREE ENERGY        -101.158587118580 Eh   |
          | GRADIENT NORM               0.000074840537 Eh/α |
          | HOMO-LUMO GAP               2.025085596474 eV   |
           -------------------------------------------------

 * finished run on 2025/09/09 at 21:52:11.073
