   * xtb version 6.7.1 (edcfbbe) compiled by 'albert@albert-system' on 2024-07-22

   ID    Z sym.   atoms
    1    7 N      1, 27
    2    6 C      2-26, 28-41
    3    1 H      42-65

          program call               : xtb data2507/gas/3CzAnBzt/3CzAnBzt.xyz --gfn 2 --ohess vtight --parallel 40 --molden --ceasefiles --namespace data2507/gas/3CzAnBzt/3CzAnBzt_gas_S0_preOpt
          :  Hamiltonian                  GFN2-xTB          :
 * total energy  :  -101.5728603 Eh     change       -0.1225686E-08 Eh
 * total energy  :  -101.5877519 Eh     change       -0.1489161E-01 Eh
 * total energy  :  -101.5912959 Eh     change       -0.3544034E-02 Eh
 * total energy  :  -101.5917591 Eh     change       -0.4631905E-03 Eh
 * total energy  :  -101.5920060 Eh     change       -0.2468385E-03 Eh
 * total energy  :  -101.5920737 Eh     change       -0.6774590E-04 Eh
 * total energy  :  -101.5921211 Eh     change       -0.4734164E-04 Eh
 * total energy  :  -101.5921588 Eh     change       -0.3772113E-04 Eh
 * total energy  :  -101.5921983 Eh     change       -0.3948843E-04 Eh
 * total energy  :  -101.5922361 Eh     change       -0.3786948E-04 Eh
 * total energy  :  -101.5922930 Eh     change       -0.4400089E-06 Eh
 * total energy  :  -101.5922934 Eh     change       -0.3787165E-06 Eh
 * total energy  :  -101.5922938 Eh     change       -0.3525394E-06 Eh
 * total energy  :  -101.5922942 Eh     change       -0.3877701E-06 Eh
 * total energy  :  -101.5922950 Eh     change       -0.8311571E-06 Eh
 * total energy  :  -101.5922952 Eh     change       -0.2102525E-06 Eh
 * total energy  :  -101.5922954 Eh     change       -0.2090306E-06 Eh
 * total energy  :  -101.5922955 Eh     change       -0.1445459E-06 Eh
 * total energy  :  -101.5922956 Eh     change       -0.6820827E-07 Eh
   *** GEOMETRY OPTIMIZATION CONVERGED AFTER 47 ITERATIONS ***

 final structure:
================
65
 xtb: 6.7.1 (edcfbbe)
N          -10.70118166507166       -0.08222032549880       -0.10969536181638
C           -9.55455497033881       -0.08838711354685       -0.10590293547059
C           -8.14131273039949       -0.09682322758996       -0.10210311991199
C           -7.44849133685112       -1.15083304441986       -0.69944563345887
C           -6.06842221918329       -1.15284965983060       -0.69326574824164
C           -5.36130237209532       -0.11230430151324       -0.09622152812655
C           -3.88061719430205       -0.11937767945263       -0.09208683172820
C           -3.18111644978979        0.48271145647326       -1.14471014307748
C           -3.85230284466566        1.10317537054601       -2.23111161305624
C           -3.15764545092698        1.68384234611656       -3.24679207381186
C           -1.74772595558265        1.68082493356207       -3.23938997135955
C           -1.06685263134556        1.09677631079696       -2.21641402618380
C           -1.75184230462245        0.47926123971071       -1.13727424106972
C           -1.06227869198439       -0.12535818647547       -0.07921675329456
C            0.41974231886583       -0.12631835165503       -0.07054866020213
C            1.11378310844158       -1.18323487708108       -0.66911544250976
C            2.49357097834272       -1.23141178293261       -0.68278786180217
C            3.18674808728149       -0.19609536533728       -0.07184963809999
C            2.49931261077290        0.89090288375309        0.51606305364775
C            1.11212404909993        0.91966216717660        0.51800991302415
C            3.50384739762665        1.79260295671720        1.00481696444484
C            3.45122320349405        3.00472667672129        1.68044843087384
C            4.63717089880491        3.61590513629218        2.03374892790519
C            5.86372251115891        3.02613747756587        1.73484456260129
C            5.94146664448465        1.82122126286369        1.06341488810446
C            4.75308481522977        1.21335044894972        0.68412582106413
N            4.54691178767383        0.01230310521572        0.03471414513234
C            5.54843590559328       -0.84954300558356       -0.43485392862136
C            5.51824340500427       -2.20170502483032       -0.10640188697281
C            6.50608737552995       -3.04785454317605       -0.57493316035712
C            7.53332314007757       -2.55463528157988       -1.36210353209542
C            7.56715397357059       -1.20844016179797       -1.68594758160799
C            6.57793568510060       -0.35644785731472       -1.23116434050162
C           -1.76412827495991       -0.72825404098050        0.97170695985407
C           -1.09166494291585       -1.34834912663592        2.05721468949335
C           -1.78414960765456       -1.93134107874892        3.07295418966675
C           -3.19408241412700       -1.93025010922244        3.06643721582437
C           -3.87699370824422       -1.34550284600828        2.04515546542493
C           -3.19336299216178       -0.72611327208280        0.96592184814355
C           -6.05948349576731        0.93589839738049        0.49812761191266
C           -7.43942299251935        0.94930576766126        0.49849379453266
H           -7.99849174770540       -1.95720062515373       -1.16213820127182
H           -5.52524479906696       -1.96520536031274       -1.15359083039180
H           -4.93287459729896        1.10540642941520       -2.23665801539313
H           -3.68075708114821        2.15216918341008       -4.06761307192382
H           -1.21469921418255        2.14728115278075       -4.05479327041332
H            0.01321813144815        1.09210249126431       -2.20654951079334
H            0.54727023413381       -1.97690981202260       -1.13422879427181
H            3.01234943204192       -2.04588934598606       -1.16533152157650
H            0.57711615090272        1.74370253401938        0.96605862180140
H            2.49987758611752        3.45242974236359        1.92547998116529
H            4.61961577954359        4.55998484199022        2.55758308026346
H            6.77482414091889        3.52046485039250        2.03821704463729
H            6.89650841826556        1.36407723865727        0.85257975020451
H            4.72830245059723       -2.57838165427189        0.52617923973684
H            6.47807384532709       -4.09610799800412       -0.31660650896430
H            8.30544068534517       -3.21752824959459       -1.72218805572317
H            8.36387377842470       -0.82043747929693       -2.30319619983938
H            6.58860670213151        0.68943957326112       -1.49954918221840
H           -0.01153201551260       -1.34589950361495        2.05814946326708
H           -1.26068208147794       -2.39983413771933        3.89338780357678
H           -3.72665375168630       -2.39818924901753        3.88137562283770
H           -4.95756244133553       -1.34400996208931        2.04048195373073
H           -5.50915783075227        1.74197964780958        0.96095313062205
H           -7.98237442567622        1.76159901751372        0.95913700266132

          :  Hamiltonian                  GFN2-xTB          :
         :: gradient norm              0.000100077470 Eh/a0 ::
         :: HOMO-LUMO gap              2.193242327503 eV    ::
         :: SCC energy              -103.592488775292 Eh    ::
         :: -> dispersion             -0.092166212297 Eh    ::
         :: repulsion energy           2.000193158710 Eh    ::

    * Orbital Energies and Occupations

         #    Occupation            Energy/Eh            Energy/eV
      -------------------------------------------------------------
         1        2.0000           -0.6791409             -18.4804
       ...           ...                  ...                  ...
        83        2.0000           -0.4225900             -11.4993
        84        2.0000           -0.4204781             -11.4418
        85        2.0000           -0.4190959             -11.4042
        86        2.0000           -0.4166455             -11.3375
        87        2.0000           -0.4143938             -11.2762
        88        2.0000           -0.4104441             -11.1688
        89        2.0000           -0.4098045             -11.1513
        90        2.0000           -0.4073689             -11.0851
        91        2.0000           -0.4039840             -10.9930
        92        2.0000           -0.4029356             -10.9644
        93        2.0000           -0.3810802             -10.3697
        94        2.0000           -0.3640162              -9.9054
        95        2.0000           -0.3634619              -9.8903 (HOMO)
        96                         -0.2828617              -7.6971 (LUMO)
        97                         -0.2710308              -7.3751
        98                         -0.2490294              -6.7764
        99                         -0.2428387              -6.6080
       100                         -0.2375582              -6.4643
       101                         -0.2358903              -6.4189
       102                         -0.2346003              -6.3838
       103                         -0.2246512              -6.1131
       104                         -0.2240106              -6.0956
       105                         -0.2039908              -5.5509
       106                         -0.1934703              -5.2646
       ...                                ...                  ...
       188                          1.1729714              31.9182
      -------------------------------------------------------------
                  HL-Gap            0.0806002 Eh            2.1932 eV

     #   Z          covCN         q      C6AA      α(0)
     1   7 N        0.911    -0.237    26.188     7.401
     2   6 C        1.912     0.111    28.353     8.599
     3   6 C        2.974     0.016    27.643     8.624
     4   6 C        2.925    -0.021    28.521     8.758
     5   6 C        2.923    -0.029    28.723     8.789
     6   6 C        2.977     0.026    27.409     8.588
     7   6 C        2.978    -0.010    28.269     8.721
     8   6 C        2.984     0.007    27.869     8.660
     9   6 C        2.917    -0.035    28.863     8.810
    10   6 C        2.914    -0.029    28.719     8.788
    11   6 C        2.914    -0.030    28.740     8.791
    12   6 C        2.917    -0.032    28.807     8.801
    13   6 C        2.985     0.006    27.872     8.660
    14   6 C        2.979    -0.002    28.079     8.692
    15   6 C        2.978     0.003    27.942     8.671
    16   6 C        2.928    -0.037    28.916     8.819
    17   6 C        2.909    -0.052    29.280     8.873
    18   6 C        3.076     0.045    26.914     8.506
    19   6 C        3.067    -0.018    28.378     8.735
    20   6 C        2.917    -0.037    28.915     8.818
    21   6 C        3.068    -0.017    28.370     8.734
    22   6 C        2.912    -0.032    28.810     8.801
    23   6 C        2.920    -0.041    29.008     8.832
    24   6 C        2.924    -0.033    28.821     8.804
    25   6 C        2.910    -0.051    29.260     8.870
    26   6 C        3.077     0.047    26.865     8.498
    27   7 N        2.803    -0.044    22.096     6.981
    28   6 C        2.913     0.065    26.549     8.449
    29   6 C        2.922    -0.042    29.050     8.839
    30   6 C        2.920    -0.028    28.695     8.784
    31   6 C        2.919    -0.033    28.819     8.803
    32   6 C        2.920    -0.028    28.694     8.784
    33   6 C        2.922    -0.042    29.049     8.839
    34   6 C        2.985     0.006    27.873     8.660
    35   6 C        2.917    -0.032    28.807     8.801
    36   6 C        2.914    -0.030    28.741     8.791
    37   6 C        2.914    -0.029    28.720     8.788
    38   6 C        2.917    -0.035    28.862     8.810
    39   6 C        2.984     0.006    27.869     8.660
    40   6 C        2.923    -0.029    28.722     8.789
    41   6 C        2.925    -0.021    28.520     8.758
    42   1 H        0.926     0.041     2.429     2.437
    43   1 H        0.926     0.038     2.471     2.458
    44   1 H        0.926     0.026     2.638     2.540
    45   1 H        0.926     0.030     2.584     2.514
    46   1 H        0.926     0.030     2.583     2.513
    47   1 H        0.926     0.033     2.541     2.493
    48   1 H        0.926     0.029     2.607     2.525
    49   1 H        0.926     0.029     2.600     2.522
    50   1 H        0.926     0.030     2.582     2.513
    51   1 H        0.926     0.031     2.572     2.508
    52   1 H        0.926     0.028     2.608     2.526
    53   1 H        0.926     0.030     2.593     2.518
    54   1 H        0.926     0.028     2.619     2.531
    55   1 H        0.926     0.040     2.447     2.446
    56   1 H        0.926     0.036     2.496     2.471
    57   1 H        0.926     0.036     2.508     2.476
    58   1 H        0.926     0.037     2.495     2.470
    59   1 H        0.926     0.041     2.439     2.442
    60   1 H        0.926     0.033     2.544     2.494
    61   1 H        0.926     0.030     2.585     2.514
    62   1 H        0.926     0.030     2.585     2.514
    63   1 H        0.926     0.026     2.639     2.540
    64   1 H        0.926     0.039     2.469     2.457
    65   1 H        0.926     0.042     2.428     2.437

molecular dipole:
                 x           y           z       tot (Debye)
 q only:        2.066      -0.305      -0.162
   full:        2.551      -0.358      -0.189       6.566

 projected vibrational frequencies (cm⁻¹)
eigval :       -0.00    -0.00     0.00     0.00     0.00     0.00
eigval :      -27.33   -11.37    13.26    17.25    35.65    45.83
eigval :       55.99    64.54    66.50    70.84    98.68   104.08
eigval :      114.41   128.76   132.26   137.99   145.77   181.98
eigval :      203.95   208.61   209.64   234.58   250.34   257.57
eigval :      265.15   316.37   331.66   354.30   358.84   380.59
eigval :      384.27   389.66   395.80   397.62   412.40   429.65
eigval :      435.37   443.59   447.43   457.80   459.69   477.69
eigval :      512.06   532.33   534.21   536.74   543.51   560.00
eigval :      580.11   583.20   586.61   588.53   599.55   610.30
eigval :      622.20   626.07   641.35   649.49   669.81   681.30
eigval :      686.57   691.88   698.25   708.30   724.43   739.83
eigval :      763.49   770.51   774.90   775.85   776.56   798.72
eigval :      811.56   819.75   869.59   869.66   873.20   874.87
eigval :      874.98   883.12   889.23   898.18   901.21   905.58
eigval :      911.90   915.34   917.23   917.63   922.23   922.65
eigval :      925.55   926.37   927.65   927.98   933.08   933.46
eigval :      934.18   964.89   998.20  1020.07  1031.02  1071.71
eigval :     1077.95  1078.88  1080.65  1118.11  1119.82  1130.91
eigval :     1135.29  1137.97  1156.34  1178.54  1179.78  1181.24
eigval :     1182.05  1183.68  1185.45  1194.31  1201.58  1206.25
eigval :     1226.25  1235.29  1242.49  1245.86  1257.61  1263.52
eigval :     1266.05  1274.98  1280.20  1304.21  1305.98  1318.15
eigval :     1328.23  1344.25  1350.22  1360.11  1362.10  1381.40
eigval :     1385.98  1392.10  1418.27  1419.90  1430.33  1432.75
eigval :     1437.04  1447.84  1468.81  1482.58  1484.68  1491.25
eigval :     1497.81  1527.13  1535.06  1544.92  1548.91  1565.58
eigval :     1582.97  1584.89  1590.99  1596.49  1599.79  1608.63
eigval :     1615.72  1623.47  2374.98  3073.07  3073.14  3077.03
eigval :     3077.76  3077.93  3078.98  3079.58  3081.34  3081.81
eigval :     3082.23  3083.13  3086.47  3086.55  3087.36  3089.83
eigval :     3090.60  3091.71  3093.07  3093.25  3093.46  3094.13
eigval :     3094.25  3096.63  3099.67

   temp. (K)  partition function   enthalpy   heat capacity  entropy
                                   cal/mol     cal/K/mol   cal/K/mol   J/K/mol
 298.15  VIB  0.199E+14            17774.173    116.162    109.541
         ROT  0.538E+08              888.752      2.981     38.356
         INT  0.107E+22            18662.925    119.143    147.897
         TR   0.115E+29             1481.254      4.968     44.616
         TOT                       20144.1790   124.1109   192.5128   805.4735

       T/K    H(0)-H(T)+PV         H(T)/Eh          T*S/Eh         G(T)/Eh
   ------------------------------------------------------------------------
    298.15    0.321018E-01    0.526223E+00    0.914690E-01    0.434754E+00
   ------------------------------------------------------------------------

         :::::::::::::::::::::::::::::::::::::::::::::::::::::
         ::                  THERMODYNAMIC                  ::
         :::::::::::::::::::::::::::::::::::::::::::::::::::::
         :: total free energy        -101.157542056945 Eh   ::
         ::.................................................::
         :: total energy             -101.592295616576 Eh   ::
         :: zero point energy           0.494120802993 Eh   ::
         :: G(RRHO) w/o ZPVE           -0.059367243362 Eh   ::
         :: G(RRHO) contrib.            0.434753559632 Eh   ::
         :::::::::::::::::::::::::::::::::::::::::::::::::::::

           -------------------------------------------------
          | TOTAL ENERGY             -101.592295616576 Eh   |
          | TOTAL ENTHALPY           -101.066073020907 Eh   |
          | TOTAL FREE ENERGY        -101.157542056945 Eh   |
          | GRADIENT NORM               0.000100114448 Eh/α |
          | HOMO-LUMO GAP               2.193242227309 eV   |
           -------------------------------------------------

 * finished run on 2025/09/09 at 21:49:34.476
