   * xtb version 6.7.1 (edcfbbe) compiled by 'albert@albert-system' on 2024-07-22

   ID    Z sym.   atoms
    1    6 C      1-8, 10-16, 18-23, 25-30, 32-35, 37-43, 45-59
    2    7 N      9, 17, 24, 31, 36, 44
    3    1 H      60-101

          program call               : xtb data2507/gas/PY-TPA/PY-TPA_gas_T1_crest.xyz --gfn 2 --spinpol --tblite --uhf 2 --ohess vtight --parallel 40 --molden --ceasefiles --namespace data2507/gas/PY-TPA/PY-TPA_gas_T1_finalOpt
 * total energy  :  -152.4111816 Eh     change        0.2719162E-07 Eh
 * total energy  :  -152.4112011 Eh     change       -0.1946995E-04 Eh
 * total energy  :  -152.4111994 Eh     change        0.1690671E-05 Eh
 * total energy  :  -152.4112018 Eh     change       -0.2362151E-05 Eh
 * total energy  :  -152.4112071 Eh     change       -0.5367000E-05 Eh
 * total energy  :  -152.4112070 Eh     change        0.1168707E-06 Eh
 * total energy  :  -152.4112079 Eh     change       -0.8791537E-06 Eh
 * total energy  :  -152.4112104 Eh     change       -0.2489210E-05 Eh
 * total energy  :  -152.4112119 Eh     change       -0.1548336E-05 Eh
 * total energy  :  -152.4112159 Eh     change       -0.3917817E-05 Eh
 * total energy  :  -152.4112203 Eh     change       -0.2343842E-06 Eh
 * total energy  :  -152.4112207 Eh     change       -0.3874898E-06 Eh
 * total energy  :  -152.4112211 Eh     change       -0.3974569E-06 Eh
 * total energy  :  -152.4112214 Eh     change       -0.3281577E-06 Eh
 * total energy  :  -152.4112217 Eh     change       -0.2451845E-06 Eh
 * total energy  :  -152.4112217 Eh     change       -0.8647589E-08 Eh
 * total energy  :  -152.4112219 Eh     change       -0.1906003E-06 Eh
 * total energy  :  -152.4112220 Eh     change       -0.1339565E-06 Eh
 * total energy  :  -152.4112220 Eh     change       -0.1792102E-07 Eh
   *** GEOMETRY OPTIMIZATION CONVERGED AFTER 22 ITERATIONS ***

 final structure:
================
101
 xtb: 6.7.1 (edcfbbe)
C           -5.88368929627392       -6.74721068979626       -1.10363173994189
C           -6.96098334891098       -5.86530881094235       -0.45626208537695
C           -8.21897076061947       -5.93145687924950       -1.32625615981998
C           -7.31200866174002       -6.41082761906129        0.93549216092380
C           -6.42243950791849       -4.45201573154811       -0.31234143451588
C           -7.01745440085762       -3.34641462643059       -0.91066418374979
C           -6.49837086218097       -2.07515743276388       -0.76011850819981
C           -5.35600217429267       -1.86187212693859        0.00789750097621
N           -4.82409883468976       -0.58177842814341        0.17091864519001
C           -3.44320885886112       -0.39247178338153        0.22894669357881
C           -2.57846401034950       -1.14657484229074       -0.56560532161702
C           -1.22698569810489       -0.87330059840195       -0.57292174196332
C           -0.70272073490033        0.16146146135846        0.19891790645759
C            0.70712498324307        0.55264362921861        0.07839102950083
C            1.70938547791615       -0.40269719941078        0.17194076067494
C            3.05561918471038       -0.06086096441753        0.09462911376092
N            4.03365474202681       -0.96102150292260        0.18612464253163
C            5.31212079596040       -0.61991242653959        0.11611138507864
C            6.34312466430341       -1.60221353754521        0.21693590733839
C            5.98279869491565       -2.95069781446544        0.39506016718103
C            6.93237796472324       -3.92814953566142        0.49708221383671
C            8.29177554645462       -3.57333897105523        0.42198875813030
C            9.28290194538409       -4.57316076531775        0.52614516175116
N           10.08499761306242       -5.38902651629622        0.61142443662000
C            8.66499768843507       -2.25039084140994        0.24674110541929
C            7.70974534665632       -1.23563323873027        0.14006832285461
C            8.06234379039566        0.15437410058838       -0.04329959341410
C            9.38651695889534        0.59359744453771       -0.12974029695491
C            9.68901351002634        1.93433501998574       -0.30579678385629
C           11.03779819925160        2.34299477552865       -0.38873882224659
N           12.13261214438121        2.67911527260979       -0.45647317415737
C            8.66264181465715        2.89163425150518       -0.40250542107098
C            7.36123859778077        2.48243716701439       -0.32053677001607
C            7.03527232852830        1.12548489906107       -0.14171048405858
C            5.65963655977835        0.75068476583517       -0.06289621272974
N            4.69815186164551        1.65719950897645       -0.15304715032004
C            3.40799053220487        1.32888849965827       -0.08560222871690
C            2.38783287792467        2.26834889911551       -0.19041530608950
C            1.04966393463814        1.90344749073747       -0.12128342034975
C            0.01192829534446        2.92771671025459       -0.29616699577550
C            0.05137477859616        4.13364517299505        0.40030041813769
C           -0.97304397467299        5.04879213373612        0.22894745586669
C           -2.00961544817268        4.72501545933261       -0.63207572821546
N           -2.04349519236406        3.60053550594854       -1.32954357785718
C           -1.05966925993920        2.73845159242150       -1.17426929814738
C           -1.56032500167489        0.85665502845931        1.05277126257013
C           -2.90859792099725        0.58495883377349        1.07152892403856
C           -5.66264962005582        0.53738865313266        0.22568708407226
C           -5.27610920470019        1.74549851156724       -0.35646145069351
C           -6.10481753841639        2.84403139885527       -0.28900488705381
C           -7.34493537317446        2.79468080169411        0.34705195174876
C           -8.21569708663121        4.03893201380779        0.38891119373280
C           -8.53743304550394        4.47197694869620       -1.04860482271033
C           -7.45084480926733        5.15829776673668        1.10960294232221
C           -9.53753256001335        3.81069986697933        1.12678750904416
C           -7.71972544542051        1.58375796821671        0.91920682776801
C           -6.89788274705597        0.47418500626037        0.86552092613670
C           -4.75077756667316       -2.96295831701055        0.61452696970679
C           -5.27735574968642       -4.22573057967953        0.45067867195967
H           -5.61358805060256       -6.35414164237877       -2.08161200667184
H           -6.25725929811108       -7.76089239581921       -1.23055903380208
H           -4.98581319005511       -6.79007227376628       -0.49353068495344
H           -8.55864715141843       -6.96291724844380       -1.39282133234691
H           -9.02451077077781       -5.34070818945448       -0.89627410550966
H           -8.01671941125069       -5.57983019602753       -2.33530489007907
H           -7.71578532896728       -7.41734447527933        0.85120822464826
H           -6.43809139381124       -6.44837265218970        1.57974597359848
H           -8.05907569571747       -5.77801820675543        1.41020172762362
H           -7.89989122371809       -3.46051561520508       -1.51832155625694
H           -6.97354608170245       -1.23802823863172       -1.25004956392664
H           -2.98025430548758       -1.91892327483952       -1.20467366374164
H           -0.57224023448854       -1.43152157520313       -1.22589322270339
H            1.45581379314554       -1.43894415012111        0.33520221121304
H            4.93138402641277       -3.18782343308164        0.44862933475036
H            6.65847320118425       -4.96340470072740        0.63379023465773
H            9.71863051862160       -2.02489036884773        0.19483344792268
H           10.20577574020541       -0.10482447940711       -0.06117871512889
H            8.91525714972591        3.93218708512323       -0.53981391072437
H            6.54955407111084        3.19006131316533       -0.39134165599206
H            2.66273120988681        3.29838907938943       -0.35947116620551
H            0.86369379852024        4.33564732259355        1.08445659370385
H           -0.97224811457343        5.98772719225147        0.76096230203759
H           -2.84663706871230        5.39417689873368       -0.78123646192378
H           -1.11773755522156        1.84801638275214       -1.78688940466999
H           -1.15973381247377        1.61459233065216        1.70941838178662
H           -3.56576627199232        1.13615856450264        1.72748409018524
H           -4.32750082509071        1.82313985837576       -0.86692370838946
H           -5.76865119435778        3.75664440208743       -0.75589285355749
H           -9.06206150383417        3.67581269533970       -1.57272452016843
H           -7.63382970261587        4.70727623300662       -1.60365303235972
H           -9.17201235024885        5.35550096620282       -1.03961173443033
H           -7.20167074601015        4.85134660085663        2.12337304370114
H           -8.06301086956315        6.05603672578246        1.16160475677522
H           -6.52821177396504        5.40461736439104        0.59174204287294
H           -9.36465256421793        3.52614872891550        2.16215277679222
H          -10.13092096002725        3.04097851421985        0.63876958832327
H          -10.11672023259167        4.73175117442672        1.12474908958812
H           -8.66368961725205        1.48644651562128        1.42977351437114
H           -7.20894178486188       -0.44915729050121        1.33233153940681
H           -3.87046732119838       -2.81740970646804        1.22347948321989
H           -4.78249244491851       -5.05056998883137        0.94019969037485

 projected vibrational frequencies (cm⁻¹)
eigval :       -0.00    -0.00    -0.00     0.00     0.00     0.00
eigval :        7.31     8.06     9.77    19.56    23.49    24.27
eigval :       25.68    29.69    36.44    43.54    45.44    52.83
eigval :       61.72    66.13    70.84    79.74    80.78    87.13
eigval :       95.59    99.91   102.96   109.26   114.81   125.19
eigval :      140.82   152.02   163.49   167.29   171.14   175.97
eigval :      182.17   187.33   190.71   208.73   219.03   225.55
eigval :      231.22   235.55   243.57   251.43   260.77   267.52
eigval :      275.14   278.30   300.98   305.40   311.70   314.90
eigval :      315.89   329.84   343.42   347.91   351.24   357.62
eigval :      362.32   373.84   379.06   381.22   382.80   388.04
eigval :      390.27   392.80   394.72   395.20   405.18   415.53
eigval :      423.27   431.46   440.95   453.92   458.71   461.71
eigval :      469.14   490.97   494.16   499.17   509.77   518.62
eigval :      527.87   533.67   541.49   551.71   555.29   561.08
eigval :      566.30   576.76   583.17   594.74   602.18   607.21
eigval :      607.96   610.18   615.35   621.02   631.78   638.87
eigval :      645.81   653.86   678.86   679.93   687.39   688.34
eigval :      694.95   696.57   707.91   711.05   718.97   723.72
eigval :      728.36   765.70   785.28   790.78   813.95   816.46
eigval :      819.83   821.15   823.47   824.67   831.26   848.50
eigval :      855.37   866.45   868.66   869.00   872.41   876.09
eigval :      882.08   905.34   910.68   912.90   914.24   915.32
eigval :      915.50   918.40   918.67   927.34   929.04   929.37
eigval :      933.24   933.96   940.64   951.79   953.08   960.55
eigval :      960.57   962.89   963.16   963.75   963.84   997.46
eigval :     1010.36  1023.76  1026.99  1035.15  1035.27  1035.30
eigval :     1035.73  1040.32  1062.61  1079.78  1096.90  1137.78
eigval :     1140.02  1143.69  1144.41  1145.19  1146.65  1153.65
eigval :     1156.12  1186.20  1188.53  1189.82  1196.21  1197.59
eigval :     1203.56  1208.11  1224.24  1226.98  1227.04  1233.80
eigval :     1234.10  1236.27  1236.55  1238.85  1244.84  1248.96
eigval :     1265.69  1268.09  1269.79  1276.88  1278.95  1280.77
eigval :     1283.70  1284.21  1290.34  1295.84  1298.77  1310.82
eigval :     1317.84  1322.96  1325.53  1328.37  1329.36  1343.41
eigval :     1353.03  1375.74  1391.29  1398.15  1400.26  1403.19
eigval :     1405.65  1405.72  1406.01  1408.56  1414.77  1416.90
eigval :     1422.22  1423.75  1429.14  1429.41  1452.26  1456.79
eigval :     1468.29  1479.69  1480.28  1481.87  1486.52  1491.06
eigval :     1491.41  1493.65  1493.73  1499.47  1500.99  1501.46
eigval :     1505.09  1505.45  1510.19  1514.31  1514.37  1519.07
eigval :     1519.16  1526.04  1534.05  1549.07  1559.02  1559.69
eigval :     1562.09  1569.70  1571.12  1575.40  1587.71  1592.09
eigval :     1600.49  2362.70  2366.07  3024.60  3025.15  3025.84
eigval :     3026.57  3028.29  3028.70  3031.38  3031.59  3033.11
eigval :     3033.74  3036.54  3036.84  3040.04  3040.48  3047.94
eigval :     3048.86  3051.17  3052.43  3057.23  3058.92  3069.30
eigval :     3079.46  3080.86  3080.91  3082.58  3085.22  3087.11
eigval :     3090.63  3090.70  3090.95  3091.65  3091.79  3092.99
eigval :     3093.55  3094.48  3098.24  3099.65  3102.46  3102.76
eigval :     3108.73  3115.75  3117.39

   temp. (K)  partition function   enthalpy   heat capacity  entropy
                                   cal/mol     cal/K/mol   cal/K/mol   J/K/mol
 298.15  VIB  0.797E+25            30984.911    188.828    194.680
         ROT  0.238E+09              888.752      2.981     41.311
         INT  0.190E+34            31873.664    191.809    235.991
         TR   0.204E+29             1481.254      4.968     45.754
         TOT                       33354.9176   196.7775   281.7450  1178.8212

       T/K    H(0)-H(T)+PV         H(T)/Eh          T*S/Eh         G(T)/Eh
   ------------------------------------------------------------------------
    298.15    0.531544E-01    0.842103E+00    0.133866E+00    0.708236E+00
   ------------------------------------------------------------------------

         :::::::::::::::::::::::::::::::::::::::::::::::::::::
         ::                  THERMODYNAMIC                  ::
         :::::::::::::::::::::::::::::::::::::::::::::::::::::
         :: total free energy        -151.702985579159 Eh   ::
         ::.................................................::
         :: total energy             -152.411222016779 Eh   ::
         :: zero point energy           0.788948148205 Eh   ::
         :: G(RRHO) w/o ZPVE           -0.080711710585 Eh   ::
         :: G(RRHO) contrib.            0.708236437620 Eh   ::
         :::::::::::::::::::::::::::::::::::::::::::::::::::::

           -------------------------------------------------
          | TOTAL ENERGY             -152.411222016779 Eh   |
          | TOTAL ENTHALPY           -151.569119423936 Eh   |
          | TOTAL FREE ENERGY        -151.702985579159 Eh   |
          | GRADIENT NORM               0.000182958521 Eh/α |
           -------------------------------------------------

 * finished run on 2025/07/18 at 22:33:50.732
