   * xtb version 6.7.1 (edcfbbe) compiled by 'albert@albert-system' on 2024-07-22

   ID    Z sym.   atoms
    1    6 C      1-8, 10-16, 18-23, 25-30, 32-35, 37-43, 45-59
    2    7 N      9, 17, 24, 31, 36, 44
    3    1 H      60-101

          program call               : xtb data2507/gas/PY-TPA/PY-TPA_gas_S0_crest.xyz --gfn 2 --ohess vtight --parallel 40 --molden --ceasefiles --namespace data2507/gas/PY-TPA/PY-TPA_gas_S0_finalOpt
          :  Hamiltonian                  GFN2-xTB          :
 * total energy  :  -152.4504092 Eh     change       -0.3531596E-08 Eh
 * total energy  :  -152.4504177 Eh     change       -0.8581803E-05 Eh
 * total energy  :  -152.4504219 Eh     change       -0.4175964E-05 Eh
 * total energy  :  -152.4504244 Eh     change       -0.2472732E-05 Eh
 * total energy  :  -152.4504261 Eh     change       -0.1749555E-05 Eh
 * total energy  :  -152.4504270 Eh     change       -0.8543950E-06 Eh
 * total energy  :  -152.4504279 Eh     change       -0.8777060E-06 Eh
 * total energy  :  -152.4504278 Eh     change        0.1059371E-06 Eh
 * total energy  :  -152.4504284 Eh     change       -0.6729857E-06 Eh
 * total energy  :  -152.4504291 Eh     change       -0.6218504E-06 Eh
 * total energy  :  -152.4504363 Eh     change        0.7572802E-06 Eh
 * total energy  :  -152.4504373 Eh     change       -0.9518854E-06 Eh
 * total energy  :  -152.4504373 Eh     change        0.9796679E-08 Eh
 * total energy  :  -152.4504374 Eh     change       -0.1241741E-06 Eh
 * total energy  :  -152.4504375 Eh     change       -0.1495719E-06 Eh
 * total energy  :  -152.4504377 Eh     change       -0.1562529E-06 Eh
 * total energy  :  -152.4504377 Eh     change       -0.2989239E-07 Eh
 * total energy  :  -152.4504378 Eh     change       -0.1140155E-06 Eh
 * total energy  :  -152.4504378 Eh     change       -0.1108927E-07 Eh
   *** GEOMETRY OPTIMIZATION CONVERGED AFTER 34 ITERATIONS ***

 final structure:
================
101
 xtb: 6.7.1 (edcfbbe)
C           -5.86850914868312       -6.72731112526863       -1.10438634463311
C           -6.94559809665486       -5.84242981715722       -0.46099827802194
C           -8.20024016221038       -5.90548855367072       -1.33613531228436
C           -7.30412357157178       -6.38806839860192        0.92861304403848
C           -6.40411226801529       -4.42957815767440       -0.31484269171995
C           -6.99337062887043       -3.32307954276759       -0.91518511927363
C           -6.46996407141988       -2.05291485788268       -0.76312459511590
C           -5.33229832116380       -1.84276697715392        0.00942455156091
N           -4.80305700610178       -0.55740493964380        0.17934931613602
C           -3.42976870210662       -0.35363954862729        0.20837231401302
C           -2.56460438361838       -1.13471641509854       -0.56190346769106
C           -1.21367954418873       -0.86441386658659       -0.58405643200436
C           -0.68343348659512        0.19811848055407        0.14522711126943
C            0.73273801043613        0.55980293510061        0.02323479346457
C            1.71206171769201       -0.39495076837639        0.13248069317880
C            3.07369297391328       -0.04748695626801        0.05146408118127
N            4.01599665945418       -0.99141514793409        0.16895255341003
C            5.28052524946127       -0.61448247191385        0.10385628222098
C            6.31489888489137       -1.61756301366291        0.22755093220759
C            5.94752591769819       -2.95590675207062        0.40712208192577
C            6.89699416040965       -3.93894897790752        0.52721348828247
C            8.25080347198133       -3.58448534992099        0.46674897742480
C            9.24544549048800       -4.58285629226259        0.58749907413753
N           10.05064028618034       -5.39267760262222        0.68588696070183
C            8.62937267558183       -2.26080915053458        0.28946016921062
C            7.67473065846503       -1.24889484534505        0.16682534176928
C            8.04046118411225        0.14966278550214       -0.01844177985482
C            9.36997668536864        0.57258015224049       -0.07816967492554
C            9.68801397807108        1.91214214455294       -0.25545057475787
C           11.04586087209963        2.30427305482673       -0.30902055820186
N           12.14597508779568        2.62330110485111       -0.35191616919079
C            8.67903153743053        2.87579917182340       -0.38042387517724
C            7.36809941505211        2.47557029071637       -0.32318681709747
C            7.03287480057231        1.12870056711177       -0.14316274436967
C            5.63856730066105        0.75189146144252       -0.08411617780132
N            4.71725508091581        1.69237147368305       -0.20490405202891
C            3.43380041143676        1.32231305732496       -0.14175506739705
C            2.41426550815134        2.28619864785235       -0.27610680498434
C            1.09420880509836        1.92433830936311       -0.20926768016637
C            0.05072727039020        2.93794779457973       -0.42284406106945
C            0.06188554375267        4.14974258404385        0.26269084743322
C           -0.96009001787340        5.05833734722484        0.04656267843017
C           -1.96281970835981        4.72080010830663       -0.84886516773229
N           -1.96621719646144        3.58993591301806       -1.53542488463013
C           -0.98813000344849        2.73132194528549       -1.33498776688264
C           -1.54036838871762        0.93398859485889        0.96504244634405
C           -2.88716326987022        0.66038595631532        1.00350341571142
C           -5.66562530175466        0.54578797104126        0.27236664843614
C           -5.34209200066325        1.75721741341449       -0.33647658682388
C           -6.19590897589088        2.83487172167722       -0.23505909627370
C           -7.40143769086118        2.75690000972597        0.46003865191783
C           -8.30436157493091        3.97757420325093        0.53480411536357
C           -8.71368366816180        4.38451079673647       -0.88782081880330
C           -7.53735452071196        5.12730211825977        1.20333400025080
C           -9.57871816007252        3.72082934129655        1.34353836259657
C           -7.71527933766207        1.54092002608923        1.05539895646228
C           -6.86527355684189        0.45387867445659        0.96986925158566
C           -4.73543782850932       -2.94332976683737        0.62133816490691
C           -5.26341088748393       -4.20597829228147        0.45383950267138
H           -5.59539434442999       -6.33559628582998       -2.08211713473937
H           -6.24268667730669       -7.74101073956137       -1.23097976594661
H           -4.97215602936394       -6.76979615038571       -0.49192433802973
H           -8.54220507657108       -6.93621717174274       -1.40504921841582
H           -9.00586902248608       -5.31276210386607       -0.90903236634883
H           -7.99292239777485       -5.55300650300403       -2.34386604190341
H           -7.71082468453690       -7.39350260515633        0.84298735975718
H           -6.43271960350988       -6.42801137604344        1.57619177925885
H           -8.05077167378033       -5.75268809086666        1.40057227420071
H           -7.87516623914653       -3.43366196603651       -1.52469268939281
H           -6.94484777680899       -1.21321938249272       -1.24927508728944
H           -2.96649555828796       -1.93397714580918       -1.16659664528964
H           -0.56217082894593       -1.44974347921068       -1.21664176923366
H            1.45951924005877       -1.42914265412591        0.30984359981994
H            4.89456185104307       -3.18565244513974        0.44735529439836
H            6.61913726068482       -4.97282671518438        0.66592223282335
H            9.68415862806773       -2.03927634970577        0.24898130686631
H           10.18272088972185       -0.13059296129612        0.01289537616514
H            8.94291060518434        3.91341410361019       -0.51863230252082
H            6.56118830798038        3.18528379647580       -0.41464105353682
H            2.70394531332115        3.30958521785161       -0.46185699682297
H            0.84927274586652        4.36074475160608        0.97290686026741
H           -0.98310406091613        6.00163771773089        0.56991848326547
H           -2.79785972130051        5.38314481354788       -1.03406218488740
H           -1.02300647271395        1.83289536929276       -1.93716978732678
H           -1.13900763970548        1.71620869394405        1.59271474996179
H           -3.53886903036794        1.23852317972897        1.64130605492761
H           -4.41999728066930        1.85430567222024       -0.89112612733613
H           -5.90844415860661        3.75364438794708       -0.72293336504876
H           -9.24287298582684        3.56780165998783       -1.37442291636617
H           -7.84699103897412        4.63623729610155       -1.49249652617888
H           -9.37087232074659        5.25101947488985       -0.85564856352432
H           -7.22552057368087        4.83860477980479        2.20509750781773
H           -8.17255484991823        6.00732893301525        1.27974751800434
H           -6.65122890708260        5.39531779769507        0.63483769664195
H           -9.34311538984773        3.44995580300601        2.37017952678810
H          -10.17535588401763        2.93064163218707        0.89375964420591
H          -10.18259227197521        4.62582497762861        1.36530817647059
H           -8.63233077317496        1.41991312255532        1.60843351201278
H           -7.13167859776120       -0.47683773667292        1.44969625122134
H           -3.85699787067257       -2.80043762293639        1.23404497433220
H           -4.77237810070523       -5.03186506982540        0.94608986269543

          :  Hamiltonian                  GFN2-xTB          :
         :: gradient norm              0.000131239047 Eh/a0 ::
         :: HOMO-LUMO gap              0.864884964734 eV    ::
         :: SCC energy              -155.244360824244 Eh    ::
         :: -> dispersion             -0.139006826530 Eh    ::
         :: repulsion energy           2.793922977565 Eh    ::

    * Orbital Energies and Occupations

         #    Occupation            Energy/Eh            Energy/eV
      -------------------------------------------------------------
         1        2.0000           -0.6882667             -18.7287
       ...           ...                  ...                  ...
       130        2.0000           -0.4188290             -11.3969
       131        2.0000           -0.4157784             -11.3139
       132        2.0000           -0.4156143             -11.3094
       133        2.0000           -0.4128681             -11.2347
       134        2.0000           -0.4102297             -11.1629
       135        2.0000           -0.4056400             -11.0380
       136        2.0000           -0.4045753             -11.0091
       137        2.0000           -0.4033035             -10.9744
       138        2.0000           -0.3982407             -10.8367
       139        2.0000           -0.3976349             -10.8202
       140        2.0000           -0.3780234             -10.2865
       141        2.0000           -0.3631665              -9.8823
       142        2.0000           -0.3497455              -9.5171 (HOMO)
       143        0.0000           -0.3179616              -8.6522 (LUMO)
       144                         -0.2978236              -8.1042
       145                         -0.2761768              -7.5152
       146                         -0.2673586              -7.2752
       147                         -0.2633606              -7.1664
       148                         -0.2559398              -6.9645
       149                         -0.2435815              -6.6282
       150                         -0.2328651              -6.3366
       151                         -0.2310144              -6.2862
       152                         -0.2288806              -6.2282
       153                         -0.2230459              -6.0694
       ...                                ...                  ...
       278                          1.1658924              31.7255
      -------------------------------------------------------------
                  HL-Gap            0.0317839 Eh            0.8649 eV

     #   Z          covCN         q      C6AA      α(0)
     1   6 C        3.762    -0.106    22.563     6.771
     2   6 C        3.903     0.026    20.084     6.370
     3   6 C        3.761    -0.108    22.605     6.778
     4   6 C        3.762    -0.106    22.563     6.771
     5   6 C        2.973     0.002    27.978     8.676
     6   6 C        2.925    -0.039    28.979     8.828
     7   6 C        2.922    -0.050    29.233     8.866
     8   6 C        2.923     0.060    26.658     8.467
     9   7 N        2.752    -0.070    22.604     7.061
    10   6 C        2.926     0.069    26.457     8.435
    11   6 C        2.920    -0.049    29.207     8.862
    12   6 C        2.923    -0.033    28.828     8.805
    13   6 C        2.978    -0.002    28.063     8.690
    14   6 C        2.976     0.013    27.710     8.635
    15   6 C        2.922    -0.048    29.204     8.862
    16   6 C        2.965     0.083    26.158     8.389
    17   7 N        1.849    -0.239    27.095     7.715
    18   6 C        2.963     0.082    26.166     8.390
    19   6 C        2.988     0.006    27.886     8.662
    20   6 C        2.923    -0.024    28.612     8.772
    21   6 C        2.923    -0.020    28.512     8.756
    22   6 C        2.972     0.022    27.511     8.604
    23   6 C        1.913     0.112    28.330     8.596
    24   7 N        0.911    -0.226    25.942     7.366
    25   6 C        2.931    -0.025    28.627     8.775
    26   6 C        2.975     0.009    27.821     8.652
    27   6 C        2.975     0.008    27.827     8.653
    28   6 C        2.931    -0.025    28.626     8.774
    29   6 C        2.972     0.022    27.517     8.604
    30   6 C        1.913     0.112    28.332     8.596
    31   7 N        0.911    -0.226    25.949     7.367
    32   6 C        2.923    -0.020    28.513     8.757
    33   6 C        2.923    -0.025    28.617     8.773
    34   6 C        2.988     0.006    27.886     8.662
    35   6 C        2.963     0.081    26.190     8.394
    36   7 N        1.849    -0.239    27.091     7.714
    37   6 C        2.966     0.082    26.161     8.390
    38   6 C        2.922    -0.047    29.159     8.855
    39   6 C        2.975     0.010    27.799     8.649
    40   6 C        2.974     0.006    27.892     8.663
    41   6 C        2.933    -0.016    28.406     8.741
    42   6 C        2.912    -0.038    28.947     8.822
    43   6 C        2.914     0.059    26.677     8.469
    44   7 N        1.835    -0.217    26.564     7.638
    45   6 C        2.917     0.061    26.638     8.464
    46   6 C        2.923    -0.031    28.765     8.795
    47   6 C        2.922    -0.048    29.188     8.860
    48   6 C        2.926     0.059    26.670     8.469
    49   6 C        2.920    -0.050    29.231     8.866
    50   6 C        2.928    -0.035    28.866     8.811
    51   6 C        2.973     0.002    27.974     8.676
    52   6 C        3.903     0.026    20.085     6.370
    53   6 C        3.762    -0.106    22.569     6.772
    54   6 C        3.762    -0.105    22.559     6.771
    55   6 C        3.761    -0.108    22.602     6.777
    56   6 C        2.925    -0.040    28.994     8.830
    57   6 C        2.921    -0.050    29.234     8.867
    58   6 C        2.921    -0.050    29.245     8.868
    59   6 C        2.927    -0.035    28.881     8.813
    60   1 H        0.925     0.034     2.536     2.491
    61   1 H        0.925     0.038     2.482     2.464
    62   1 H        0.925     0.036     2.499     2.472
    63   1 H        0.925     0.037     2.494     2.470
    64   1 H        0.925     0.036     2.505     2.475
    65   1 H        0.925     0.036     2.504     2.475
    66   1 H        0.925     0.037     2.483     2.464
    67   1 H        0.925     0.036     2.499     2.472
    68   1 H        0.925     0.034     2.537     2.491
    69   1 H        0.926     0.039     2.468     2.457
    70   1 H        0.926     0.031     2.567     2.506
    71   1 H        0.926     0.038     2.481     2.463
    72   1 H        0.926     0.035     2.515     2.480
    73   1 H        0.926     0.055     2.254     2.348
    74   1 H        0.926     0.068     2.104     2.268
    75   1 H        0.926     0.048     2.347     2.396
    76   1 H        0.926     0.046     2.364     2.404
    77   1 H        0.926     0.046     2.365     2.405
    78   1 H        0.926     0.048     2.350     2.397
    79   1 H        0.926     0.067     2.113     2.273
    80   1 H        0.926     0.053     2.288     2.365
    81   1 H        0.926     0.038     2.481     2.463
    82   1 H        0.926     0.039     2.460     2.453
    83   1 H        0.925     0.040     2.444     2.445
    84   1 H        0.925     0.039     2.469     2.457
    85   1 H        0.926     0.027     2.632     2.537
    86   1 H        0.926     0.035     2.516     2.480
    87   1 H        0.926     0.037     2.488     2.466
    88   1 H        0.926     0.034     2.531     2.488
    89   1 H        0.925     0.034     2.533     2.489
    90   1 H        0.925     0.037     2.483     2.464
    91   1 H        0.925     0.037     2.486     2.465
    92   1 H        0.925     0.033     2.548     2.496
    93   1 H        0.925     0.037     2.485     2.465
    94   1 H        0.925     0.036     2.502     2.473
    95   1 H        0.925     0.035     2.511     2.478
    96   1 H        0.925     0.036     2.504     2.475
    97   1 H        0.925     0.036     2.497     2.471
    98   1 H        0.926     0.038     2.476     2.461
    99   1 H        0.926     0.030     2.584     2.514
   100   1 H        0.926     0.029     2.602     2.523
   101   1 H        0.926     0.031     2.566     2.505

molecular dipole:
                 x           y           z       tot (Debye)
 q only:       -3.443       0.520       0.156
   full:       -3.824       0.826       0.382       9.991

 projected vibrational frequencies (cm⁻¹)
eigval :       -0.00    -0.00    -0.00     0.00     0.00     0.00
eigval :        7.13     8.00     9.60    19.02    23.12    24.26
eigval :       25.58    29.61    37.00    41.51    44.96    52.31
eigval :       59.98    66.55    69.10    77.69    79.62    86.69
eigval :       95.53    98.76   101.51   111.03   115.72   125.98
eigval :      141.35   146.56   163.23   167.26   171.36   176.58
eigval :      183.45   185.61   193.80   209.97   219.45   226.49
eigval :      231.32   236.44   245.96   250.60   264.43   269.46
eigval :      277.37   283.57   300.89   305.35   314.49   315.38
eigval :      318.07   331.00   342.76   349.87   358.46   360.95
eigval :      363.77   371.94   378.64   382.63   383.97   388.06
eigval :      389.86   390.47   393.35   395.41   415.64   419.36
eigval :      428.05   435.45   441.77   452.02   458.65   466.01
eigval :      467.50   487.26   495.09   501.49   509.07   519.21
eigval :      530.05   534.49   541.82   552.34   555.87   561.60
eigval :      575.12   577.58   584.26   594.78   604.61   607.89
eigval :      609.30   611.04   626.21   634.27   643.09   647.94
eigval :      649.37   676.61   686.72   689.32   690.51   694.48
eigval :      703.46   711.00   719.00   720.77   732.88   737.30
eigval :      767.04   769.52   787.84   804.47   813.81   817.94
eigval :      818.82   829.45   831.74   850.25   853.76   860.05
eigval :      867.90   871.30   871.70   873.98   876.40   878.29
eigval :      882.53   904.11   913.61   914.22   914.89   917.44
eigval :      919.07   924.19   924.61   927.60   929.31   929.86
eigval :      933.31   934.29   951.42   952.67   960.41   960.42
eigval :      962.84   963.12   963.29   963.32   967.02   996.50
eigval :     1011.72  1025.87  1028.13  1035.31  1035.59  1035.69
eigval :     1035.75  1048.37  1063.12  1072.30  1096.61  1137.64
eigval :     1142.51  1144.88  1145.55  1145.96  1146.20  1153.91
eigval :     1156.03  1184.03  1190.38  1192.07  1197.14  1200.40
eigval :     1203.16  1210.72  1225.25  1227.84  1227.89  1231.15
eigval :     1234.36  1234.68  1234.94  1241.75  1255.74  1265.74
eigval :     1269.36  1273.06  1277.35  1279.24  1282.54  1282.96
eigval :     1285.91  1292.33  1296.27  1298.44  1313.24  1317.08
eigval :     1325.43  1328.62  1330.63  1334.81  1337.31  1359.22
eigval :     1375.37  1391.98  1395.04  1399.11  1402.83  1405.68
eigval :     1406.01  1409.23  1416.18  1418.66  1420.87  1428.14
eigval :     1429.46  1429.64  1435.70  1444.70  1460.31  1466.75
eigval :     1477.02  1486.91  1489.22  1491.78  1492.05  1492.11
eigval :     1494.69  1494.69  1497.03  1502.58  1502.94  1506.38
eigval :     1506.71  1514.53  1514.59  1519.79  1519.82  1519.88
eigval :     1542.16  1546.98  1549.77  1561.14  1565.93  1569.93
eigval :     1570.74  1574.61  1584.80  1586.44  1600.63  1602.65
eigval :     1606.40  2374.55  2376.13  3022.59  3023.09  3023.78
eigval :     3024.56  3027.27  3027.52  3030.62  3030.96  3031.57
eigval :     3031.91  3036.05  3036.31  3039.01  3039.18  3046.92
eigval :     3047.50  3050.40  3051.21  3060.99  3062.33  3069.01
eigval :     3075.98  3077.83  3079.38  3079.77  3081.26  3083.59
eigval :     3089.60  3091.41  3092.96  3093.59  3094.26  3094.73
eigval :     3094.84  3095.04  3097.45  3100.86  3111.57  3112.90
eigval :     3113.22  3113.80  3115.00

   temp. (K)  partition function   enthalpy   heat capacity  entropy
                                   cal/mol     cal/K/mol   cal/K/mol   J/K/mol
 298.15  VIB  0.879E+25            30860.814    187.707    194.169
         ROT  0.238E+09              888.752      2.981     41.308
         INT  0.209E+34            31749.567    190.688    235.477
         TR   0.204E+29             1481.254      4.968     45.754
         TOT                       33230.8205   195.6560   281.2312  1176.6714

       T/K    H(0)-H(T)+PV         H(T)/Eh          T*S/Eh         G(T)/Eh
   ------------------------------------------------------------------------
    298.15    0.529567E-01    0.844209E+00    0.133622E+00    0.710587E+00
   ------------------------------------------------------------------------

         :::::::::::::::::::::::::::::::::::::::::::::::::::::
         ::                  THERMODYNAMIC                  ::
         :::::::::::::::::::::::::::::::::::::::::::::::::::::
         :: total free energy        -151.739850752010 Eh   ::
         ::.................................................::
         :: total energy             -152.450437846678 Eh   ::
         :: zero point energy           0.791252441271 Eh   ::
         :: G(RRHO) w/o ZPVE           -0.080665346603 Eh   ::
         :: G(RRHO) contrib.            0.710587094668 Eh   ::
         :::::::::::::::::::::::::::::::::::::::::::::::::::::

           -------------------------------------------------
          | TOTAL ENERGY             -152.450437846678 Eh   |
          | TOTAL ENTHALPY           -151.606228722114 Eh   |
          | TOTAL FREE ENERGY        -151.739850752010 Eh   |
          | GRADIENT NORM               0.000131268429 Eh/α |
          | HOMO-LUMO GAP               0.864884456430 eV   |
           -------------------------------------------------

 * finished run on 2025/07/18 at 22:18:06.348
