   * xtb version 6.7.1 (edcfbbe) compiled by 'albert@albert-system' on 2024-07-22

   ID    Z sym.   atoms
    1    6 C      1-8, 10-16, 18-25, 27, 28, 30, 31, 33-36, 38-43, 45-48,
                  50-63
    2    7 N      9, 17, 26, 29, 32, 37, 44, 49
    3    1 H      64-107

          program call               : xtb data2507/gas/Py-TPA/Py-TPA_gas_S0_crest.xyz --gfn 2 --ohess vtight --parallel 40 --molden --ceasefiles --namespace data2507/gas/Py-TPA/Py-TPA_gas_S0_finalOpt
          :  Hamiltonian                  GFN2-xTB          :
 * total energy  :  -163.6308534 Eh     change       -0.2044885E-08 Eh
 * total energy  :  -163.6308549 Eh     change       -0.1440370E-05 Eh
 * total energy  :  -163.6308563 Eh     change       -0.1459846E-05 Eh
 * total energy  :  -163.6308595 Eh     change       -0.3189710E-05 Eh
 * total energy  :  -163.6308622 Eh     change       -0.2634888E-05 Eh
 * total energy  :  -163.6308652 Eh     change       -0.3069019E-05 Eh
 * total energy  :  -163.6308672 Eh     change       -0.1966468E-05 Eh
 * total energy  :  -163.6308697 Eh     change       -0.2531918E-05 Eh
 * total energy  :  -163.6308726 Eh     change       -0.2915253E-05 Eh
 * total energy  :  -163.6308750 Eh     change       -0.2398238E-05 Eh
 * total energy  :  -163.6309270 Eh     change       -0.1123829E-06 Eh
 * total energy  :  -163.6309270 Eh     change       -0.7090509E-07 Eh
 * total energy  :  -163.6309273 Eh     change       -0.2514268E-06 Eh
 * total energy  :  -163.6309272 Eh     change        0.7508092E-07 Eh
 * total energy  :  -163.6309274 Eh     change       -0.1577555E-06 Eh
 * total energy  :  -163.6309273 Eh     change        0.3491982E-07 Eh
 * total energy  :  -163.6309274 Eh     change       -0.1085077E-06 Eh
 * total energy  :  -163.6309274 Eh     change        0.4959901E-08 Eh
 * total energy  :  -163.6309275 Eh     change       -0.7210883E-07 Eh
   *** GEOMETRY OPTIMIZATION CONVERGED AFTER 76 ITERATIONS ***

 final structure:
================
107
 xtb: 6.7.1 (edcfbbe)
C           -7.28870624188749        6.56136600782887       -0.49366601272754
C           -8.17084300838162        5.57634125187148        0.27812343605770
C           -9.59324799187276        5.65864375219766       -0.29372071762675
C           -8.17918358983792        5.99738025060986        1.75456721297772
C           -7.67733725999657        4.14237511879296        0.17403889597599
C           -6.54733236133163        3.77791962866075       -0.54853173637236
C           -6.13143179337497        2.46190432714132       -0.62462512333491
C           -6.83311669272721        1.45738636336749        0.03411648634989
N           -6.42091335305331        0.11905522659370       -0.04362814802116
C           -5.07424690038522       -0.20855369185762       -0.00592658679162
C           -4.59112302151632       -1.32673872065525       -0.69298841850750
C           -3.25899918550766       -1.66659652272735       -0.63393323185932
C           -2.35438808477376       -0.89732068964854        0.09931894264815
C           -0.93643099120966       -1.25070651069911        0.16613473253962
C            0.03903867521782       -0.28844988171136        0.05358666799767
C            1.40368686016078       -0.62492597693184        0.10018128037575
N            2.33218091430765        0.33703934917696       -0.02016426671269
C            3.60027328701614       -0.02184226339599        0.01747118389964
C            4.61947900887392        0.99411244073131       -0.10250261606481
C            4.30085164609851        2.34683252743464       -0.26262668749960
C            5.31403298315082        3.27193171642761       -0.36019501115177
C            6.64503874591134        2.82863942028727       -0.28909432919982
C            7.79138793197892        3.74423375298802       -0.37335707686913
C            7.69758255489768        5.10747595392168       -0.09806835499573
C            8.83983692401831        5.88435095745103       -0.20605374884210
N           10.02120175060215        5.40664750402615       -0.55554274468049
C           10.11460375088852        4.11075720644192       -0.80710157476801
C            9.04270351499720        3.23940070069511       -0.73104807137924
N            6.94885428942615        1.54782565391229       -0.15704209002326
C            5.98331637080534        0.64405348972021       -0.06740458531748
C            6.37189909770670       -0.75105256596521        0.07255884317261
N            7.66674142612910       -1.03426036276858        0.07170414578462
C            8.06896590045176       -2.28806914338622        0.20056861975730
C            9.52439731296456       -2.48974311206937        0.18003673668175
C           10.36663452540249       -1.40869797362913        0.44604141992197
C           11.73513425542455       -1.61000652118251        0.42300990315876
N           12.29680533102028       -2.77882112929901        0.15880988760946
C           11.50137662689203       -3.80083282247801       -0.10348966464355
C           10.11827800612179       -3.71737349157662       -0.10857664532031
C            7.15876896265647       -3.34586201861206        0.36215382242771
C            5.81159668304127       -3.06873398291456        0.35860521797980
C            5.38338699801312       -1.74600989771527        0.20198435390978
C            3.98410580899689       -1.39281236375670        0.17805208494567
N            3.08022190196929       -2.34570673517411        0.30263451442677
C            1.78924195188624       -1.99061040943227        0.26821454362018
C            0.78816864118201       -2.97013289633643        0.40816875964892
C           -0.53816721088294       -2.60960628766258        0.36085511811254
C           -1.50462156715416       -3.61932023026341        0.58424310955808
N           -2.24268405398882       -4.46923182608768        0.80370330098307
C           -2.83303765076594        0.23415112315721        0.76209393587760
C           -4.16688443176154        0.56937654889692        0.72102694130151
C           -7.39398737441728       -0.88705067592689       -0.15345979925221
C           -8.52885392177850       -0.69315865535095       -0.93344540418460
C           -9.49311412456079       -1.67903820361282       -1.03047015009345
C           -9.36136258116932       -2.89201089592277       -0.36490075809193
C          -10.39401606297666       -4.00408854053130       -0.45040833542174
C          -10.92744107992671       -4.30184053336078        0.95814564097661
C           -9.72863022590387       -5.26020111057788       -1.03034145485040
C          -11.58278160105674       -3.63793314237920       -1.34312424396247
C           -8.21876410262802       -3.07319334791685        0.41232528360818
C           -7.25338552557377       -2.09522844537999        0.52554947907125
C           -7.96675319948880        1.80984133974982        0.76277547747489
C           -8.37495516796031        3.12552123726730        0.82337445992243
H           -7.27049131593083        6.32276793046793       -1.55457409955170
H           -7.68755004004184        7.56772503312111       -0.38321426510404
H           -6.27125293083227        6.56002879140700       -0.10950286613931
H          -10.28042432601454        5.02477877141601        0.25970856910009
H           -9.95863277476455        6.68215883826582       -0.24355185724945
H           -9.59890281348927        5.34072510126467       -1.33433514238218
H           -8.84205730866090        5.36887965694364        2.34263181738633
H           -7.17755362142873        5.92155587319298        2.17282011632809
H           -8.51523164663586        7.02784681927533        1.84834935377636
H           -5.97110429003068        4.51892004946334       -1.07794400977343
H           -5.25638204244644        2.20700919254660       -1.20503073772170
H           -5.27208480827928       -1.92331275820202       -1.28087051970495
H           -2.90870561597180       -2.51993900347094       -1.19531963598875
H           -0.22215410031987        0.74748484407446       -0.09795154477594
H            3.26106259322727        2.63291189913986       -0.30827339254512
H            5.08824228495941        4.31647625875583       -0.50552150922837
H            6.76788354034125        5.55775608714689        0.21323102359641
H            8.80891701077291        6.94674560766122       -0.00054353998577
H           11.10067353615132        3.76051541776875       -1.08325433021943
H            9.14721670852785        2.18693570346430       -0.93895940672444
H            9.93544286832015       -0.44475547975415        0.66220657273588
H           12.42250984116053       -0.79904847352558        0.62594506436101
H           12.00083141920360       -4.73587331246313       -0.32280212117639
H            9.52777939074911       -4.58675041995930       -0.35237660756228
H            7.50790578566833       -4.35643687278322        0.50332246760713
H            5.06998467321014       -3.84421087403708        0.47586678210057
H            1.08302669498075       -3.99722707445925        0.56225024293291
H           -2.15273302716382        0.83168000043595        1.35120411542821
H           -4.52399192884128        1.43043243204428        1.26611389223339
H           -8.65440844617839        0.23730945816129       -1.46812566710292
H          -10.35354185080796       -1.48177846798652       -1.64860465097710
H          -11.38062346357326       -3.40941712704326        1.38508755735336
H          -11.68141844299341       -5.08495964312227        0.91522599692220
H          -10.13284666819187       -4.63117511254995        1.62164886766367
H           -9.33148555429643       -5.05144050455758       -2.02163352707260
H           -8.91151962710951       -5.60237106128853       -0.40162284086797
H          -10.45573553295262       -6.06532638934604       -1.11237820308402
H          -11.26091926984749       -3.44270121962219       -2.36346086062522
H          -12.10605329412883       -2.76471421026918       -0.96028541159829
H          -12.28680559208665       -4.46730492963955       -1.36656181767426
H           -8.07251405906857       -3.99529458254443        0.95372230122741
H           -6.38399982106369       -2.26312201701371        1.14434837246291
H           -8.52439178860560        1.04419657808199        1.28214927359076
H           -9.25736889059577        3.35807046539887        1.40002208335327

          :  Hamiltonian                  GFN2-xTB          :
         :: gradient norm              0.000072185304 Eh/a0 ::
         :: HOMO-LUMO gap              0.811268092470 eV    ::
         :: SCC energy              -166.521405710876 Eh    ::
         :: -> dispersion             -0.143006208287 Eh    ::
         :: repulsion energy           2.890478203353 Eh    ::

    * Orbital Energies and Occupations

         #    Occupation            Energy/Eh            Energy/eV
      -------------------------------------------------------------
         1        2.0000           -0.6908423             -18.7988
       ...           ...                  ...                  ...
       140        2.0000           -0.4134606             -11.2508
       141        2.0000           -0.4099918             -11.1564
       142        2.0000           -0.4072063             -11.0806
       143        2.0000           -0.4069496             -11.0737
       144        2.0000           -0.4041897             -10.9986
       145        2.0000           -0.3997181             -10.8769
       146        2.0000           -0.3985126             -10.8441
       147        2.0000           -0.3781956             -10.2912
       148        2.0000           -0.3772869             -10.2665
       149        2.0000           -0.3693858             -10.0515
       150        2.0000           -0.3685261             -10.0281
       151        2.0000           -0.3655890              -9.9482
       152        2.0000           -0.3513149              -9.5598 (HOMO)
       153        0.0000           -0.3215013              -8.7485 (LUMO)
       154                         -0.2989872              -8.1359
       155                         -0.2828018              -7.6954
       156                         -0.2742234              -7.4620
       157                         -0.2687380              -7.3127
       158                         -0.2438920              -6.6366
       159                         -0.2424468              -6.5973
       160                         -0.2380704              -6.4782
       161                         -0.2372715              -6.4565
       162                         -0.2323811              -6.3234
       163                         -0.2299543              -6.2574
       ...                                ...                  ...
       296                          1.1596774              31.5564
      -------------------------------------------------------------
                  HL-Gap            0.0298135 Eh            0.8113 eV

     #   Z          covCN         q      C6AA      α(0)
     1   6 C        3.761    -0.108    22.605     6.778
     2   6 C        3.903     0.026    20.084     6.370
     3   6 C        3.762    -0.106    22.566     6.772
     4   6 C        3.762    -0.106    22.566     6.772
     5   6 C        2.973     0.003    27.959     8.673
     6   6 C        2.925    -0.040    28.985     8.829
     7   6 C        2.921    -0.050    29.234     8.867
     8   6 C        2.925     0.060    26.658     8.467
     9   7 N        2.752    -0.069    22.582     7.058
    10   6 C        2.923     0.069    26.446     8.433
    11   6 C        2.921    -0.048    29.181     8.859
    12   6 C        2.922    -0.028    28.712     8.787
    13   6 C        2.977    -0.003    28.102     8.696
    14   6 C        2.975     0.021    27.545     8.609
    15   6 C        2.923    -0.048    29.184     8.859
    16   6 C        2.964     0.084    26.119     8.383
    17   7 N        1.849    -0.239    27.090     7.714
    18   6 C        2.959     0.084    26.119     8.383
    19   6 C        2.982    -0.013    28.342     8.733
    20   6 C        2.926    -0.011    28.292     8.723
    21   6 C        2.915    -0.042    29.031     8.835
    22   6 C        2.955     0.097    25.851     8.339
    23   6 C        2.990     0.024    27.467     8.597
    24   6 C        2.916    -0.043    29.065     8.841
    25   6 C        2.913     0.059    26.676     8.469
    26   7 N        1.836    -0.216    26.542     7.635
    27   6 C        2.913     0.060    26.644     8.464
    28   6 C        2.920    -0.036    28.899     8.816
    29   7 N        1.854    -0.214    26.494     7.629
    30   6 C        2.964     0.086    26.080     8.377
    31   6 C        2.964     0.085    26.096     8.379
    32   7 N        1.854    -0.214    26.499     7.630
    33   6 C        2.955     0.096    25.859     8.341
    34   6 C        2.990     0.024    27.468     8.597
    35   6 C        2.920    -0.036    28.904     8.816
    36   6 C        2.913     0.060    26.646     8.465
    37   7 N        1.836    -0.216    26.548     7.636
    38   6 C        2.913     0.059    26.676     8.469
    39   6 C        2.916    -0.043    29.065     8.841
    40   6 C        2.915    -0.041    29.022     8.834
    41   6 C        2.925    -0.011    28.298     8.724
    42   6 C        2.982    -0.013    28.337     8.732
    43   6 C        2.961     0.082    26.175     8.392
    44   7 N        1.848    -0.236    27.017     7.704
    45   6 C        2.968     0.082    26.171     8.391
    46   6 C        2.931    -0.031    28.778     8.798
    47   6 C        2.973     0.017    27.633     8.623
    48   6 C        1.916     0.117    28.208     8.577
    49   7 N        0.911    -0.232    26.088     7.387
    50   6 C        2.923    -0.033    28.813     8.803
    51   6 C        2.920    -0.049    29.224     8.865
    52   6 C        2.926     0.059    26.677     8.470
    53   6 C        2.922    -0.049    29.221     8.865
    54   6 C        2.925    -0.040    28.982     8.829
    55   6 C        2.973     0.003    27.943     8.671
    56   6 C        3.903     0.026    20.084     6.370
    57   6 C        3.762    -0.106    22.569     6.772
    58   6 C        3.762    -0.106    22.574     6.773
    59   6 C        3.761    -0.108    22.604     6.778
    60   6 C        2.927    -0.034    28.857     8.810
    61   6 C        2.921    -0.048    29.198     8.861
    62   6 C        2.921    -0.048    29.200     8.861
    63   6 C        2.927    -0.035    28.870     8.812
    64   1 H        0.925     0.036     2.504     2.475
    65   1 H        0.925     0.037     2.491     2.468
    66   1 H        0.925     0.036     2.507     2.476
    67   1 H        0.925     0.037     2.494     2.470
    68   1 H        0.925     0.038     2.479     2.462
    69   1 H        0.925     0.034     2.534     2.489
    70   1 H        0.925     0.037     2.494     2.470
    71   1 H        0.925     0.034     2.537     2.491
    72   1 H        0.925     0.038     2.478     2.462
    73   1 H        0.926     0.039     2.466     2.456
    74   1 H        0.926     0.030     2.592     2.517
    75   1 H        0.926     0.039     2.456     2.451
    76   1 H        0.926     0.036     2.502     2.474
    77   1 H        0.926     0.057     2.237     2.339
    78   1 H        0.926     0.061     2.183     2.310
    79   1 H        0.926     0.044     2.402     2.423
    80   1 H        0.926     0.036     2.509     2.477
    81   1 H        0.925     0.040     2.443     2.444
    82   1 H        0.925     0.044     2.400     2.423
    83   1 H        0.926     0.065     2.138     2.287
    84   1 H        0.926     0.065     2.141     2.288
    85   1 H        0.925     0.043     2.405     2.425
    86   1 H        0.925     0.040     2.443     2.444
    87   1 H        0.926     0.036     2.507     2.476
    88   1 H        0.926     0.044     2.397     2.421
    89   1 H        0.926     0.061     2.183     2.310
    90   1 H        0.926     0.060     2.196     2.317
    91   1 H        0.926     0.035     2.520     2.482
    92   1 H        0.926     0.037     2.496     2.470
    93   1 H        0.926     0.030     2.586     2.515
    94   1 H        0.926     0.039     2.466     2.456
    95   1 H        0.925     0.033     2.542     2.493
    96   1 H        0.925     0.038     2.478     2.462
    97   1 H        0.925     0.037     2.483     2.464
    98   1 H        0.925     0.034     2.533     2.489
    99   1 H        0.925     0.038     2.470     2.458
   100   1 H        0.925     0.038     2.479     2.462
   101   1 H        0.925     0.036     2.507     2.476
   102   1 H        0.925     0.035     2.511     2.478
   103   1 H        0.925     0.037     2.492     2.468
   104   1 H        0.926     0.035     2.510     2.477
   105   1 H        0.926     0.034     2.537     2.491
   106   1 H        0.926     0.032     2.564     2.504
   107   1 H        0.926     0.032     2.551     2.498

molecular dipole:
                 x           y           z       tot (Debye)
 q only:       -1.691       0.858      -0.189
   full:       -2.759       0.750      -0.191       7.282

 projected vibrational frequencies (cm⁻¹)
eigval :       -0.00    -0.00     0.00     0.00     0.00     0.00
eigval :        6.19     8.07     9.11    21.00    21.96    23.87
eigval :       25.04    27.37    28.72    30.59    34.42    37.70
eigval :       44.61    49.17    58.96    63.25    70.47    79.17
eigval :       86.83    92.62    97.37   103.51   107.14   112.99
eigval :      123.59   128.01   142.13   146.12   167.11   170.01
eigval :      177.43   178.93   182.17   200.44   208.81   210.60
eigval :      221.56   222.85   225.04   235.90   241.00   245.87
eigval :      248.02   266.43   274.07   296.96   310.46   314.81
eigval :      315.60   316.36   321.46   324.50   329.88   330.08
eigval :      347.37   348.29   355.37   360.14   369.08   376.31
eigval :      380.79   382.62   383.51   384.79   391.16   393.46
eigval :      403.99   411.84   417.18   422.42   425.37   434.96
eigval :      439.03   445.72   451.82   459.03   465.69   479.26
eigval :      495.05   496.30   500.26   513.64   526.70   532.55
eigval :      538.46   558.15   566.21   579.49   584.27   593.84
eigval :      599.39   603.09   607.43   608.87   611.36   623.41
eigval :      628.05   629.64   644.70   649.65   660.24   675.70
eigval :      681.54   687.11   690.26   699.34   699.88   704.31
eigval :      710.76   718.74   723.30   724.55   732.28   747.91
eigval :      767.23   772.22   789.34   795.81   798.50   813.39
eigval :      816.64   818.86   834.41   838.80   848.32   851.56
eigval :      866.74   870.66   872.19   875.95   876.66   882.59
eigval :      883.02   884.92   892.85   914.60   914.79   915.57
eigval :      915.62   919.34   923.19   925.32   925.58   925.63
eigval :      926.72   926.75   928.80   931.33   934.07   960.48
eigval :      960.58   962.76   963.02   963.38   963.46   963.54
eigval :      985.56  1000.83  1006.02  1013.45  1026.49  1035.23
eigval :     1035.63  1035.68  1035.73  1038.83  1064.80  1070.70
eigval :     1091.62  1093.75  1099.86  1104.78  1112.01  1117.07
eigval :     1143.71  1144.57  1145.06  1146.74  1148.89  1153.52
eigval :     1154.54  1163.49  1190.65  1198.61  1202.61  1204.24
eigval :     1206.13  1210.23  1217.74  1227.39  1227.85  1227.94
eigval :     1234.35  1234.40  1242.05  1255.93  1263.21  1264.82
eigval :     1268.26  1273.03  1274.11  1278.62  1280.32  1280.62
eigval :     1282.33  1285.61  1292.44  1295.23  1305.69  1314.29
eigval :     1314.80  1316.72  1321.88  1329.13  1332.05  1336.55
eigval :     1353.15  1365.34  1369.21  1373.75  1382.76  1399.10
eigval :     1402.81  1404.48  1406.13  1406.22  1409.59  1415.46
eigval :     1417.32  1419.32  1425.68  1429.71  1429.86  1437.82
eigval :     1455.94  1457.96  1468.55  1476.68  1486.81  1488.67
eigval :     1491.86  1491.89  1491.92  1494.34  1494.52  1495.16
eigval :     1502.57  1502.72  1506.42  1506.58  1514.68  1514.71
eigval :     1515.76  1519.70  1519.76  1533.69  1534.88  1547.41
eigval :     1550.15  1555.18  1556.54  1566.01  1567.82  1570.43
eigval :     1575.33  1579.01  1580.06  1597.41  1602.58  1605.89
eigval :     2366.79  3023.12  3023.32  3024.56  3024.85  3027.42
eigval :     3027.53  3030.78  3031.05  3031.95  3032.17  3036.02
eigval :     3036.16  3038.98  3039.13  3047.44  3048.68  3051.05
eigval :     3052.43  3055.09  3055.16  3058.41  3058.90  3078.18
eigval :     3078.95  3079.72  3080.44  3081.49  3085.34  3089.21
eigval :     3089.66  3092.02  3093.06  3093.52  3093.87  3094.29
eigval :     3096.26  3098.54  3100.94  3102.41  3102.80  3112.35
eigval :     3113.28  3114.50  3114.69

   temp. (K)  partition function   enthalpy   heat capacity  entropy
                                   cal/mol     cal/K/mol   cal/K/mol   J/K/mol
 298.15  VIB  0.930E+27            32652.394    197.094    205.550
         ROT  0.340E+09              888.752      2.981     42.021
         INT  0.316E+36            33541.146    200.075    247.570
         TR   0.226E+29             1481.254      4.968     45.958
         TOT                       35022.3999   205.0428   293.5287  1228.1239

       T/K    H(0)-H(T)+PV         H(T)/Eh          T*S/Eh         G(T)/Eh
   ------------------------------------------------------------------------
    298.15    0.558117E-01    0.890850E+00    0.139465E+00    0.751385E+00
   ------------------------------------------------------------------------

         :::::::::::::::::::::::::::::::::::::::::::::::::::::
         ::                  THERMODYNAMIC                  ::
         :::::::::::::::::::::::::::::::::::::::::::::::::::::
         :: total free energy        -162.879542892088 Eh   ::
         ::.................................................::
         :: total energy             -163.630927507525 Eh   ::
         :: zero point energy           0.835037808433 Eh   ::
         :: G(RRHO) w/o ZPVE           -0.083653192995 Eh   ::
         :: G(RRHO) contrib.            0.751384615437 Eh   ::
         :::::::::::::::::::::::::::::::::::::::::::::::::::::

           -------------------------------------------------
          | TOTAL ENERGY             -163.630927507525 Eh   |
          | TOTAL ENTHALPY           -162.740077952242 Eh   |
          | TOTAL FREE ENERGY        -162.879542892088 Eh   |
          | GRADIENT NORM               0.000072325968 Eh/α |
          | HOMO-LUMO GAP               0.811267484708 eV   |
           -------------------------------------------------

 * finished run on 2025/08/21 at 13:50:14.651
