   * xtb version 6.7.1 (edcfbbe) compiled by 'albert@albert-system' on 2024-07-22

   ID    Z sym.   atoms
    1    6 C      1-8, 10-16, 18-25, 27, 28, 30, 31, 33-36, 38-43, 45-48,
                  50-63
    2    7 N      9, 17, 26, 29, 32, 37, 44, 49
    3    1 H      64-107

          program call               : xtb data2507/gas/Py-TPA/Py-TPA_gas_S0_finalOpt.xtbopt.xyz --gfn 2 --spinpol --tblite --uhf 2 --ohess vtight --parallel 40 --molden --ceasefiles --namespace data2507/gas/Py-TPA/Py-TPA_gas_T1_preOpt
 * total energy  :  -163.5892966 Eh     change       -0.2083601E-07 Eh
 * total energy  :  -163.5919400 Eh     change       -0.2643356E-02 Eh
 * total energy  :  -163.5928166 Eh     change       -0.8766430E-03 Eh
 * total energy  :  -163.5927879 Eh     change        0.2876685E-04 Eh
 * total energy  :  -163.5929892 Eh     change       -0.2013404E-03 Eh
 * total energy  :  -163.5930085 Eh     change       -0.1928063E-04 Eh
 * total energy  :  -163.5930213 Eh     change       -0.1285763E-04 Eh
 * total energy  :  -163.5930284 Eh     change       -0.7040085E-05 Eh
 * total energy  :  -163.5930456 Eh     change       -0.1720658E-04 Eh
 * total energy  :  -163.5930512 Eh     change       -0.5617934E-05 Eh
 * total energy  :  -163.5930890 Eh     change       -0.1425307E-06 Eh
 * total energy  :  -163.5930891 Eh     change       -0.1850354E-06 Eh
 * total energy  :  -163.5930894 Eh     change       -0.3011283E-06 Eh
 * total energy  :  -163.5930894 Eh     change        0.3382698E-07 Eh
 * total energy  :  -163.5930896 Eh     change       -0.2000072E-06 Eh
 * total energy  :  -163.5930898 Eh     change       -0.2157482E-06 Eh
 * total energy  :  -163.5930899 Eh     change       -0.1100556E-06 Eh
 * total energy  :  -163.5930901 Eh     change       -0.1406161E-06 Eh
 * total energy  :  -163.5930901 Eh     change       -0.4549349E-08 Eh
   *** GEOMETRY OPTIMIZATION CONVERGED AFTER 44 ITERATIONS ***

 final structure:
================
107
 xtb: 6.7.1 (edcfbbe)
C           -7.22004735675220        6.57748084462668       -0.47208792738545
C           -8.13215568228216        5.60025559766232        0.27420035201879
C           -9.54151945081575        5.70686287208152       -0.32555999003166
C           -8.16439385274950        6.01002429597875        1.75364698377840
C           -7.65793461386243        4.16061974147604        0.16974610293103
C           -6.51705663339624        3.78494930237872       -0.53124509514130
C           -6.11719541679971        2.46478507466221       -0.60694343832304
C           -6.84931184234226        1.46411399424789        0.02747649476508
N           -6.44931571217526        0.12630845504466       -0.04633967428224
C           -5.09627613326458       -0.20474331350309       -0.01858706439171
C           -4.61583963868370       -1.28954279023935       -0.75613305943322
C           -3.28337998920806       -1.63339609855336       -0.70674288461009
C           -2.38395588256105       -0.90282902325918        0.06996823769494
C           -0.96774619008231       -1.27470499334007        0.13634432506747
C            0.01858513952180       -0.30564348377623        0.03600743754865
C            1.37522698810063       -0.62667182792225        0.07954275973717
N            2.32453211827796        0.29730282172969       -0.02615561455331
C            3.61521781575639       -0.01835086339825        0.01025250812823
C            4.62107997083744        0.98192655193556       -0.10255454547287
C            4.29746978965117        2.34095505058666       -0.26267499668403
C            5.29974352731838        3.26953582236792       -0.35812181394000
C            6.64171424284258        2.83875296020309       -0.29080027230675
C            7.77688482872452        3.76440972030260       -0.37791438308328
C            7.66405299746685        5.13577051224014       -0.15029294423637
C            8.79954610839070        5.92170061651912       -0.25747281863196
N            9.99437358209282        5.44716039297385       -0.56336289981205
C           10.10687686418485        4.14437050758733       -0.77004479547601
C            9.04324494361721        3.26449165373655       -0.69067062099408
N            6.95217207235991        1.56282543856305       -0.15895753770816
C            5.99736741566647        0.64759324521364       -0.06665274558101
C            6.38408528487456       -0.73587761182248        0.07590844074280
N            7.67743301668849       -1.03068496314947        0.08881675266877
C            8.07280638005391       -2.28306357973966        0.21717637190415
C            9.52537663819048       -2.49516681676844        0.21210409551175
C           10.37406053059694       -1.41465969495716        0.46292865042297
C           11.74085033097206       -1.62452494857810        0.45485665711041
N           12.29756308078425       -2.80215923451206        0.21919592997097
C           11.49730855974614       -3.82417740154977       -0.02837394510656
C           10.11523446629776       -3.73203184568563       -0.04627028987139
C            7.14996842425610       -3.33930726504992        0.36439419635944
C            5.80902518311709       -3.05680179167180        0.35130548587785
C            5.38102631558915       -1.72776452766955        0.19520063639221
C            3.99657651795566       -1.38667513887223        0.16548977163523
N            3.06013435254011       -2.31641343138136        0.27628781910698
C            1.76089270531735       -2.01153698761845        0.24258994653596
C            0.76632099180789       -2.97275865715927        0.36302910462391
C           -0.58269565422943       -2.61921741843372        0.31078035358438
C           -1.54421182361175       -3.63100361369984        0.50446259365379
N           -2.29822291657758       -4.47768394940706        0.68965021794256
C           -2.86199969908187        0.19667741450298        0.78320329977303
C           -4.19581920021542        0.53844375507505        0.74882366299878
C           -7.41426139884955       -0.88270991782456       -0.14414802358135
C           -8.57519045159879       -0.68816682433075       -0.88807942468316
C           -9.52615825369571       -1.68614926475768       -0.98105623445422
C           -9.35860451774882       -2.91204286814131       -0.34604061979280
C          -10.37559638612927       -4.03738055846244       -0.43044538410909
C          -10.86291648041337       -4.37904940515570        0.98499755932209
C           -9.70632737235991       -5.26707999898963       -1.06066513674800
C          -11.59511037376885       -3.66836867481975       -1.27938791376036
C           -8.19161118615807       -3.09341584598916        0.39570448813400
C           -7.23682155140148       -2.10560308341374        0.50272034145036
C           -7.99478963949352        1.82823013242555        0.73473218287173
C           -8.38394766628577        3.14884246945503        0.79722470349925
H           -7.18404106472609        6.34705542916690       -1.53433747413495
H           -7.60629044032498        7.58858899781538       -0.36170708099976
H           -6.21077809696789        6.55868168721226       -0.06744555448780
H          -10.24941597653104        5.07990617195234        0.20930034369310
H           -9.89215108531877        6.73532277623292       -0.27503638305223
H           -9.53092216051102        5.39689810958813       -1.36850598163272
H           -8.84914921238410        5.38831402285573        2.32354591062058
H           -7.17292831054183        5.91600372350471        2.19182264534764
H           -8.48619042115192        7.04483441094453        1.84760893963223
H           -5.92001650473014        4.52168546968074       -1.04282809135700
H           -5.23455446018786        2.20115038856391       -1.17127960411862
H           -5.29657011339146       -1.85531886223731       -1.37422127700834
H           -2.92991613363336       -2.46410515951556       -1.29843592251088
H           -0.25102480570926        0.72962187211443       -0.10561857743327
H            3.25489509437347        2.62026418536514       -0.30960606743249
H            5.06519563245367        4.31236381229870       -0.50106886022349
H            6.72319444874229        5.58758236781175        0.12295755785857
H            8.75181706749954        6.98999478681199       -0.08813627207693
H           11.10283099127422        3.79653173572741       -1.01204245809667
H            9.16379926182136        2.20732730049241       -0.86288038626584
H            9.94738611040659       -0.44395108412830        0.65649725930460
H           12.43177421551330       -0.81382232001020        0.64682989440843
H           11.99226150695399       -4.76694548934778       -0.22408979329223
H            9.52232340799086       -4.60362036809850       -0.27592693638134
H            7.49259981183840       -4.35223158958646        0.50358602459096
H            5.06264526469757       -3.83014011115380        0.46076868574115
H            1.05221166217006       -4.00373261643982        0.50441357003446
H           -2.18280895909252        0.76481105457342        1.40157657938756
H           -4.55659284489777        1.37309391966702        1.33162795957409
H           -8.72582623355826        0.24887358925359       -1.40425297945414
H          -10.40499616964886       -1.49001503411496       -1.57286416645878
H          -11.31604882073762       -3.50505176382235        1.44851106989927
H          -11.60688309330856       -5.17146660807807        0.94238833795839
H          -10.04522986884225       -4.71471439225591        1.61637924063971
H           -9.34256145990420       -5.02771064078292       -2.05778821786019
H           -8.86549640477071       -5.61073755801955       -0.46499457507469
H          -10.42245403921152       -6.08190975173603       -1.14117233201228
H          -11.30649501340002       -3.44393714192467       -2.30364775563463
H          -12.12071948986813       -2.81338311757035       -0.86026440683698
H          -12.28648631558375       -4.50810595868173       -1.30290614772608
H           -8.01770642474536       -4.02458200223750        0.91225047679573
H           -6.34892770776477       -2.27405870146112        1.09400580036599
H           -8.57091407799817        1.06818600236808        1.24175915075959
H           -9.27344234956210        3.39071021365396        1.35859776921095

 projected vibrational frequencies (cm⁻¹)
eigval :       -0.00     0.00     0.00     0.00     0.00     0.00
eigval :        6.08     7.83     9.06    21.14    21.91    23.80
eigval :       24.90    28.01    28.58    30.84    34.45    37.91
eigval :       44.34    49.84    58.01    62.73    70.22    80.67
eigval :       88.53    94.13    98.48   103.92   105.94   113.24
eigval :      123.34   129.96   139.74   146.90   164.67   169.65
eigval :      175.12   177.65   183.42   197.21   205.57   211.64
eigval :      221.48   223.51   224.76   236.38   240.44   244.73
eigval :      247.56   266.63   273.35   295.13   304.79   314.41
eigval :      315.18   315.90   319.64   320.57   330.76   331.03
eigval :      345.77   346.97   354.65   358.85   369.18   373.30
eigval :      379.65   382.17   383.51   387.09   389.87   395.42
eigval :      404.59   411.63   416.91   418.30   422.45   431.53
eigval :      436.68   448.44   452.05   459.17   466.60   481.14
eigval :      493.20   494.88   506.80   512.03   525.77   531.50
eigval :      539.47   557.32   563.77   572.55   578.62   585.24
eigval :      592.34   600.26   606.01   606.80   609.91   621.77
eigval :      625.92   628.03   629.22   640.03   644.99   659.06
eigval :      673.96   682.83   687.82   689.46   692.30   696.87
eigval :      702.11   708.86   710.99   715.91   718.82   722.81
eigval :      744.62   764.80   771.62   793.57   794.47   812.63
eigval :      815.93   817.41   818.01   826.51   828.29   828.83
eigval :      847.20   866.53   867.65   871.66   876.14   881.55
eigval :      882.03   883.29   887.93   913.64   914.39   914.51
eigval :      915.89   916.37   917.67   918.14   923.02   924.86
eigval :      926.02   926.53   928.26   930.36   933.68   934.50
eigval :      960.51   960.59   962.73   962.96   963.60   963.72
eigval :      985.41   990.13   998.74  1012.59  1025.20  1034.99
eigval :     1035.05  1035.13  1035.49  1038.24  1057.05  1063.62
eigval :     1088.69  1093.83  1095.93  1100.44  1112.17  1116.19
eigval :     1142.88  1143.35  1143.67  1144.85  1148.85  1153.47
eigval :     1154.81  1166.34  1185.08  1197.92  1202.58  1202.81
eigval :     1206.03  1207.86  1215.97  1225.49  1226.95  1227.01
eigval :     1232.87  1233.75  1233.88  1242.63  1258.22  1264.58
eigval :     1267.84  1268.66  1271.90  1276.85  1279.20  1280.39
eigval :     1280.78  1283.74  1284.06  1284.73  1285.99  1291.09
eigval :     1311.00  1317.85  1319.89  1320.48  1323.65  1329.00
eigval :     1329.34  1332.35  1367.36  1371.62  1373.07  1386.38
eigval :     1389.04  1392.48  1399.17  1402.97  1405.92  1406.12
eigval :     1406.42  1409.57  1416.93  1418.09  1428.67  1429.02
eigval :     1437.32  1452.13  1466.60  1472.11  1475.23  1480.74
eigval :     1481.64  1484.74  1491.01  1491.09  1493.07  1493.51
eigval :     1497.62  1500.89  1501.36  1502.47  1505.01  1505.19
eigval :     1505.50  1514.19  1514.31  1518.76  1518.84  1521.61
eigval :     1538.87  1547.70  1548.97  1552.83  1555.74  1559.34
eigval :     1562.97  1576.67  1578.48  1586.10  1592.52  1601.28
eigval :     2349.03  3025.00  3025.36  3026.40  3026.81  3028.66
eigval :     3028.95  3031.53  3031.94  3033.85  3034.05  3036.77
eigval :     3037.21  3040.58  3041.04  3048.00  3049.98  3051.36
eigval :     3052.62  3053.41  3053.43  3056.66  3057.49  3078.29
eigval :     3079.37  3080.33  3080.72  3082.27  3083.18  3085.05
eigval :     3088.52  3089.50  3090.12  3092.16  3094.33  3095.50
eigval :     3097.77  3098.31  3099.36  3099.76  3100.35  3112.47
eigval :     3113.08  3116.81  3117.45

   temp. (K)  partition function   enthalpy   heat capacity  entropy
                                   cal/mol     cal/K/mol   cal/K/mol   J/K/mol
 298.15  VIB  0.106E+28            32788.567    198.211    206.260
         ROT  0.341E+09              888.752      2.981     42.027
         INT  0.362E+36            33677.319    201.192    248.287
         TR   0.226E+29             1481.254      4.968     45.958
         TOT                       35158.5730   206.1603   294.2451  1231.1215

       T/K    H(0)-H(T)+PV         H(T)/Eh          T*S/Eh         G(T)/Eh
   ------------------------------------------------------------------------
    298.15    0.560288E-01    0.888417E+00    0.139805E+00    0.748611E+00
   ------------------------------------------------------------------------

         :::::::::::::::::::::::::::::::::::::::::::::::::::::
         ::                  THERMODYNAMIC                  ::
         :::::::::::::::::::::::::::::::::::::::::::::::::::::
         :: total free energy        -162.844478809892 Eh   ::
         ::.................................................::
         :: total energy             -163.593090088755 Eh   ::
         :: zero point energy           0.832387872622 Eh   ::
         :: G(RRHO) w/o ZPVE           -0.083776593759 Eh   ::
         :: G(RRHO) contrib.            0.748611278863 Eh   ::
         :::::::::::::::::::::::::::::::::::::::::::::::::::::

           -------------------------------------------------
          | TOTAL ENERGY             -163.593090088755 Eh   |
          | TOTAL ENTHALPY           -162.704673463727 Eh   |
          | TOTAL FREE ENERGY        -162.844478809892 Eh   |
          | GRADIENT NORM               0.000046437979 Eh/α |
           -------------------------------------------------

 * finished run on 2025/08/21 at 13:50:33.906
