   * xtb version 6.7.1 (edcfbbe) compiled by 'albert@albert-system' on 2024-07-22

   ID    Z sym.   atoms
    1    6 C      1-8, 10-16, 18-23, 25-30, 32-35, 37-43, 45-59
    2    7 N      9, 17, 24, 31, 36, 44
    3    1 H      60-101

          program call               : xtb data2507/gas/PY-TPA/PY-TPA_gas_S0_finalOpt.xtbopt.xyz --gfn 2 --spinpol --tblite --uhf 2 --ohess vtight --parallel 40 --molden --ceasefiles --namespace data2507/gas/PY-TPA/PY-TPA_gas_T1_preOpt
 * total energy  :  -152.4072863 Eh     change       -0.1020737E-08 Eh
 * total energy  :  -152.4100663 Eh     change       -0.2780004E-02 Eh
 * total energy  :  -152.4109840 Eh     change       -0.9177260E-03 Eh
 * total energy  :  -152.4110793 Eh     change       -0.9532353E-04 Eh
 * total energy  :  -152.4110788 Eh     change        0.4958978E-06 Eh
 * total energy  :  -152.4111419 Eh     change       -0.6309014E-04 Eh
 * total energy  :  -152.4110878 Eh     change        0.5412827E-04 Eh
 * total energy  :  -152.4111462 Eh     change       -0.5841176E-04 Eh
 * total energy  :  -152.4111590 Eh     change       -0.1284840E-04 Eh
 * total energy  :  -152.4111659 Eh     change       -0.6897496E-05 Eh
 * total energy  :  -152.4112165 Eh     change       -0.2751542E-06 Eh
 * total energy  :  -152.4112157 Eh     change        0.7488496E-06 Eh
 * total energy  :  -152.4112159 Eh     change       -0.1869236E-06 Eh
 * total energy  :  -152.4112162 Eh     change       -0.2924886E-06 Eh
 * total energy  :  -152.4112164 Eh     change       -0.2194866E-06 Eh
 * total energy  :  -152.4112164 Eh     change        0.1161607E-07 Eh
 * total energy  :  -152.4112163 Eh     change        0.5279747E-07 Eh
 * total energy  :  -152.4112167 Eh     change       -0.3525634E-06 Eh
 * total energy  :  -152.4112168 Eh     change       -0.8957892E-07 Eh
   *** GEOMETRY OPTIMIZATION CONVERGED AFTER 47 ITERATIONS ***

 final structure:
================
101
 xtb: 6.7.1 (edcfbbe)
C           -5.86139276187529       -6.73814203174263       -1.11237495329434
C           -6.93533739573683       -5.86906718565945       -0.44245969952412
C           -8.20718038438540       -5.94184520203970       -1.29152303740057
C           -7.25816128385669       -6.42472230106173        0.95210333153080
C           -6.40653321548042       -4.45190217816415       -0.30052147357643
C           -7.01962338660418       -3.34881451361541       -0.88505465136122
C           -6.50820468416272       -2.07405603995837       -0.73764497819462
C           -5.35551957141935       -1.85473841721625        0.01296407348623
N           -4.83147041081183       -0.57048136412567        0.17143222217358
C           -3.45174937275111       -0.37006516098531        0.20732723964304
C           -2.59378223779861       -1.12211334622138       -0.59668744989653
C           -1.24293692184719       -0.84680903152048       -0.61805432693472
C           -0.71235952836398        0.18951951195980        0.14727815211114
C            0.69907871640713        0.57382614364100        0.02211791318992
C            1.69547603248720       -0.38680257756653        0.12384947123302
C            3.04393498648755       -0.05314769908853        0.05035406431062
N            4.01637098175183       -0.95790555928574        0.15474078196806
C            5.29711991281201       -0.62413236193226        0.09180701740397
C            6.32203436850404       -1.61064153809635        0.21160343155299
C            5.95312137897461       -2.95524807077565        0.40116617240357
C            6.89667422380695       -3.93620468376548        0.52338884935484
C            8.25852658886387       -3.58902698855218        0.45771058695757
C            9.24356312611163       -4.59240460114043        0.58351599212529
N           10.04070564050790       -5.41098243896147        0.68688433357783
C            8.64016114724667       -2.27004543904936        0.27103874995632
C            7.69116421941768       -1.25182992389272        0.14351855149751
C            8.05251693470678        0.13425027522315       -0.05214079818455
C            9.37965785363910        0.56555156412636       -0.13270005024211
C            9.69070991466201        1.90270116541025       -0.32076551105334
C           11.04230256022117        2.30331159940569       -0.39726846388119
N           12.13942666373591        2.63272604616093       -0.46003472573323
C            8.67025232102820        2.86426228012165       -0.43598145098972
C            7.36607100088430        2.46283371464011       -0.35994333338734
C            7.03143146223009        1.10961632424130       -0.16918769502620
C            5.65320799255127        0.74297254508197       -0.09699902705610
N            4.69728770996965        1.65383170987768       -0.20136371102990
C            3.40488205088054        1.33333861613071       -0.13796947062155
C            2.39047419880420        2.27781046564744       -0.25267664934160
C            1.04986046274232        1.92139457165989       -0.18410647429050
C            0.01846944374103        2.95095027793054       -0.36421658894505
C            0.06855902203928        4.16212212440928        0.32256713198387
C           -0.94945682405524        5.08344571289049        0.14661817313616
C           -1.99081296935784        4.76041551879978       -0.70897094241170
N           -2.03516657506769        3.63036481629677       -1.39672205359548
C           -1.05732095333901        2.76225215756225       -1.23728782322142
C           -1.56324148841350        0.88805208658675        1.00492030272928
C           -2.91059372109637        0.61307603598560        1.03914176444254
C           -5.68079318154175        0.53890362864145        0.25277975898983
C           -5.32183239678043        1.75501869614592       -0.33021634138719
C           -6.16072778631580        2.84382587695575       -0.23486150557352
C           -7.38403031502670        2.77645765887851        0.43147320115901
C           -8.26688253652840        4.01072528305544        0.50466883005508
C           -8.63525659958866        4.44599830763154       -0.92091254510040
C           -7.49430078180172        5.13584324439060        1.20795683642441
C           -9.56383387217307        3.76442724556008        1.27999466488318
C           -7.73198575815010        1.55725200752557        1.00293444519798
C           -6.89978611236101        0.45722960620402        0.92097257284822
C           -4.73271889135317       -2.95307126090993        0.60650785146930
C           -5.25182290612404       -4.21936710668583        0.44591551190227
H           -5.61186229161393       -6.33828546558686       -2.09306665634098
H           -6.22781426534535       -7.75465273118162       -1.23747242101805
H           -4.95272922649633       -6.77535062884150       -0.51806322994377
H           -8.53925464041145       -6.97582910351916       -1.35724471048733
H           -9.01027637981620       -5.35989025658213       -0.84527400215559
H           -8.02493417398249       -5.58393928496509       -2.30217203848355
H           -7.65526787773955       -7.43400346313616        0.86922860247624
H           -6.37313477910250       -6.45871614673178        1.58120214843577
H           -8.00205232268521       -5.80050138588934        1.44289314025514
H           -7.91059836100908       -3.46761393045343       -1.47920202551974
H           -6.99770881881738       -1.23871084889093       -1.21642516330316
H           -3.00040600909427       -1.89659794193150       -1.23007237195358
H           -0.59367423593200       -1.40602555906816       -1.27565436518485
H            1.43526640587732       -1.42052318176958        0.29265258220342
H            4.90004846895402       -3.18649819481144        0.44732872276772
H            6.61616817260296       -4.96845297829997        0.66915452032860
H            9.69539427479689       -2.05039046203983        0.22718160864170
H           10.19459054488128       -0.13641445032286       -0.05018238235067
H            8.92949018504822        3.90192308131393       -0.58252681601940
H            6.55878742929925        3.17393346270182       -0.44483330247174
H            2.67195638679799        3.30510252010447       -0.42752243883290
H            0.88418132638797        4.36365060870458        1.00292073857092
H           -0.94014108283804        6.02665454346127        0.67094549533430
H           -2.82317915377237        5.43458158389992       -0.86164735279825
H           -1.12402623017119        1.86736699866623       -1.84243755026855
H           -1.15770776984745        1.64977771828411        1.65413525193101
H           -3.56154061002084        1.16452216704242        1.70105568602742
H           -4.38657958684825        1.84562651780120       -0.86284084555828
H           -5.84665838185595        3.76354782247867       -0.70329612714021
H           -9.16743915951351        3.64668920589668       -1.43248691667384
H           -7.75068945537822        4.69211505178693       -1.50139667199874
H           -9.27781309517359        5.32321763291452       -0.88959055373623
H           -7.21100597998179        4.82700583562260        2.21214467933900
H           -8.11563620477894        6.02560106341309        1.28314826746205
H           -6.59082921372346        5.39650186503860        0.66402363524704
H           -9.35720527777024        3.47514901317654        2.30785093882864
H          -10.16399284220853        2.99188674199534        0.80490471034800
H          -10.15193121140669        4.67956597953550        1.30124701602514
H           -8.66223724438401        1.44580379160376        1.53527924815984
H           -7.18955239340349       -0.47298350698784        1.38784310306813
H           -3.84449806881161       -2.80284173012585        1.20269464884232
H           -4.74306183497533       -5.04205542025026        0.92468576298221

 projected vibrational frequencies (cm⁻¹)
eigval :       -0.00    -0.00     0.00     0.00     0.00     0.00
eigval :        6.60     7.16     9.43    19.12    23.17    23.57
eigval :       25.58    29.28    36.60    43.76    45.18    52.88
eigval :       61.45    65.69    70.58    79.82    80.81    87.39
eigval :       95.55    99.85   102.90   109.35   114.75   125.09
eigval :      141.01   152.32   163.21   166.99   170.88   175.64
eigval :      182.09   187.31   190.70   208.64   218.79   225.36
eigval :      230.96   235.81   243.71   251.31   260.99   267.60
eigval :      275.21   278.55   300.90   305.34   311.74   314.91
eigval :      315.65   329.78   343.42   347.98   351.29   357.65
eigval :      362.46   373.75   378.93   381.20   382.71   388.02
eigval :      390.09   392.74   394.61   395.16   405.21   415.90
eigval :      423.12   431.59   440.91   453.78   458.63   461.77
eigval :      469.10   490.97   494.16   498.97   509.95   518.44
eigval :      527.99   533.93   541.44   551.69   555.07   560.85
eigval :      566.27   577.21   583.30   594.75   602.23   607.26
eigval :      608.13   610.21   615.36   621.00   631.72   638.81
eigval :      647.99   654.05   678.87   679.91   687.50   688.37
eigval :      694.85   696.54   708.83   711.08   719.30   723.73
eigval :      728.35   765.72   785.24   790.89   813.83   816.41
eigval :      819.56   821.17   823.54   824.74   831.30   848.01
eigval :      855.40   866.44   868.61   869.08   872.31   876.04
eigval :      881.98   904.98   910.55   913.07   914.10   915.36
eigval :      915.53   917.99   918.33   927.07   928.84   929.18
eigval :      932.98   933.84   940.54   951.91   953.05   960.24
eigval :      960.26   962.60   962.86   963.30   963.41   997.75
eigval :     1010.92  1024.42  1027.52  1034.70  1034.77  1034.89
eigval :     1035.32  1040.55  1060.78  1079.38  1097.12  1138.01
eigval :     1140.31  1143.59  1144.26  1144.92  1146.59  1153.68
eigval :     1156.07  1181.65  1188.49  1189.31  1195.98  1197.38
eigval :     1203.59  1207.83  1224.09  1226.76  1226.84  1233.51
eigval :     1233.72  1235.58  1236.88  1239.09  1244.51  1249.11
eigval :     1266.81  1268.00  1269.63  1276.84  1279.06  1281.64
eigval :     1283.95  1284.63  1290.13  1295.75  1298.51  1311.00
eigval :     1318.02  1322.81  1325.33  1328.28  1329.17  1343.41
eigval :     1353.21  1374.91  1390.62  1398.20  1400.08  1402.75
eigval :     1404.75  1405.16  1405.86  1408.36  1415.29  1417.28
eigval :     1422.63  1423.72  1427.08  1427.47  1452.20  1456.48
eigval :     1468.40  1479.82  1481.15  1482.23  1485.51  1489.81
eigval :     1490.55  1492.69  1492.74  1499.77  1499.99  1500.68
eigval :     1503.92  1504.55  1511.04  1513.39  1513.55  1518.06
eigval :     1518.15  1526.00  1533.70  1549.10  1559.11  1559.56
eigval :     1562.21  1570.04  1571.00  1575.21  1587.71  1592.04
eigval :     1602.23  2363.07  2366.38  3024.56  3025.22  3025.60
eigval :     3026.44  3027.84  3028.50  3031.08  3031.11  3032.49
eigval :     3033.57  3036.32  3036.77  3039.87  3040.51  3046.57
eigval :     3047.55  3050.40  3051.51  3057.46  3058.85  3069.06
eigval :     3079.24  3080.76  3080.82  3082.27  3084.93  3086.08
eigval :     3090.42  3090.67  3091.01  3091.63  3091.82  3093.00
eigval :     3093.66  3094.26  3097.56  3098.80  3102.09  3102.56
eigval :     3108.59  3115.74  3117.20

   temp. (K)  partition function   enthalpy   heat capacity  entropy
                                   cal/mol     cal/K/mol   cal/K/mol   J/K/mol
 298.15  VIB  0.112E+26            30992.478    188.816    195.008
         ROT  0.238E+09              888.752      2.981     41.314
         INT  0.267E+34            31881.230    191.797    236.322
         TR   0.204E+29             1481.254      4.968     45.754
         TOT                       33362.4844   196.7650   282.0761  1180.2064

       T/K    H(0)-H(T)+PV         H(T)/Eh          T*S/Eh         G(T)/Eh
   ------------------------------------------------------------------------
    298.15    0.531665E-01    0.842021E+00    0.134023E+00    0.707997E+00
   ------------------------------------------------------------------------

         :::::::::::::::::::::::::::::::::::::::::::::::::::::
         ::                  THERMODYNAMIC                  ::
         :::::::::::::::::::::::::::::::::::::::::::::::::::::
         :: total free energy        -151.703219490246 Eh   ::
         ::.................................................::
         :: total energy             -152.411216803906 Eh   ::
         :: zero point energy           0.788854262037 Eh   ::
         :: G(RRHO) w/o ZPVE           -0.080856948377 Eh   ::
         :: G(RRHO) contrib.            0.707997313660 Eh   ::
         :::::::::::::::::::::::::::::::::::::::::::::::::::::

           -------------------------------------------------
          | TOTAL ENERGY             -152.411216803906 Eh   |
          | TOTAL ENTHALPY           -151.569196038818 Eh   |
          | TOTAL FREE ENERGY        -151.703219490246 Eh   |
          | GRADIENT NORM               0.000078916146 Eh/α |
           -------------------------------------------------

 * finished run on 2025/07/18 at 22:18:23.616
