   * xtb version 6.7.1 (edcfbbe) compiled by 'albert@albert-system' on 2024-07-22

   ID    Z sym.   atoms
    1    6 C      1-8, 10-16, 18-25, 27, 28, 30, 31, 33-36, 38-43, 45-48,
                  50-63
    2    7 N      9, 17, 26, 29, 32, 37, 44, 49
    3    1 H      64-107

          program call               : xtb data2507/gas/Py-TPA/Py-TPA.xyz --gfn 2 --ohess vtight --parallel 40 --molden --ceasefiles --namespace data2507/gas/Py-TPA/Py-TPA_gas_S0_preOpt
          :  Hamiltonian                  GFN2-xTB          :
 * total energy  :  -163.5914167 Eh     change       -0.6143409E-08 Eh
 * total energy  :  -163.6153640 Eh     change       -0.2394725E-01 Eh
 * total energy  :  -163.6223288 Eh     change       -0.6964873E-02 Eh
 * total energy  :  -163.6242571 Eh     change       -0.1928281E-02 Eh
 * total energy  :  -163.6262870 Eh     change       -0.2029904E-02 Eh
 * total energy  :  -163.6274369 Eh     change       -0.1149849E-02 Eh
 * total energy  :  -163.6281015 Eh     change       -0.6646585E-03 Eh
 * total energy  :  -163.6283043 Eh     change       -0.2028319E-03 Eh
 * total energy  :  -163.6284670 Eh     change       -0.1626458E-03 Eh
 * total energy  :  -163.6285818 Eh     change       -0.1148072E-03 Eh
 * total energy  :  -163.6302662 Eh     change       -0.7525068E-06 Eh
 * total energy  :  -163.6302669 Eh     change       -0.6057241E-06 Eh
 * total energy  :  -163.6302674 Eh     change       -0.5353920E-06 Eh
 * total energy  :  -163.6302679 Eh     change       -0.4763565E-06 Eh
 * total energy  :  -163.6302684 Eh     change       -0.5144030E-06 Eh
 * total energy  :  -163.6302690 Eh     change       -0.6468790E-06 Eh
 * total energy  :  -163.6302698 Eh     change       -0.7900206E-06 Eh
 * total energy  :  -163.6302709 Eh     change       -0.1093262E-05 Eh
 * total energy  :  -163.6302709 Eh     change       -0.4540254E-08 Eh
   *** GEOMETRY OPTIMIZATION CONVERGED AFTER 185 ITERATIONS ***

 final structure:
================
107
 xtb: 6.7.1 (edcfbbe)
C           -9.30671118372386       -4.96444143595258       -0.18244572449627
C           -8.03894289904822       -5.03271016597872       -1.04574211322546
C           -8.42455721657206       -5.13654199555652       -2.52817354960186
C           -7.26915471795447       -6.29968683268291       -0.66330120795249
C           -7.22552201584679       -3.76640897907911       -0.83262508688323
C           -5.92496384285693       -3.77177607768704       -0.34238176315760
C           -5.21782459675308       -2.59880678599809       -0.15631595332730
C           -5.78983286499776       -1.36934282142319       -0.46688444548741
N           -5.08128924683194       -0.17491233936573       -0.27138865015353
C           -3.72437878957477       -0.10435931039535       -0.55521865519995
C           -2.88085515396700        0.71861419773940        0.19764855493383
C           -1.53551203937414        0.78759557116470       -0.08508859385702
C           -0.98491596097164        0.05581458267731       -1.13768936797680
C            0.44708262878072        0.14647400937900       -1.43209723768525
C            1.37958078180547        0.10333392230389       -0.42366737461410
C            2.75681887561891        0.17433985933786       -0.70151819588698
N            3.64442851256584        0.10481154012528        0.30288610211029
C            4.92575988193605        0.17127589441721       -0.00067736005850
C            5.90242250548928        0.08990411017077        1.05989143734349
C            5.53017414482110       -0.07906967281996        2.39777450565426
C            6.50462317614728       -0.14865849582642        3.36605157212085
C            7.85125316203109       -0.04093166216509        2.98105099393285
C            8.95980538719496       -0.10219180466919        3.94390992761198
C           10.24218609030247       -0.41208481723690        3.48741252087092
C           11.27842675152198       -0.46959703343809        4.40219036316324
N           11.12263663351303       -0.24357691361428        5.69679126980211
C            9.91165197078985        0.06054268109505        6.12917199212972
C            8.80019585389523        0.14648289084669        5.30618070044313
N            8.20593422414927        0.10531256481950        1.71484597272301
C            7.27855128538104        0.16871092066911        0.77000168784347
C            7.72357552825080        0.32526215853304       -0.60642886755406
N            9.02855199288554        0.38650042900953       -0.83024429706931
C            9.48121553169355        0.53235630846908       -2.06491074773192
C           10.94350701948643        0.58873161956871       -2.19925554682168
C           11.71974481366294        0.89521123204971       -1.08012963714158
C           13.09526910430693        0.94724161713392       -1.21829230866103
N           13.72343525068128        0.71909027468225       -2.36054111495388
C           12.99110704742099        0.41832713088180       -3.41847382876632
C           11.60795837351948        0.33782379655424       -3.39871196891509
C            8.61367612827575        0.64330115449737       -3.16428029017440
C            7.25696967970190        0.57539027591171       -2.94889377163268
C            6.77664223690380        0.40538452435809       -1.64592028458857
C            5.36506823384417        0.32256384551157       -1.35605254298413
N            4.50186384589471        0.38551852474734       -2.35149127167217
C            3.19807119990022        0.30875656415677       -2.05388323920477
C            2.23930104026567        0.37166034214209       -3.08239108599999
C            0.90017446654855        0.29115815104329       -2.77948694983612
C           -0.02740019447763        0.42654649837269       -3.84007507821923
N           -0.73519384044292        0.57018296423732       -4.73071864816423
C           -1.82641232326413       -0.76829127821601       -1.88496808689266
C           -3.17003132762085       -0.85390051330001       -1.59685657368083
C           -5.76506262123134        0.95349416353867        0.20518209161753
C           -6.75116932570132        0.82891563303474        1.17802935502581
C           -7.43413747083322        1.94065469563574        1.63469484912163
C           -7.15839402230817        3.21328322902857        1.14876233831948
C           -7.88480141889460        4.46082196030853        1.62486496753765
C           -8.93028765867526        4.15965196598221        2.70203725773413
C           -8.60039939457736        5.10839653107852        0.43079263686076
C           -6.86222271129249        5.44343241633520        2.21294951882015
C           -6.16725292034490        3.32395271966469        0.17518604663278
C           -5.48355073797808        2.22283654571063       -0.29522110413398
C           -7.09161970066439       -1.35054661327930       -0.96182405373070
C           -7.78843685252323       -2.52782773663716       -1.13447368032395
H           -9.92667388034937       -4.11488658004323       -0.45483532145787
H           -9.89565471696842       -5.87033969709033       -0.30938107535700
H           -9.04114281789201       -4.86984777709030        0.86854144985914
H           -7.53074882093074       -5.16232695478556       -3.14807098657234
H           -8.99338680649590       -6.04702133712800       -2.70448630215355
H           -9.03096214932316       -4.29099665766583       -2.84048197660519
H           -6.37041263102073       -6.40870567833700       -1.26588349571240
H           -6.99474397823056       -6.28882165490899        0.38904775476581
H           -7.89715396670406       -7.17117634425067       -0.83704423571243
H           -5.43839778155991       -4.69839453935761       -0.08546191983939
H           -4.21240997449952       -2.63391994226360        0.23801642757961
H           -3.29236089504336        1.29812630928155        1.01069489762581
H           -0.90024138573481        1.43460838961689        0.50213436392750
H            1.07492840364663       -0.01176572508456        0.60515391426443
H            4.48075337729736       -0.15560431794064        2.63853613573466
H            6.23728139962869       -0.30133495618586        4.39964141646816
H           10.39737538847579       -0.59882529815036        2.43723351883756
H           12.28663059511293       -0.70874919380608        4.08978325388972
H            9.82940013069556        0.24607317041138        7.19250413647448
H            7.84309088396120        0.42020673830781        5.72206014908061
H           11.23378277869060        1.08369236819946       -0.13664885045788
H           13.73267783487093        1.18352808183687       -0.37615734741605
H           13.54398515165111        0.23094035519559       -4.33009854010601
H           11.07237118842603        0.06646546719668       -4.29504147946295
H            9.00119747121744        0.79683923695939       -4.15889971173220
H            6.54691260073190        0.65367919107836       -3.75808214749381
H            2.57584967989761        0.49306717310356       -4.10099337926986
H           -1.42117366972178       -1.36357325724903       -2.68979266912228
H           -3.80652737145250       -1.49549159024758       -2.18711746961350
H           -6.98298312464699       -0.14758245193229        1.57802456500248
H           -8.18853014297852        1.79238886103040        2.38981055326373
H           -8.46950271354480        3.71667191394889        3.58197740534607
H           -9.41349376219022        5.08584996999090        3.00655343572148
H           -9.69895752186301        3.48888092239810        2.32531799215738
H           -9.14007319075682        5.99613686765293        0.75372263893310
H           -7.89569316719540        5.40114994841870       -0.34248362025428
H           -9.31284787060451        4.41031849851387       -0.00397976649148
H           -7.36650799320850        6.33714093903716        2.57432539277612
H           -6.12843597301912        5.74433762971549        1.47049194958126
H           -6.33539373421935        4.98351839958941        3.04660315138946
H           -5.92248290148170        4.28968167076362       -0.24044934155189
H           -4.72960945998630        2.33909908888037       -1.06030029352771
H           -7.55232277994660       -0.40601153970719       -1.21180917660702
H           -8.79424801269860       -2.47102642891761       -1.52223980019099

          :  Hamiltonian                  GFN2-xTB          :
         :: gradient norm              0.000083774466 Eh/a0 ::
         :: HOMO-LUMO gap              0.785518147633 eV    ::
         :: SCC energy              -166.520779735878 Eh    ::
         :: -> dispersion             -0.142780673700 Eh    ::
         :: repulsion energy           2.890508822925 Eh    ::

    * Orbital Energies and Occupations

         #    Occupation            Energy/Eh            Energy/eV
      -------------------------------------------------------------
         1        2.0000           -0.6915283             -18.8174
       ...           ...                  ...                  ...
       140        2.0000           -0.4138447             -11.2613
       141        2.0000           -0.4105464             -11.1715
       142        2.0000           -0.4074104             -11.0862
       143        2.0000           -0.4065334             -11.0623
       144        2.0000           -0.4044978             -11.0069
       145        2.0000           -0.3993569             -10.8671
       146        2.0000           -0.3988894             -10.8543
       147        2.0000           -0.3785442             -10.3007
       148        2.0000           -0.3776907             -10.2775
       149        2.0000           -0.3696037             -10.0574
       150        2.0000           -0.3688150             -10.0360
       151        2.0000           -0.3662054              -9.9650
       152        2.0000           -0.3509722              -9.5504 (HOMO)
       153        0.0000           -0.3221050              -8.7649 (LUMO)
       154                         -0.2994892              -8.1495
       155                         -0.2832379              -7.7073
       156                         -0.2746508              -7.4736
       157                         -0.2689369              -7.3181
       158                         -0.2442510              -6.6464
       159                         -0.2426280              -6.6022
       160                         -0.2382638              -6.4835
       161                         -0.2375669              -6.4645
       162                         -0.2324383              -6.3250
       163                         -0.2298312              -6.2540
       ...                                ...                  ...
       296                          1.1603173              31.5738
      -------------------------------------------------------------
                  HL-Gap            0.0288673 Eh            0.7855 eV

     #   Z          covCN         q      C6AA      α(0)
     1   6 C        3.762    -0.106    22.565     6.771
     2   6 C        3.903     0.026    20.084     6.370
     3   6 C        3.762    -0.106    22.568     6.772
     4   6 C        3.761    -0.108    22.605     6.778
     5   6 C        2.973     0.003    27.958     8.673
     6   6 C        2.925    -0.039    28.980     8.828
     7   6 C        2.922    -0.050    29.237     8.867
     8   6 C        2.925     0.060    26.657     8.467
     9   7 N        2.752    -0.070    22.599     7.060
    10   6 C        2.923     0.070    26.443     8.433
    11   6 C        2.921    -0.049    29.212     8.863
    12   6 C        2.923    -0.033    28.813     8.803
    13   6 C        2.977    -0.003    28.094     8.694
    14   6 C        2.976     0.021    27.536     8.608
    15   6 C        2.923    -0.047    29.171     8.857
    16   6 C        2.964     0.084    26.116     8.382
    17   7 N        1.849    -0.238    27.077     7.712
    18   6 C        2.959     0.084    26.117     8.382
    19   6 C        2.982    -0.013    28.342     8.733
    20   6 C        2.925    -0.011    28.291     8.723
    21   6 C        2.914    -0.041    29.029     8.835
    22   6 C        2.954     0.097    25.850     8.339
    23   6 C        2.990     0.024    27.468     8.597
    24   6 C        2.920    -0.036    28.901     8.816
    25   6 C        2.913     0.060    26.644     8.464
    26   7 N        1.836    -0.216    26.540     7.634
    27   6 C        2.913     0.059    26.676     8.469
    28   6 C        2.916    -0.043    29.064     8.841
    29   7 N        1.854    -0.214    26.492     7.629
    30   6 C        2.963     0.086    26.079     8.376
    31   6 C        2.964     0.085    26.094     8.379
    32   7 N        1.854    -0.214    26.497     7.629
    33   6 C        2.954     0.097    25.857     8.340
    34   6 C        2.990     0.024    27.469     8.597
    35   6 C        2.920    -0.036    28.904     8.816
    36   6 C        2.913     0.060    26.646     8.465
    37   7 N        1.836    -0.216    26.545     7.635
    38   6 C        2.913     0.059    26.675     8.469
    39   6 C        2.916    -0.043    29.065     8.841
    40   6 C        2.915    -0.041    29.021     8.834
    41   6 C        2.925    -0.011    28.297     8.724
    42   6 C        2.982    -0.013    28.337     8.732
    43   6 C        2.961     0.082    26.169     8.391
    44   7 N        1.848    -0.235    27.011     7.703
    45   6 C        2.968     0.082    26.170     8.391
    46   6 C        2.931    -0.031    28.777     8.798
    47   6 C        2.973     0.017    27.627     8.622
    48   6 C        1.915     0.117    28.213     8.578
    49   7 N        0.911    -0.231    26.050     7.382
    50   6 C        2.922    -0.028    28.710     8.787
    51   6 C        2.921    -0.047    29.167     8.856
    52   6 C        2.926     0.060    26.659     8.467
    53   6 C        2.922    -0.049    29.223     8.865
    54   6 C        2.925    -0.039    28.981     8.828
    55   6 C        2.973     0.003    27.961     8.674
    56   6 C        3.903     0.026    20.084     6.370
    57   6 C        3.761    -0.108    22.606     6.778
    58   6 C        3.762    -0.106    22.566     6.772
    59   6 C        3.762    -0.106    22.565     6.771
    60   6 C        2.927    -0.035    28.872     8.812
    61   6 C        2.921    -0.049    29.216     8.864
    62   6 C        2.921    -0.048    29.199     8.861
    63   6 C        2.927    -0.035    28.866     8.811
    64   1 H        0.925     0.037     2.495     2.470
    65   1 H        0.925     0.038     2.480     2.463
    66   1 H        0.925     0.033     2.539     2.492
    67   1 H        0.925     0.034     2.528     2.486
    68   1 H        0.925     0.038     2.480     2.463
    69   1 H        0.925     0.037     2.492     2.469
    70   1 H        0.925     0.036     2.503     2.474
    71   1 H        0.925     0.036     2.509     2.477
    72   1 H        0.925     0.037     2.492     2.469
    73   1 H        0.926     0.039     2.468     2.456
    74   1 H        0.926     0.029     2.603     2.523
    75   1 H        0.926     0.037     2.495     2.470
    76   1 H        0.926     0.034     2.524     2.484
    77   1 H        0.926     0.057     2.233     2.337
    78   1 H        0.926     0.061     2.182     2.310
    79   1 H        0.926     0.044     2.399     2.422
    80   1 H        0.926     0.066     2.135     2.285
    81   1 H        0.925     0.044     2.400     2.422
    82   1 H        0.925     0.040     2.442     2.444
    83   1 H        0.926     0.036     2.508     2.477
    84   1 H        0.926     0.065     2.140     2.288
    85   1 H        0.925     0.043     2.404     2.424
    86   1 H        0.925     0.041     2.442     2.444
    87   1 H        0.926     0.036     2.506     2.475
    88   1 H        0.926     0.044     2.395     2.420
    89   1 H        0.926     0.061     2.182     2.310
    90   1 H        0.926     0.061     2.192     2.315
    91   1 H        0.926     0.036     2.506     2.475
    92   1 H        0.926     0.040     2.453     2.449
    93   1 H        0.926     0.031     2.578     2.511
    94   1 H        0.926     0.039     2.465     2.455
    95   1 H        0.925     0.036     2.507     2.476
    96   1 H        0.925     0.037     2.492     2.469
    97   1 H        0.925     0.036     2.503     2.474
    98   1 H        0.925     0.038     2.479     2.462
    99   1 H        0.925     0.037     2.491     2.468
   100   1 H        0.925     0.034     2.533     2.489
   101   1 H        0.925     0.038     2.480     2.463
   102   1 H        0.925     0.037     2.495     2.470
   103   1 H        0.925     0.033     2.540     2.492
   104   1 H        0.926     0.033     2.549     2.497
   105   1 H        0.926     0.031     2.567     2.505
   106   1 H        0.926     0.032     2.565     2.504
   107   1 H        0.926     0.033     2.550     2.497

molecular dipole:
                 x           y           z       tot (Debye)
 q only:       -1.589      -0.194       0.833
   full:       -2.652      -0.221       0.670       6.974

 projected vibrational frequencies (cm⁻¹)
eigval :       -0.00    -0.00    -0.00    -0.00     0.00     0.00
eigval :        5.92     6.90    11.12    19.62    21.63    23.39
eigval :       25.08    26.78    28.68    30.32    34.23    37.77
eigval :       44.54    51.17    58.69    63.23    73.85    79.38
eigval :       86.54    89.69    96.58   104.91   107.56   113.07
eigval :      120.49   125.23   139.79   149.00   169.03   169.59
eigval :      175.26   178.63   182.58   197.64   209.30   210.59
eigval :      221.59   222.80   224.47   235.19   240.35   244.91
eigval :      247.91   265.22   277.56   296.67   305.31   313.97
eigval :      315.13   315.64   317.99   328.32   329.83   331.85
eigval :      345.53   351.49   355.92   359.44   368.74   375.82
eigval :      379.25   382.55   383.20   384.72   389.14   391.81
eigval :      403.33   411.30   416.16   422.92   425.51   434.43
eigval :      439.56   447.26   451.43   458.92   467.01   479.17
eigval :      494.75   495.96   499.71   513.43   527.50   531.75
eigval :      537.11   557.30   566.71   579.40   585.52   593.79
eigval :      599.80   602.86   607.45   608.44   610.91   623.36
eigval :      628.12   629.70   644.39   649.59   660.50   675.70
eigval :      682.08   686.88   690.22   698.13   699.38   704.21
eigval :      710.73   719.06   723.10   724.48   732.35   748.06
eigval :      767.30   772.35   789.31   795.77   798.52   813.40
eigval :      816.45   818.43   834.22   838.53   848.39   851.76
eigval :      868.18   870.47   872.05   876.46   877.57   882.62
eigval :      882.91   884.82   892.87   914.63   914.74   915.52
eigval :      915.65   918.52   923.39   925.28   925.54   925.68
eigval :      926.76   926.85   928.52   930.51   933.99   960.47
eigval :      960.50   962.76   963.02   963.33   963.35   963.53
eigval :      985.72  1000.83  1005.99  1013.51  1026.61  1035.17
eigval :     1035.64  1035.68  1035.70  1039.01  1064.76  1070.61
eigval :     1091.64  1093.70  1099.80  1104.64  1111.94  1117.15
eigval :     1143.58  1144.66  1145.18  1146.51  1149.06  1153.61
eigval :     1154.18  1163.56  1190.31  1198.45  1201.56  1204.28
eigval :     1206.26  1210.30  1217.78  1226.89  1227.88  1227.90
eigval :     1234.36  1234.44  1241.60  1255.89  1263.23  1264.93
eigval :     1268.36  1272.06  1273.86  1278.83  1280.25  1280.60
eigval :     1282.62  1285.63  1292.35  1294.90  1305.74  1314.53
eigval :     1315.14  1315.87  1322.48  1329.42  1332.59  1335.44
eigval :     1352.66  1365.37  1369.05  1373.73  1382.80  1399.11
eigval :     1402.83  1404.63  1406.09  1406.13  1409.36  1415.69
eigval :     1416.97  1419.04  1425.20  1429.68  1429.84  1437.81
eigval :     1456.13  1457.93  1468.34  1476.52  1487.32  1488.99
eigval :     1491.94  1492.02  1492.76  1494.48  1494.57  1494.73
eigval :     1502.67  1502.85  1506.59  1506.70  1514.66  1514.71
eigval :     1515.92  1519.76  1519.82  1533.91  1534.86  1549.22
eigval :     1550.19  1555.21  1556.54  1566.14  1567.85  1570.43
eigval :     1577.30  1579.14  1580.05  1597.67  1602.94  1606.19
eigval :     2368.31  3023.14  3023.20  3024.57  3024.70  3027.51
eigval :     3027.55  3030.90  3031.21  3031.91  3032.14  3036.24
eigval :     3036.31  3039.20  3039.47  3047.48  3047.52  3051.12
eigval :     3051.14  3055.17  3055.24  3058.45  3058.91  3077.71
eigval :     3078.35  3078.91  3079.74  3081.71  3084.59  3089.47
eigval :     3089.89  3091.10  3092.04  3092.86  3093.73  3094.04
eigval :     3096.56  3098.66  3100.28  3102.68  3103.06  3112.41
eigval :     3113.35  3114.45  3114.84

   temp. (K)  partition function   enthalpy   heat capacity  entropy
                                   cal/mol     cal/K/mol   cal/K/mol   J/K/mol
 298.15  VIB  0.107E+28            32670.583    197.156    205.798
         ROT  0.344E+09              888.752      2.981     42.045
         INT  0.369E+36            33559.335    200.137    247.843
         TR   0.226E+29             1481.254      4.968     45.958
         TOT                       35040.5889   205.1051   293.8008  1229.2624

       T/K    H(0)-H(T)+PV         H(T)/Eh          T*S/Eh         G(T)/Eh
   ------------------------------------------------------------------------
    298.15    0.558407E-01    0.890822E+00    0.139594E+00    0.751228E+00
   ------------------------------------------------------------------------

         :::::::::::::::::::::::::::::::::::::::::::::::::::::
         ::                  THERMODYNAMIC                  ::
         :::::::::::::::::::::::::::::::::::::::::::::::::::::
         :: total free energy        -162.879042912822 Eh   ::
         ::.................................................::
         :: total energy             -163.630270912950 Eh   ::
         :: zero point energy           0.834981494232 Eh   ::
         :: G(RRHO) w/o ZPVE           -0.083753494103 Eh   ::
         :: G(RRHO) contrib.            0.751228000129 Eh   ::
         :::::::::::::::::::::::::::::::::::::::::::::::::::::

           -------------------------------------------------
          | TOTAL ENERGY             -163.630270912950 Eh   |
          | TOTAL ENTHALPY           -162.739448685942 Eh   |
          | TOTAL FREE ENERGY        -162.879042912822 Eh   |
          | GRADIENT NORM               0.000083596293 Eh/α |
          | HOMO-LUMO GAP               0.785517896800 eV   |
           -------------------------------------------------

 * finished run on 2025/08/21 at 13:34:44.137
