   * xtb version 6.7.1 (edcfbbe) compiled by 'albert@albert-system' on 2024-07-22

   ID    Z sym.   atoms
    1    6 C      1-8, 10-16, 18-25, 27, 28, 30, 31, 33-36, 38-43, 45-48,
                  50-63
    2    7 N      9, 17, 26, 29, 32, 37, 44, 49
    3    1 H      64-107

          program call               : xtb data2507/gas/Py-TPA/Py-TPA_gas_T1_crest.xyz --gfn 2 --spinpol --tblite --uhf 2 --ohess vtight --parallel 40 --molden --ceasefiles --namespace data2507/gas/Py-TPA/Py-TPA_gas_T1_finalOpt
 * total energy  :  -163.5930375 Eh     change        0.5689350E-07 Eh
 * total energy  :  -163.5930661 Eh     change       -0.2861553E-04 Eh
 * total energy  :  -163.5930743 Eh     change       -0.8230929E-05 Eh
 * total energy  :  -163.5930754 Eh     change       -0.1104249E-05 Eh
 * total energy  :  -163.5930759 Eh     change       -0.5009113E-06 Eh
 * total energy  :  -163.5930777 Eh     change       -0.1809919E-05 Eh
 * total energy  :  -163.5930783 Eh     change       -0.5852811E-06 Eh
 * total energy  :  -163.5930796 Eh     change       -0.1253642E-05 Eh
 * total energy  :  -163.5930806 Eh     change       -0.1012630E-05 Eh
 * total energy  :  -163.5930814 Eh     change       -0.7897367E-06 Eh
 * total energy  :  -163.5930839 Eh     change       -0.4172298E-06 Eh
 * total energy  :  -163.5930844 Eh     change       -0.4372961E-06 Eh
 * total energy  :  -163.5930844 Eh     change       -0.7269747E-07 Eh
 * total energy  :  -163.5930842 Eh     change        0.2596945E-06 Eh
 * total energy  :  -163.5930848 Eh     change       -0.6179746E-06 Eh
 * total energy  :  -163.5930851 Eh     change       -0.2571230E-06 Eh
 * total energy  :  -163.5930852 Eh     change       -0.1697828E-06 Eh
 * total energy  :  -163.5930853 Eh     change       -0.1033713E-06 Eh
 * total energy  :  -163.5930854 Eh     change       -0.7369005E-07 Eh
   *** GEOMETRY OPTIMIZATION CONVERGED AFTER 22 ITERATIONS ***

 final structure:
================
107
 xtb: 6.7.1 (edcfbbe)
C           -7.14395664013263        6.65934767078572       -0.26332693575559
C           -8.06521710331872        5.66992423958162        0.45512107566610
C           -9.47395468127695        5.80803141521135       -0.13966777483880
C           -8.09218597319705        6.03678224670024        1.94589131680791
C           -7.60571990782169        4.22922711700637        0.30796343524214
C           -6.47052189064455        3.86252666730229       -0.40686678818519
C           -6.08421008152003        2.54112096160408       -0.52180289859438
C           -6.82476714239287        1.53007601178754        0.08564399250050
N           -6.43898981323078        0.19048554458392       -0.02708164883705
C           -5.09024462561402       -0.15665804031880       -0.00553577057187
C           -4.62132501172074       -1.23204044618050       -0.76419821103178
C           -3.29268491981150       -1.59142628210423       -0.72150919048823
C           -2.38523783670876       -0.88480504754201        0.06771093598956
C           -0.97242215836385       -1.27120127185173        0.12582620446423
C            0.02255380367001       -0.31046021154303        0.03274998427493
C            1.37621760289416       -0.64463396876003        0.07057911179337
N            2.33385226893078        0.27095762535986       -0.03224712596110
C            3.62159749404904       -0.05679557078477        0.00037154444832
C            4.63638845762890        0.93420025048340       -0.11394056658467
C            4.32490253321052        2.29591478273289       -0.27529960911394
C            5.33544381642942        3.21493868404807       -0.37582817806451
C            6.67358636281908        2.77181978084277       -0.31244866299854
C            7.81709262809117        3.68626143153183       -0.40879121798322
C            7.71807918502585        5.06018976357371       -0.19036703582780
C            8.86045261218442        5.83462608638929       -0.30764235182415
N           10.04955658080434        5.34676593757073       -0.61489356994950
C           10.14904040247107        4.04152568534143       -0.81264104656331
C            9.07752504722666        3.17230623212405       -0.72285703146727
N            6.97254935163537        1.49346976829288       -0.17732593613668
C            6.00959973388463        0.58736390216293       -0.07991498513588
C            6.38382330291655       -0.79923058510629        0.06578766368263
N            7.67450870131724       -1.10523330594775        0.08233608139905
C            8.05882580515671       -2.36073675884283        0.21399381738255
C            9.50960262407505       -2.58500921372688        0.21449012227751
C           10.36641367947643       -1.51007833710035        0.46179477250999
C           11.73143932498871       -1.73120476948000        0.45960672539378
N           12.27922158197654       -2.91478650386074        0.23294000138477
C           11.47135859521936       -3.93162899545099       -0.01124596023613
C           10.09016230398258       -3.82820400637554       -0.03449970910997
C            7.12642090872135       -3.40874212452996        0.35980875088484
C            5.78799555832167       -3.11468085293394        0.34256608292859
C            5.37187479753566       -1.78215704619432        0.18417010920762
C            3.99047405348013       -1.42898045298980        0.15202592821260
N            3.04561327139737       -2.35071368583189        0.25764555685045
C            1.74909880401593       -2.03412533153319        0.22382583961023
C            0.74578918681977       -2.98734686777651        0.33507065996705
C           -0.59993390376455       -2.62097210380705        0.28560963642097
C           -1.57188209187849       -3.62507910288462        0.46669151485304
N           -2.33522392432431       -4.46597430018813        0.63973092897690
C           -2.85133895260214        0.20547155996719        0.80253804370953
C           -4.18163437630724        0.56122524778761        0.77642917718161
C           -7.41684056200645       -0.80259120076378       -0.15699465291946
C           -8.57093051040687       -0.57097602549042       -0.90092671705754
C           -9.53567233050516       -1.55207219185437       -1.02587577926137
C           -9.38918854134717       -2.79702731927171       -0.42360077393980
C          -10.42261067213378       -3.90415424431280       -0.54257778610894
C          -10.92564067966094       -4.27146720194215        0.86089604653042
C           -9.76813588676587       -5.12902732909676       -1.19721698701251
C          -11.62983789538932       -3.49603241612638       -1.39119370426519
C           -8.22890982257640       -3.01543630426023        0.31870376625500
C           -7.26038444188219       -2.04497354181893        0.45718762882988
C           -7.96494364759373        1.88499680309240        0.80593154395323
C           -8.34056579759702        3.20709101650969        0.90773029630826
H           -7.11135907608545        6.45991912672191       -1.33193506900776
H           -7.51974922499872        7.67065768019136       -0.12280727610433
H           -6.13453788244233        6.61834648497914        0.13929968601188
H          -10.18733437847875        5.17192342071358        0.37679434298964
H           -9.81474752279778        6.83778172825181       -0.05779128722291
H           -9.46710890355295        5.52954975522394       -1.19148679715382
H           -8.78362137467845        5.40652995280007        2.49805853097881
H           -7.10164137781870        5.91902712952503        2.38038914183302
H           -8.40234170448229        7.07196099738814        2.07012909938555
H           -5.86738153552861        4.60771859288601       -0.89866638772574
H           -5.20569672133591        2.28501852007054       -1.09596298459471
H           -5.30779410022156       -1.77818029156879       -1.39348111363824
H           -2.94826472884620       -2.41498139217527       -1.32839377839236
H           -0.23777364284618        0.72849388378792       -0.09896070106905
H            3.28481216385804        2.58471338385625       -0.31986783500235
H            5.10999136083441        4.25957953015911       -0.52009498705232
H            6.78262258314262        5.52290085253737        0.08316854124475
H            8.82340535206018        6.90452047617167       -0.14589780967545
H           11.14069285416001        3.68261338805055       -1.05613095581411
H            9.18741579317740        2.11288325441445       -0.88816796464206
H            9.94714043783406       -0.53476247945952        0.64822990738112
H           12.42836537275500       -0.92505547899329        0.64905792106057
H           11.95916176648770       -4.87964766165441       -0.19941735691659
H            9.49100444407591       -4.69637456856443       -0.26081863806634
H            7.45967026388725       -4.42447194667198        0.50122148715612
H            5.03472288065317       -3.88144774943584        0.45102854531572
H            1.02226618185887       -4.02210017182684        0.46723304103836
H           -2.16564747627318        0.75457059516376        1.43088365491525
H           -4.53321814291949        1.38745180214317        1.37655646340130
H           -8.70540069115560        0.38204886651654       -1.39168602554829
H          -10.40838425816744       -1.32715551409019       -1.61650006572692
H          -11.36984997049905       -3.40195383599024        1.34118070873703
H          -11.68042428169756       -5.05192835713878        0.79449103436688
H          -10.11754531536665       -4.63317185455506        1.49026488375746
H           -9.39141568174892       -4.87135641166739       -2.18492012648565
H           -8.93865841970698       -5.50152383876614       -0.60299393030779
H          -10.49696680710143       -5.92944194657195       -1.30410203655950
H          -11.32981090287804       -3.25074554361979       -2.40736703976873
H          -12.14604839206833       -2.64387489969305       -0.95500310943379
H          -12.33342302675325       -4.32443218381386       -1.44066050767329
H           -8.07144145753041       -3.96261492411356        0.81084521054134
H           -6.37822995064408       -2.24224499014625        1.04815633388876
H           -8.54761013547536        1.11630480591485        1.29202920195719
H           -9.22617786664600        3.44153960315457        1.47831133564755

 projected vibrational frequencies (cm⁻¹)
eigval :       -0.00     0.00     0.00     0.00     0.00     0.00
eigval :        5.93     7.78     8.96    21.07    21.92    23.82
eigval :       24.96    26.80    28.59    30.54    34.42    37.82
eigval :       44.24    49.80    58.10    62.69    70.07    80.47
eigval :       88.02    93.72    98.50   103.67   105.83   113.20
eigval :      123.57   129.41   139.59   146.77   164.60   169.57
eigval :      175.01   177.82   183.36   197.08   205.63   211.74
eigval :      221.43   223.32   224.64   236.21   240.37   244.76
eigval :      247.61   266.53   273.38   294.89   304.37   314.46
eigval :      315.24   315.95   319.65   320.35   330.46   330.74
eigval :      345.62   346.86   354.53   358.86   369.00   373.11
eigval :      379.56   382.18   383.38   386.83   390.04   395.15
eigval :      404.42   411.53   417.26   418.19   422.23   431.60
eigval :      436.34   448.34   451.88   459.13   466.60   481.26
eigval :      493.22   494.69   506.52   512.06   525.78   531.40
eigval :      539.34   557.28   563.76   572.30   577.91   585.56
eigval :      592.36   600.21   606.05   606.70   610.00   621.58
eigval :      625.84   628.07   629.26   640.04   644.79   659.04
eigval :      674.10   682.75   687.81   689.48   692.11   696.78
eigval :      701.80   708.13   710.96   715.72   718.68   723.18
eigval :      744.51   765.48   771.49   793.14   794.03   812.50
eigval :      815.67   817.30   817.93   826.09   827.82   828.59
eigval :      846.37   866.38   867.78   871.02   876.10   881.25
eigval :      881.97   882.96   887.47   913.39   914.22   914.37
eigval :      915.78   916.00   917.29   918.12   923.07   924.68
eigval :      925.79   926.42   928.33   930.54   933.65   934.40
eigval :      960.44   960.57   962.74   962.95   963.62   963.72
eigval :      985.33   989.85   999.92  1012.36  1024.82  1034.97
eigval :     1035.06  1035.13  1035.46  1038.21  1056.74  1064.17
eigval :     1088.99  1092.12  1096.53  1100.36  1111.91  1115.96
eigval :     1142.94  1143.35  1143.47  1144.70  1149.21  1153.08
eigval :     1154.39  1167.66  1187.90  1198.07  1201.90  1203.11
eigval :     1205.91  1207.67  1216.49  1224.79  1226.95  1226.97
eigval :     1232.83  1233.67  1233.86  1243.03  1258.32  1264.69
eigval :     1267.20  1268.45  1271.63  1276.66  1277.70  1279.76
eigval :     1281.37  1283.67  1283.79  1284.79  1285.91  1291.15
eigval :     1310.99  1317.60  1319.59  1320.75  1323.65  1328.87
eigval :     1329.22  1332.14  1367.40  1371.54  1372.86  1386.76
eigval :     1389.37  1392.47  1398.92  1402.76  1405.73  1405.89
eigval :     1406.45  1409.45  1416.45  1417.92  1429.11  1429.20
eigval :     1437.97  1452.01  1466.78  1471.92  1472.39  1480.93
eigval :     1481.66  1484.35  1490.77  1490.90  1492.94  1493.29
eigval :     1497.21  1500.73  1501.02  1502.43  1504.76  1504.92
eigval :     1505.29  1513.90  1514.06  1518.55  1518.59  1521.20
eigval :     1538.81  1547.76  1549.06  1552.99  1555.83  1559.46
eigval :     1563.08  1576.89  1577.58  1586.26  1592.71  1600.74
eigval :     2348.75  3024.82  3025.16  3026.20  3026.63  3028.44
eigval :     3028.72  3031.33  3031.73  3033.51  3033.71  3036.43
eigval :     3036.90  3040.09  3040.50  3047.76  3049.62  3051.02
eigval :     3052.49  3053.06  3053.14  3056.66  3057.11  3078.37
eigval :     3079.53  3080.22  3080.64  3082.12  3083.02  3084.96
eigval :     3088.40  3089.56  3090.34  3092.17  3094.11  3095.13
eigval :     3097.63  3098.13  3099.12  3099.55  3100.21  3112.40
eigval :     3113.20  3116.73  3117.33

   temp. (K)  partition function   enthalpy   heat capacity  entropy
                                   cal/mol     cal/K/mol   cal/K/mol   J/K/mol
 298.15  VIB  0.120E+28            32798.964    198.211    206.395
         ROT  0.341E+09              888.752      2.981     42.027
         INT  0.408E+36            33687.716    201.192    248.421
         TR   0.226E+29             1481.254      4.968     45.958
         TOT                       35168.9702   206.1605   294.3796  1231.6842

       T/K    H(0)-H(T)+PV         H(T)/Eh          T*S/Eh         G(T)/Eh
   ------------------------------------------------------------------------
    298.15    0.560453E-01    0.888353E+00    0.139869E+00    0.748484E+00
   ------------------------------------------------------------------------

         :::::::::::::::::::::::::::::::::::::::::::::::::::::
         ::                  THERMODYNAMIC                  ::
         :::::::::::::::::::::::::::::::::::::::::::::::::::::
         :: total free energy        -162.844601507843 Eh   ::
         ::.................................................::
         :: total energy             -163.593085379907 Eh   ::
         :: zero point energy           0.832307792766 Eh   ::
         :: G(RRHO) w/o ZPVE           -0.083823920703 Eh   ::
         :: G(RRHO) contrib.            0.748483872064 Eh   ::
         :::::::::::::::::::::::::::::::::::::::::::::::::::::

           -------------------------------------------------
          | TOTAL ENERGY             -163.593085379907 Eh   |
          | TOTAL ENTHALPY           -162.704732265745 Eh   |
          | TOTAL FREE ENERGY        -162.844601507843 Eh   |
          | GRADIENT NORM               0.000174763731 Eh/α |
           -------------------------------------------------

 * finished run on 2025/08/21 at 14:13:42.986
