   * xtb version 6.7.1 (edcfbbe) compiled by 'albert@albert-system' on 2024-07-22

   ID    Z sym.   atoms
    1    6 C      1-8, 10-16, 18-23, 25-30, 32-35, 37-43, 45-59
    2    7 N      9, 17, 24, 31, 36, 44
    3    1 H      60-101

          program call               : xtb data2507/gas/PY-TPA/PY-TPA.xyz --gfn 2 --ohess vtight --parallel 40 --molden --ceasefiles --namespace data2507/gas/PY-TPA/PY-TPA_gas_S0_preOpt
          :  Hamiltonian                  GFN2-xTB          :
 * total energy  :  -152.4137017 Eh     change       -0.3126644E-08 Eh
 * total energy  :  -152.4348681 Eh     change       -0.2116635E-01 Eh
 * total energy  :  -152.4414798 Eh     change       -0.6611717E-02 Eh
 * total energy  :  -152.4439385 Eh     change       -0.2458755E-02 Eh
 * total energy  :  -152.4452338 Eh     change       -0.1295317E-02 Eh
 * total energy  :  -152.4471017 Eh     change       -0.1867895E-02 Eh
 * total energy  :  -152.4477979 Eh     change       -0.6961504E-03 Eh
 * total energy  :  -152.4479890 Eh     change       -0.1911374E-03 Eh
 * total energy  :  -152.4487464 Eh     change       -0.7574010E-03 Eh
 * total energy  :  -152.4489864 Eh     change       -0.2399788E-03 Eh
 * total energy  :  -152.4504111 Eh     change       -0.2856953E-06 Eh
 * total energy  :  -152.4504114 Eh     change       -0.2864332E-06 Eh
 * total energy  :  -152.4504117 Eh     change       -0.2843341E-06 Eh
 * total energy  :  -152.4504119 Eh     change       -0.2378099E-06 Eh
 * total energy  :  -152.4504121 Eh     change       -0.1940738E-06 Eh
 * total energy  :  -152.4504123 Eh     change       -0.1901882E-06 Eh
 * total energy  :  -152.4504125 Eh     change       -0.1477319E-06 Eh
 * total energy  :  -152.4504125 Eh     change       -0.5675497E-07 Eh
 * total energy  :  -152.4504126 Eh     change       -0.8205944E-07 Eh
   *** GEOMETRY OPTIMIZATION CONVERGED AFTER 114 ITERATIONS ***

 final structure:
================
101
 xtb: 6.7.1 (edcfbbe)
C           -5.84234555670656       -6.28806250579124        0.88622157934242
C           -5.47058905074272       -5.74261972308228       -0.49997050692877
C           -4.38113446330556       -6.62246851248844       -1.12934579437289
C           -6.71414623860535       -5.81410833497845       -1.39012770983294
C           -4.93893657225341       -4.32650766796413       -0.34942697379660
C           -5.53108577777055       -3.22329917367497       -0.95295497268715
C           -5.01569476040834       -1.95016781771664       -0.79782446651074
C           -3.88348014827084       -1.73394245096445       -0.01908843777825
N           -3.36039430976920       -0.44579182457784        0.15194188764768
C           -1.98766656182040       -0.23816393664334        0.17869779865061
C           -1.12275015278108       -1.02199673469447       -0.58917864465715
C            0.22872236945288       -0.75516552890768       -0.60911432931306
C            0.76015636642389        0.30764125139635        0.11893216577812
C            2.17944199820634        0.65900853197641        0.00273712586023
C            3.14970008412982       -0.30366651027837        0.12307484400518
C            4.51468196452340        0.03079419203728        0.04554969933585
N            5.44769066488718       -0.92063573235321        0.17577619024096
C            6.71584346745589       -0.55625841036454        0.11024204113303
C            7.74036404025334       -1.56721163711280        0.25060050603586
C            7.35991390737937       -2.89884520460118        0.45157308554823
C            8.29975016994645       -3.88870446532251        0.59005061110636
C            9.65698955060201       -3.54802596206639        0.52730401585299
C           10.64185825323817       -4.55348369816801        0.66781263870705
N           11.43910937276794       -5.36908139528207        0.78198150449005
C           10.04847570190782       -2.23118976741731        0.32837994902734
C            9.10373267704476       -1.21261838391674        0.18576927816436
C            9.48299478555351        0.17885503928161       -0.02405611076568
C           10.81651376864255        0.58678086569231       -0.09723588512822
C           11.14754472455684        1.91981354297522       -0.29827378708663
C           12.50906326889610        2.29657307132392       -0.36673396964055
N           13.61222830248513        2.60302654296289       -0.42169275958074
C           10.14802317658116        2.89192726257337       -0.43344209901762
C            8.83330752468493        2.50639661298229       -0.36364901588051
C            8.48501214925639        1.16608720199196       -0.16094087335675
C            7.08710168105212        0.80428585403474       -0.09368210095694
N            6.17503641501418        1.75252954894746       -0.22377900684748
C            4.88797514149470        1.39556852093194       -0.15786283036840
C            3.87772998924365        2.36797325232430       -0.30081831623486
C            2.55407394898670        2.01879055789357       -0.23580374788914
C            1.52057129029326        3.04051695087330       -0.45847790317391
C            1.54119241728046        4.25665885383114        0.21909019975187
C            0.52841656513476        5.17337106346784       -0.00603415519004
C           -0.47519251235052        4.83931054979928       -0.90186556491994
N           -0.48710296029861        3.70397736979008       -1.58093324772972
C            0.48238206071249        2.83767620153495       -1.37227172085019
C           -0.09709180623156        1.04961144954650        0.93268123623050
C           -1.44463850206927        0.77864023693896        0.96988364690084
C           -4.22956851675091        0.65175975951442        0.24605793458454
C           -3.91477343057052        1.86696549854148       -0.35513938290449
C           -4.77545535434813        2.94357548159754       -0.25439350606529
C           -5.97959953747708        2.85190801376501        0.43400918323530
C           -6.95404298224809        4.01161346552964        0.56289232809390
C           -6.45888569642788        5.27776843177047       -0.14110279056167
C           -7.15178780447897        4.33766932282668        2.05015995072928
C           -8.29672213712744        3.60964496713233       -0.06353552784606
C           -6.28528954406697        1.62722162984830        1.02438270786252
C           -5.43224039852662        0.54676369954011        0.94067516234540
C           -3.28488620007985       -2.83090509272231        0.59752381014223
C           -3.80487741087741       -4.09644556394477        0.42716967122484
H           -6.23987294107198       -7.29691071342862        0.79778627392657
H           -6.59994360542009       -5.65764559892978        1.34727002232614
H           -4.97881623424900       -6.31941395555911        1.54476053284084
H           -4.74911941235526       -7.63776375019866       -1.26115888608212
H           -4.09676682132929       -6.22925431687003       -2.10326241913611
H           -3.49281157325003       -6.66144056472120       -0.50510697853445
H           -7.04805571612334       -6.84716291851721       -1.46351179913921
H           -7.52903423978952       -5.22730639168082       -0.97256368014837
H           -6.49712846993848       -5.45961233065408       -2.39511838133211
H           -6.40857316965756       -3.33883511916341       -1.56773045517567
H           -5.49237091084969       -1.11307647261488       -1.28672928931531
H           -1.52511690701455       -1.82195347668142       -1.19260956451273
H            0.88025208886795       -1.34394509625797       -1.23846413722180
H            2.88697222239986       -1.33430480573483        0.30622897126905
H            6.30474077810043       -3.11787105119966        0.49372685849606
H            8.01179188557796       -4.91744567737630        0.74539411040097
H           11.10540792569633       -2.02019436110753        0.28763034252944
H           11.62234292817311       -0.12342403493578        0.00048093060571
H           10.42198610188293        3.92433829889339       -0.58979684507778
H            8.03333260880841        3.22286272124884       -0.46304716975186
H            4.17739622925219        3.38739966908271       -0.49242369883613
H            2.32861991936106        4.46507368862521        0.93004185839190
H            0.51324651666316        6.12054189316367        0.51061495813192
H           -1.30346364927206        5.50807548839906       -1.09422433173203
H            0.44067902450473        1.93563630213687       -1.96855415833032
H            0.30456849234374        1.83384860104730        1.55767785629040
H           -2.09615571782233        1.36012624307587        1.60482048356615
H           -2.99167180280109        1.97310715703038       -0.90659541652056
H           -4.48532510071486        3.86112861630600       -0.73885737207620
H           -6.32843408130745        5.10724395341254       -1.20713189896581
H           -5.51752391388896        5.61858677188004        0.28372047506433
H           -7.19163507234871        6.07241164210451       -0.01520040460139
H           -7.56461591156417        3.49043382682006        2.59057853846804
H           -7.83385490484075        5.17784870015421        2.16240990868335
H           -6.20007736619910        4.60211102102188        2.50660462709115
H           -8.72734403663383        2.74890258502161        0.44050321165953
H           -8.16072049715837        3.35745871855750       -1.11318122414514
H           -9.00412879576731        4.43343308720300        0.00485002810656
H           -7.20725842621334        1.50571368572406        1.57279094765707
H           -5.69289259704806       -0.38770162377835        1.41620766135717
H           -2.41104380764684       -2.68291644717826        1.21557551750136
H           -3.31280045102898       -4.91944472431834        0.92318338205546

          :  Hamiltonian                  GFN2-xTB          :
         :: gradient norm              0.000050335459 Eh/a0 ::
         :: HOMO-LUMO gap              0.867089558225 eV    ::
         :: SCC energy              -155.244321413912 Eh    ::
         :: -> dispersion             -0.138866581771 Eh    ::
         :: repulsion energy           2.793908793245 Eh    ::

    * Orbital Energies and Occupations

         #    Occupation            Energy/Eh            Energy/eV
      -------------------------------------------------------------
         1        2.0000           -0.6882128             -18.7272
       ...           ...                  ...                  ...
       130        2.0000           -0.4188181             -11.3966
       131        2.0000           -0.4160602             -11.3216
       132        2.0000           -0.4155130             -11.3067
       133        2.0000           -0.4126369             -11.2284
       134        2.0000           -0.4102639             -11.1638
       135        2.0000           -0.4058419             -11.0435
       136        2.0000           -0.4044806             -11.0065
       137        2.0000           -0.4034362             -10.9781
       138        2.0000           -0.3980770             -10.8322
       139        2.0000           -0.3978128             -10.8250
       140        2.0000           -0.3777341             -10.2787
       141        2.0000           -0.3631087              -9.8807
       142        2.0000           -0.3497766              -9.5179 (HOMO)
       143        0.0000           -0.3179117              -8.6508 (LUMO)
       144                         -0.2977776              -8.1029
       145                         -0.2761375              -7.5141
       146                         -0.2672955              -7.2735
       147                         -0.2632443              -7.1632
       148                         -0.2557455              -6.9592
       149                         -0.2434359              -6.6242
       150                         -0.2328255              -6.3355
       151                         -0.2310325              -6.2867
       152                         -0.2288478              -6.2273
       153                         -0.2231911              -6.0733
       ...                                ...                  ...
       278                          1.1658670              31.7249
      -------------------------------------------------------------
                  HL-Gap            0.0318650 Eh            0.8671 eV

     #   Z          covCN         q      C6AA      α(0)
     1   6 C        3.762    -0.106    22.563     6.771
     2   6 C        3.903     0.026    20.084     6.370
     3   6 C        3.762    -0.106    22.563     6.771
     4   6 C        3.761    -0.108    22.605     6.778
     5   6 C        2.973     0.002    27.975     8.676
     6   6 C        2.925    -0.039    28.979     8.828
     7   6 C        2.921    -0.050    29.230     8.866
     8   6 C        2.924     0.060    26.658     8.467
     9   7 N        2.752    -0.070    22.603     7.061
    10   6 C        2.926     0.069    26.458     8.435
    11   6 C        2.920    -0.049    29.208     8.863
    12   6 C        2.924    -0.033    28.829     8.805
    13   6 C        2.978    -0.002    28.063     8.690
    14   6 C        2.976     0.013    27.711     8.635
    15   6 C        2.922    -0.049    29.205     8.862
    16   6 C        2.965     0.082    26.158     8.389
    17   7 N        1.849    -0.239    27.096     7.715
    18   6 C        2.963     0.082    26.166     8.390
    19   6 C        2.988     0.006    27.886     8.662
    20   6 C        2.923    -0.024    28.613     8.772
    21   6 C        2.923    -0.020    28.512     8.756
    22   6 C        2.972     0.022    27.511     8.604
    23   6 C        1.913     0.112    28.330     8.596
    24   7 N        0.911    -0.226    25.943     7.367
    25   6 C        2.931    -0.025    28.627     8.775
    26   6 C        2.975     0.009    27.821     8.652
    27   6 C        2.975     0.008    27.827     8.653
    28   6 C        2.931    -0.025    28.626     8.774
    29   6 C        2.972     0.022    27.517     8.604
    30   6 C        1.913     0.112    28.332     8.596
    31   7 N        0.911    -0.226    25.950     7.368
    32   6 C        2.923    -0.020    28.513     8.757
    33   6 C        2.923    -0.025    28.617     8.773
    34   6 C        2.988     0.006    27.886     8.662
    35   6 C        2.963     0.081    26.190     8.394
    36   7 N        1.849    -0.239    27.092     7.714
    37   6 C        2.966     0.082    26.162     8.390
    38   6 C        2.922    -0.047    29.159     8.855
    39   6 C        2.975     0.010    27.798     8.648
    40   6 C        2.974     0.006    27.894     8.663
    41   6 C        2.933    -0.016    28.408     8.741
    42   6 C        2.912    -0.038    28.949     8.823
    43   6 C        2.914     0.059    26.681     8.470
    44   7 N        1.835    -0.217    26.558     7.637
    45   6 C        2.917     0.061    26.640     8.464
    46   6 C        2.923    -0.031    28.764     8.795
    47   6 C        2.922    -0.048    29.189     8.860
    48   6 C        2.926     0.059    26.670     8.469
    49   6 C        2.921    -0.050    29.244     8.868
    50   6 C        2.925    -0.039    28.971     8.827
    51   6 C        2.972     0.002    27.975     8.676
    52   6 C        3.903     0.026    20.085     6.370
    53   6 C        3.761    -0.108    22.605     6.778
    54   6 C        3.762    -0.105    22.560     6.771
    55   6 C        3.762    -0.106    22.564     6.771
    56   6 C        2.927    -0.036    28.889     8.814
    57   6 C        2.921    -0.049    29.224     8.865
    58   6 C        2.921    -0.050    29.241     8.868
    59   6 C        2.927    -0.035    28.882     8.813
    60   1 H        0.925     0.038     2.482     2.464
    61   1 H        0.925     0.033     2.537     2.491
    62   1 H        0.925     0.036     2.499     2.472
    63   1 H        0.925     0.038     2.482     2.464
    64   1 H        0.925     0.034     2.536     2.490
    65   1 H        0.925     0.036     2.499     2.472
    66   1 H        0.925     0.037     2.494     2.470
    67   1 H        0.925     0.036     2.505     2.475
    68   1 H        0.925     0.036     2.504     2.474
    69   1 H        0.926     0.039     2.466     2.456
    70   1 H        0.926     0.031     2.565     2.505
    71   1 H        0.926     0.037     2.483     2.464
    72   1 H        0.926     0.035     2.516     2.480
    73   1 H        0.926     0.055     2.255     2.348
    74   1 H        0.926     0.068     2.104     2.268
    75   1 H        0.926     0.048     2.347     2.396
    76   1 H        0.926     0.046     2.364     2.404
    77   1 H        0.926     0.046     2.365     2.405
    78   1 H        0.926     0.048     2.350     2.397
    79   1 H        0.926     0.067     2.113     2.273
    80   1 H        0.926     0.053     2.288     2.365
    81   1 H        0.926     0.037     2.482     2.464
    82   1 H        0.926     0.039     2.462     2.454
    83   1 H        0.925     0.041     2.434     2.440
    84   1 H        0.925     0.039     2.468     2.457
    85   1 H        0.926     0.027     2.632     2.537
    86   1 H        0.926     0.035     2.516     2.480
    87   1 H        0.926     0.037     2.492     2.468
    88   1 H        0.926     0.041     2.440     2.443
    89   1 H        0.925     0.037     2.491     2.468
    90   1 H        0.925     0.035     2.516     2.480
    91   1 H        0.925     0.036     2.498     2.472
    92   1 H        0.925     0.036     2.500     2.472
    93   1 H        0.925     0.037     2.485     2.465
    94   1 H        0.925     0.033     2.547     2.496
    95   1 H        0.925     0.036     2.499     2.472
    96   1 H        0.925     0.034     2.529     2.487
    97   1 H        0.925     0.037     2.485     2.465
    98   1 H        0.926     0.031     2.570     2.507
    99   1 H        0.926     0.030     2.585     2.514
   100   1 H        0.926     0.029     2.601     2.522
   101   1 H        0.926     0.031     2.565     2.505

molecular dipole:
                 x           y           z       tot (Debye)
 q only:       -3.447       0.538       0.145
   full:       -3.837       0.839       0.379      10.029

 projected vibrational frequencies (cm⁻¹)
eigval :       -0.00    -0.00    -0.00    -0.00     0.00     0.00
eigval :        6.83     7.62     9.61    19.00    23.05    24.17
eigval :       25.78    29.17    37.31    41.23    44.73    51.78
eigval :       59.44    66.42    71.00    77.68    79.54    86.89
eigval :       93.45    97.34   102.65   110.98   116.84   124.84
eigval :      141.62   146.38   163.26   169.95   171.67   178.41
eigval :      183.48   185.97   194.35   205.26   219.29   222.29
eigval :      230.97   237.39   246.18   256.13   264.32   267.12
eigval :      276.36   285.95   297.46   309.65   314.65   315.30
eigval :      317.26   329.19   343.31   350.17   357.45   361.07
eigval :      364.35   371.98   378.37   383.54   384.02   387.31
eigval :      389.75   390.62   393.11   395.55   415.57   419.47
eigval :      428.09   435.37   441.73   451.37   459.17   466.08
eigval :      467.57   487.17   495.00   501.63   509.18   519.25
eigval :      530.02   534.50   541.92   552.31   555.75   561.43
eigval :      575.12   577.85   584.29   594.83   604.61   607.64
eigval :      609.55   611.00   626.22   634.28   643.08   648.00
eigval :      649.33   676.61   686.76   689.36   690.50   694.50
eigval :      703.44   711.02   718.93   720.79   732.85   737.34
eigval :      767.04   769.51   787.97   804.47   813.95   817.94
eigval :      819.22   829.46   831.74   850.33   853.82   860.05
eigval :      868.13   871.10   871.70   873.14   876.53   878.36
eigval :      882.37   904.12   913.87   914.40   915.79   918.70
eigval :      919.99   924.20   924.63   927.66   929.24   929.38
eigval :      931.53   934.31   951.37   952.63   960.41   960.51
eigval :      962.90   963.05   963.26   963.29   967.05   996.52
eigval :     1011.73  1025.90  1028.20  1035.38  1035.60  1035.64
eigval :     1035.83  1048.37  1063.16  1072.46  1096.54  1137.65
eigval :     1142.73  1144.80  1145.61  1145.96  1146.21  1153.78
eigval :     1156.02  1184.03  1190.49  1192.12  1197.20  1200.58
eigval :     1203.21  1210.99  1225.33  1227.82  1227.97  1231.23
eigval :     1234.52  1234.63  1234.94  1241.76  1255.92  1265.78
eigval :     1269.42  1273.10  1277.41  1278.86  1282.67  1282.89
eigval :     1285.85  1292.31  1296.38  1298.46  1315.09  1317.13
eigval :     1322.89  1327.59  1332.32  1334.75  1336.93  1359.35
eigval :     1375.40  1391.98  1395.04  1399.05  1402.87  1405.78
eigval :     1406.01  1409.28  1416.20  1418.82  1420.84  1428.13
eigval :     1429.54  1429.64  1435.68  1444.74  1460.39  1466.77
eigval :     1477.01  1487.09  1489.14  1491.98  1492.04  1492.22
eigval :     1494.69  1494.81  1497.09  1502.67  1502.95  1506.59
eigval :     1506.72  1514.18  1514.58  1519.73  1519.75  1519.80
eigval :     1542.14  1546.98  1549.88  1560.97  1565.72  1570.01
eigval :     1570.71  1574.61  1584.79  1586.43  1600.58  1602.69
eigval :     1606.35  2374.46  2376.05  3022.52  3023.15  3024.06
eigval :     3024.60  3027.52  3027.53  3030.85  3030.96  3031.71
eigval :     3031.97  3036.32  3036.35  3039.17  3039.25  3046.94
eigval :     3046.96  3050.43  3050.44  3061.17  3062.63  3068.84
eigval :     3076.02  3077.10  3077.78  3079.50  3082.97  3083.30
eigval :     3089.67  3090.06  3091.40  3093.15  3093.99  3094.49
eigval :     3094.84  3094.98  3097.46  3100.86  3111.58  3112.90
eigval :     3113.20  3115.00  3117.98

   temp. (K)  partition function   enthalpy   heat capacity  entropy
                                   cal/mol     cal/K/mol   cal/K/mol   J/K/mol
 298.15  VIB  0.986E+25            30863.079    187.686    194.269
         ROT  0.238E+09              888.752      2.981     41.310
         INT  0.235E+34            31751.831    190.667    235.579
         TR   0.204E+29             1481.254      4.968     45.754
         TOT                       33233.0849   195.6355   281.3329  1177.0970

       T/K    H(0)-H(T)+PV         H(T)/Eh          T*S/Eh         G(T)/Eh
   ------------------------------------------------------------------------
    298.15    0.529603E-01    0.844215E+00    0.133670E+00    0.710544E+00
   ------------------------------------------------------------------------

         :::::::::::::::::::::::::::::::::::::::::::::::::::::
         ::                  THERMODYNAMIC                  ::
         :::::::::::::::::::::::::::::::::::::::::::::::::::::
         :: total free energy        -151.739868345159 Eh   ::
         ::.................................................::
         :: total energy             -152.450412620673 Eh   ::
         :: zero point energy           0.791254337361 Eh   ::
         :: G(RRHO) w/o ZPVE           -0.080710061847 Eh   ::
         :: G(RRHO) contrib.            0.710544275515 Eh   ::
         :::::::::::::::::::::::::::::::::::::::::::::::::::::

           -------------------------------------------------
          | TOTAL ENERGY             -152.450412620673 Eh   |
          | TOTAL ENTHALPY           -151.606197991455 Eh   |
          | TOTAL FREE ENERGY        -151.739868345159 Eh   |
          | GRADIENT NORM               0.000050278016 Eh/α |
          | HOMO-LUMO GAP               0.867089585242 eV   |
           -------------------------------------------------

 * finished run on 2025/07/18 at 22:05:18.973
