   * xtb version 6.7.1 (edcfbbe) compiled by 'albert@albert-system' on 2024-07-22

   ID    Z sym.   atoms
    1    6 C      1-10, 12-16, 18-23, 25-35, 37-42, 44-53, 55-64
    2    7 N      11, 17, 36, 54
    3    8 O      24, 43
    4    1 H      65-102

          program call               : xtb data2507/gas/oDTBPZ-DPXZ/oDTBPZ-DPXZ_gas_T1_crest.xyz --gfn 2 --spinpol --tblite --uhf 2 --ohess vtight --parallel 40 --molden --ceasefiles --namespace data2507/gas/oDTBPZ-DPXZ/oDTBPZ-DPXZ_gas_T1_finalOpt
 * total energy  :  -163.4708815 Eh     change       -0.4350960E-07 Eh
 * total energy  :  -163.4709094 Eh     change       -0.2787986E-04 Eh
 * total energy  :  -163.4709161 Eh     change       -0.6733612E-05 Eh
 * total energy  :  -163.4709178 Eh     change       -0.1643046E-05 Eh
 * total energy  :  -163.4709192 Eh     change       -0.1368274E-05 Eh
 * total energy  :  -163.4709204 Eh     change       -0.1224587E-05 Eh
 * total energy  :  -163.4709214 Eh     change       -0.1009128E-05 Eh
 * total energy  :  -163.4709222 Eh     change       -0.7697695E-06 Eh
 * total energy  :  -163.4709229 Eh     change       -0.7152407E-06 Eh
 * total energy  :  -163.4709237 Eh     change       -0.8629536E-06 Eh
 * total energy  :  -163.4709382 Eh     change       -0.2643473E-06 Eh
 * total energy  :  -163.4709384 Eh     change       -0.2696933E-06 Eh
 * total energy  :  -163.4709387 Eh     change       -0.2592936E-06 Eh
 * total energy  :  -163.4709390 Eh     change       -0.2759695E-06 Eh
 * total energy  :  -163.4709391 Eh     change       -0.1688713E-06 Eh
 * total energy  :  -163.4709397 Eh     change       -0.5291006E-06 Eh
 * total energy  :  -163.4709401 Eh     change       -0.3842198E-06 Eh
 * total energy  :  -163.4709403 Eh     change       -0.2820840E-06 Eh
 * total energy  :  -163.4709404 Eh     change       -0.6076141E-07 Eh
   *** GEOMETRY OPTIMIZATION CONVERGED AFTER 43 ITERATIONS ***

 final structure:
================
102
 xtb: 6.7.1 (edcfbbe)
C            6.63867718792689       -2.68246705401582       -2.06492311929629
C            7.56174909778544       -2.34042537073016       -0.93154829761548
C            8.77939698000477       -3.00355700859209       -0.83706752310385
C            9.68116053707456       -2.71816778051421        0.17086385597094
C            9.37165921109896       -1.75114598934494        1.11167798759965
C            8.16663111740366       -1.08168604364870        1.03198947660608
C            7.25206338378871       -1.36167345195990        0.01924119496925
C            5.97881701631444       -0.61740106867974       -0.00874134303535
C            4.77455229288540       -1.31063646140527        0.00963044360464
C            3.54835898894790       -0.65676458813247        0.03083107382486
N            2.38399484986206       -1.31095085344825        0.04352272822020
C            1.22432078879454       -0.66910707764036        0.07016556179360
C           -0.01064143735661       -1.38477821397450        0.09819499425296
C            0.01205943700397       -2.79010065721517        0.08223732335241
C           -1.14633228186459       -3.51712962107522        0.09033362586570
C           -2.37879135128229       -2.84765876281992        0.13739631417403
N           -3.58265774062576       -3.59069460267309        0.13809284754770
C           -3.87208009792592       -4.45762314071393        1.18936000511607
C           -3.05639807471539       -4.55968927791389        2.31082054974270
C           -3.37009254982237       -5.43667055684798        3.33665670649371
C           -4.50741010737748       -6.21735648575140        3.26644281092184
C           -5.34836863144330       -6.10499387640366        2.16958461834873
C           -5.04151446047758       -5.23059835242280        1.14330330483610
O           -5.93194922444697       -5.15065518955542        0.10352413292142
C           -5.65132978673000       -4.26515224739854       -0.90522520003823
C           -6.56961209024945       -4.17818122529189       -1.93558378177071
C           -6.34239923319874       -3.32563621385285       -3.00512080837645
C           -5.18335180100693       -2.57562602052815       -3.04314525720896
C           -4.25957543064375       -2.65787847806152       -2.01377066202716
C           -4.48455533406622       -3.48587456728837       -0.91934495906213
C           -2.42057935090426       -1.47027076009410        0.17175446239820
C           -1.25021583331679       -0.70100636402790        0.13653702672840
C           -1.26418636302289        0.73991503391723        0.12390752461554
C           -2.44950542580764        1.48655764237842        0.13484310677543
C           -2.43412203545004        2.86374531541820        0.07815695047899
N           -3.65291253343797        3.58186798406761        0.05089173746838
C           -4.53601589298925        3.44268209813267       -1.01823277668476
C           -4.27422528543719        2.60781366790607       -2.09919223650189
C           -5.17991818066443        2.49111984535843       -3.14119366493700
C           -6.35746257319122        3.21270992432181       -3.12931878892291
C           -6.62184078928924        4.07149453708673       -2.07341046680250
C           -5.72168777126433        4.19294911296817       -1.03059739026605
O           -6.03920713081550        5.08229031294153       -0.03636217689133
C           -5.16432627956292        5.19961044161315        1.01300940239135
C           -5.50589470151764        6.08087411702876        2.02230722420132
C           -4.68189103945333        6.23039360871473        3.12755459364906
C           -3.52613479605887        5.48002272563737        3.22314732259821
C           -3.17769607223600        4.59623530253662        2.21452889375164
C           -3.97669399714432        4.45684386987281        1.08509889271581
C           -1.21454626336195        3.55655645557243        0.03387966779356
C           -0.04218952346209        2.85231429673968        0.04688429128713
C           -0.03771945301603        1.44705292594429        0.08278201709772
C            1.21053386519058        0.75501105421539        0.06788597336690
N            2.35874211150660        1.41845407954530        0.04919792584554
C            3.53425339747636        0.78669134056772        0.03898619441732
C            4.75062973095555        1.46063538053274        0.03431802153482
C            5.96394008028559        0.78650947546241        0.00783898499667
C            7.20963099818973        1.58223161803781        0.03390370745975
C            7.45287774513219        2.37565007325871        1.15247201308807
C            8.60576565945042        3.12898643775215        1.25438630575283
C            9.52964462705391        3.10551849836496        0.22348169525509
C            9.27890824747620        2.34594326804540       -0.90356184322124
C            8.12383006493946        1.58291630798190       -1.02120492807645
C            7.87856896583513        0.80620389175970       -2.27885972653986
H            7.21231673171930       -2.90248784775150       -2.96370783546720
H            6.05401324937503       -3.57004442698548       -1.82160132402878
H            5.94824951926219       -1.87065297528178       -2.27706774486390
H            9.02332347580743       -3.75531887334519       -1.57521523214611
H           10.62179013416676       -3.24683008691984        0.22049413706209
H           10.06647997342792       -1.51908363670162        1.90509076190561
H            7.91799623098011       -0.33638006091462        1.77252125874869
H            4.77183086232033       -2.38908293309245        0.03818884368902
H            0.97477704908423       -3.27637013464106        0.04824169220854
H           -1.12840342217511       -4.59603306936054        0.05666531237297
H           -2.17330412075123       -3.94465792361265        2.38268693418199
H           -2.71689303073549       -5.50072012478099        4.19314087126748
H           -4.75203105199847       -6.90450700506318        4.06080790359241
H           -6.25312376336593       -6.68637153190550        2.09230014644499
H           -7.45470440373650       -4.79171161870972       -1.88311957060559
H           -7.06545691144169       -3.26148861615628       -3.80263926579965
H           -4.98492453644161       -1.92040416159071       -3.87720343519387
H           -3.35053106913603       -2.07995215197867       -2.06547995718902
H           -3.38776944157231       -0.99527081323118        0.22202491120609
H           -3.40794897886689        0.99362195531748        0.18024286110061
H           -3.35070242729172        2.05175763623533       -2.13018015382619
H           -4.95270224594679        1.83179003363329       -3.96461067162803
H           -7.06645157433396        3.12171391736990       -3.93680281988645
H           -7.52252303193358        4.66335942640096       -2.04136129850204
H           -6.42393568631223        6.63796924894793        1.92533694134888
H           -4.95373340920546        6.92255438579934        3.90860771843555
H           -2.88546193625496        5.57336506549113        4.08636940658887
H           -2.28033052453275        4.00494505742041        2.30611752174825
H           -1.21718875452238        4.63495394656271       -0.01638389409302
H            0.91109373377146        3.35682832081453        0.01272104785436
H            4.73544639828718        2.54025929882702        0.03985911670875
H            6.72842052793792        2.38167385961083        1.95530594253823
H            8.78363044323719        3.73105824036117        2.13341097149633
H           10.43750291154147        3.68665065746228        0.29331151355200
H            9.99053916361573        2.34526304364897       -1.71742523096115
H            8.37740404932771       -0.16140507668959       -2.22683722121776
H            8.27523060519933        1.34392685938291       -3.13792863718348
H            6.81561655744754        0.63435661727057       -2.43052073811155

 projected vibrational frequencies (cm⁻¹)
eigval :       -0.00    -0.00     0.00     0.00     0.00     0.00
eigval :        8.56     9.78    12.54    13.39    16.38    22.39
eigval :       32.13    33.88    38.89    40.09    42.70    46.26
eigval :       55.81    65.27    77.87    83.30    86.47    94.17
eigval :      105.90   107.15   114.52   121.16   127.60   135.77
eigval :      140.10   147.11   150.84   166.19   171.32   180.52
eigval :      197.28   211.74   227.04   233.97   237.27   239.97
eigval :      247.86   249.41   264.66   267.09   267.34   286.10
eigval :      287.81   292.10   302.95   310.33   342.80   357.08
eigval :      359.89   373.81   381.61   386.98   392.16   396.59
eigval :      399.35   417.20   419.61   419.63   425.54   429.61
eigval :      429.77   434.76   439.40   441.54   443.85   450.66
eigval :      458.00   476.48   479.00   497.05   507.27   507.59
eigval :      507.89   514.37   518.18   520.55   524.87   526.04
eigval :      542.12   548.57   566.11   568.03   569.72   577.76
eigval :      582.49   588.23   597.37   614.23   618.41   618.54
eigval :      622.10   637.80   649.48   652.47   661.84   662.59
eigval :      663.83   664.16   669.86   676.78   682.47   688.82
eigval :      692.24   698.05   701.04   712.49   720.24   723.71
eigval :      765.31   776.76   777.31   778.17   778.54   778.71
eigval :      778.88   801.48   810.87   811.56   823.50   824.47
eigval :      826.80   829.20   838.30   854.32   855.30   855.54
eigval :      858.88   863.07   866.08   866.26   871.61   883.28
eigval :      884.32   885.38   897.30   897.70   898.13   898.93
eigval :      900.23   914.24   914.77   914.78   916.10   916.96
eigval :      917.02   917.58   917.69   920.66   920.85   927.63
eigval :      927.88   928.25   957.17  1000.15  1003.25  1005.74
eigval :     1031.59  1032.77  1039.39  1040.82  1064.19  1088.96
eigval :     1089.06  1090.10  1090.62  1101.20  1103.75  1109.71
eigval :     1109.99  1118.91  1124.23  1130.10  1141.23  1145.93
eigval :     1147.43  1169.13  1169.65  1174.84  1175.78  1182.87
eigval :     1183.40  1183.83  1186.23  1196.47  1203.09  1203.78
eigval :     1206.25  1211.30  1216.49  1218.27  1228.85  1230.31
eigval :     1241.05  1242.26  1244.50  1247.50  1253.34  1254.55
eigval :     1259.30  1260.32  1265.76  1268.45  1275.24  1284.21
eigval :     1293.76  1305.81  1309.25  1311.66  1312.88  1316.55
eigval :     1318.28  1323.93  1334.10  1335.09  1343.91  1346.75
eigval :     1350.41  1362.92  1379.43  1401.10  1402.01  1402.86
eigval :     1406.44  1414.57  1421.31  1422.68  1423.23  1435.20
eigval :     1438.40  1443.04  1444.10  1460.63  1468.71  1474.23
eigval :     1476.20  1477.44  1479.02  1482.45  1484.15  1487.86
eigval :     1489.07  1491.27  1493.24  1494.50  1508.81  1515.92
eigval :     1532.33  1540.31  1564.20  1564.31  1570.41  1575.10
eigval :     1575.37  1578.57  1580.85  1581.55  1584.61  1586.30
eigval :     1596.61  1597.68  1599.38  1600.63  2995.47  3005.16
eigval :     3023.82  3027.22  3038.46  3048.61  3065.39  3066.28
eigval :     3068.06  3076.44  3077.80  3085.68  3087.23  3088.16
eigval :     3088.31  3088.78  3090.36  3090.99  3091.14  3091.19
eigval :     3095.14  3095.38  3097.58  3100.55  3100.61  3100.68
eigval :     3100.92  3101.61  3101.80  3106.20  3107.76  3107.98
eigval :     3108.09  3108.76  3113.58  3113.62  3113.85  3114.13

   temp. (K)  partition function   enthalpy   heat capacity  entropy
                                   cal/mol     cal/K/mol   cal/K/mol   J/K/mol
 298.15  VIB  0.116E+25            30207.653    189.883    188.126
         ROT  0.239E+09              888.752      2.981     41.320
         INT  0.277E+33            31096.406    192.864    229.446
         TR   0.228E+29             1481.254      4.968     45.980
         TOT                       32577.6597   197.8317   275.4258  1152.3816

       T/K    H(0)-H(T)+PV         H(T)/Eh          T*S/Eh         G(T)/Eh
   ------------------------------------------------------------------------
    298.15    0.519158E-01    0.826059E+00    0.130864E+00    0.695196E+00
   ------------------------------------------------------------------------

         :::::::::::::::::::::::::::::::::::::::::::::::::::::
         ::                  THERMODYNAMIC                  ::
         :::::::::::::::::::::::::::::::::::::::::::::::::::::
         :: total free energy        -162.775744740952 Eh   ::
         ::.................................................::
         :: total energy             -163.470940332494 Eh   ::
         :: zero point energy           0.774143475266 Eh   ::
         :: G(RRHO) w/o ZPVE           -0.078947883724 Eh   ::
         :: G(RRHO) contrib.            0.695195591542 Eh   ::
         :::::::::::::::::::::::::::::::::::::::::::::::::::::

           -------------------------------------------------
          | TOTAL ENERGY             -163.470940332494 Eh   |
          | TOTAL ENTHALPY           -162.644881051960 Eh   |
          | TOTAL FREE ENERGY        -162.775744740952 Eh   |
          | GRADIENT NORM               0.000082234612 Eh/α |
           -------------------------------------------------

 * finished run on 2025/07/17 at 18:03:30.654
