   * xtb version 6.7.1 (edcfbbe) compiled by 'albert@albert-system' on 2024-07-22

   ID    Z sym.   atoms
    1    6 C      1-10, 12-16, 18-23, 25-35, 37-42, 44-53, 55-64
    2    7 N      11, 17, 36, 54
    3    8 O      24, 43
    4    1 H      65-102

          program call               : xtb data2507/gas/oDTBPZ-DPXZ/oDTBPZ-DPXZ.xyz --gfn 2 --ohess vtight --parallel 40 --molden --ceasefiles --namespace data2507/gas/oDTBPZ-DPXZ/oDTBPZ-DPXZ_gas_S0_preOpt
          :  Hamiltonian                  GFN2-xTB          :
 * total energy  :  -163.4765561 Eh     change       -0.3408076E-08 Eh
 * total energy  :  -163.4965273 Eh     change       -0.1997111E-01 Eh
 * total energy  :  -163.5029945 Eh     change       -0.6467284E-02 Eh
 * total energy  :  -163.5050463 Eh     change       -0.2051745E-02 Eh
 * total energy  :  -163.5066370 Eh     change       -0.1590704E-02 Eh
 * total energy  :  -163.5074000 Eh     change       -0.7630106E-03 Eh
 * total energy  :  -163.5077300 Eh     change       -0.3300355E-03 Eh
 * total energy  :  -163.5078699 Eh     change       -0.1399120E-03 Eh
 * total energy  :  -163.5080219 Eh     change       -0.1519161E-03 Eh
 * total energy  :  -163.5082502 Eh     change       -0.2283227E-03 Eh
 * total energy  :  -163.5123870 Eh     change       -0.1060721E-05 Eh
 * total energy  :  -163.5123881 Eh     change       -0.1056121E-05 Eh
 * total energy  :  -163.5123891 Eh     change       -0.1063761E-05 Eh
 * total energy  :  -163.5123902 Eh     change       -0.1062339E-05 Eh
 * total energy  :  -163.5123912 Eh     change       -0.1072806E-05 Eh
 * total energy  :  -163.5123923 Eh     change       -0.1072101E-05 Eh
 * total energy  :  -163.5123934 Eh     change       -0.1081744E-05 Eh
 * total energy  :  -163.5123945 Eh     change       -0.1078931E-05 Eh
 * total energy  :  -163.5123945 Eh     change       -0.6575192E-08 Eh
   *** GEOMETRY OPTIMIZATION CONVERGED AFTER 221 ITERATIONS ***

 final structure:
================
102
 xtb: 6.7.1 (edcfbbe)
C            7.50633296104362       -0.86640539664519       -1.91913758371305
C            7.72442086529665       -1.63406240384967       -0.65087307015957
C            8.88365134768980       -2.38405592013450       -0.49559033479314
C            9.10967315257411       -3.13337501016675        0.64342508876391
C            8.15708646887860       -3.16090800596095        1.64778213530343
C            6.99913755850151       -2.42140615563498        1.50819527315289
C            6.78140312847452       -1.63793627451085        0.37774781607591
C            5.52771723934385       -0.85554699771557        0.30870755180090
C            4.33128446855712       -1.52392994086979        0.27614046208648
C            3.11062592496507       -0.82281162752668        0.23276513857472
N            1.95057067611147       -1.49225225634864        0.19441593510268
C            0.83344547752080       -0.78887230709655        0.16340435960207
C           -0.43116567424942       -1.48614434198843        0.12258971575993
C           -0.44589749281143       -2.88434337743743        0.08866361768806
C           -1.62876503401728       -3.57887008966607        0.03591829732478
C           -2.83727009706500       -2.87616053526109        0.03191489692626
N           -4.06135932125511       -3.57175442370779       -0.03042885382272
C           -4.41708650767346       -4.46991197636611        0.97934878442078
C           -3.63948815460872       -4.65386109356567        2.11586854158130
C           -4.02123635413576       -5.55305104973987        3.09990694982042
C           -5.19148811735978       -6.27300556261485        2.97184484515209
C           -5.99728429861320       -6.07434061185865        1.86045755508157
C           -5.62183174657665       -5.17795777587846        0.87738907870145
O           -6.48717687660006       -5.01044193260396       -0.17474788585172
C           -6.14525864587054       -4.09198461983091       -1.13573012123874
C           -7.04028980555865       -3.91422615010634       -2.17424852072420
C           -6.75372621842728       -3.02980409972357       -3.20343924720688
C           -5.55726213795559       -2.34278944777087       -3.19354827535495
C           -4.65652725287820       -2.51680288146808       -2.15387897035174
C           -4.94316418242073       -3.37215082351798       -1.09688755461360
C           -2.83390631475777       -1.49233390669449        0.07976031216045
C           -1.64191022452225       -0.76581462768109        0.11175338929919
C           -1.62022188138432        0.68992786238895        0.11759024642040
C           -2.79013601159605        1.45171017707156        0.09125554167405
C           -2.75260153787791        2.83535308361756        0.05445703397289
N           -3.95561264295517        3.56725441134936       -0.00263072637862
C           -4.84325187050032        3.40064539057840       -1.06993097430926
C           -4.58070170850441        2.54657717609769       -2.13419502930157
C           -5.48650096624740        2.40578228028968       -3.17449344964281
C           -6.66378979410597        3.12522657186417       -3.17768463354414
C           -6.92542751090022        4.00867789888499       -2.14104527834931
C           -6.02519665793855        4.15340897549222       -1.10189290197215
O           -6.34117098298312        5.07303320859063       -0.13316769619026
C           -5.47107375387351        5.20786911655946        0.91975206113321
C           -5.82137922570319        6.10593924047160        1.91052821861465
C           -5.00993311853650        6.27318176087483        3.02298083043555
C           -3.85977428905421        5.52042092853866        3.14420304577822
C           -3.50327106336594        4.61933755251368        2.15244466668296
C           -4.28615693293330        4.46619918121121        1.01498710454698
C           -1.52384685608452        3.50189389541218        0.06434322962103
C           -0.36211927357897        2.77213925241422        0.11182360903687
C           -0.38865623789974        1.37393058336532        0.13438540601344
C            0.85482360118258        0.63908144112839        0.16936616248582
N            1.99246874128531        1.30832652831493        0.20506014989532
C            3.13231243264708        0.60377466985790        0.23707985719955
C            4.37146937679499        1.27063978984526        0.28274014059419
C            5.55074948841845        0.57034284161043        0.31292518881014
C            6.83746491459023        1.28760388315428        0.40898453864136
C            7.68804918607233        0.98865522874748        1.47061083265817
C            8.90043610403003        1.63319338853308        1.61630530320517
C            9.28165988013306        2.59069748280523        0.69222213977764
C            8.44188350641610        2.89581715465214       -0.36219133925184
C            7.21569356482626        2.26087188079365       -0.52176040389478
C            6.35781662445400        2.63052133521187       -1.69649832569701
H            8.00796109325680        0.09956213130850       -1.86434409452283
H            7.91924316423710       -1.41182963246592       -2.76548646750026
H            6.44744822690302       -0.69338796487735       -2.09596792194293
H            9.61779389600097       -2.38087185935236       -1.28892016149362
H           10.02107006378675       -3.70420765443933        0.74295750659425
H            8.31573362312827       -3.75604451466457        2.53487167043262
H            6.25092445204430       -2.43154020010291        2.28876779418853
H            4.30188800676677       -2.60329916873827        0.27284674333804
H            0.50296578106001       -3.39689021997583        0.09107170253789
H           -1.63848071994272       -4.65747078868108       -0.01017408241133
H           -2.73113616469986       -4.08503475160397        2.23808308518504
H           -3.39399649085551       -5.67976930376570        3.96886418539763
H           -5.49050507980810       -6.97733611947801        3.73189508345100
H           -6.92858116275586       -6.60408468083027        1.73919987912069
H           -7.95545851849643       -4.48426797089715       -2.16109847474514
H           -7.45999716308275       -2.89489681069709       -4.00720698434415
H           -5.30873327113130       -1.66641215799911       -3.99680162569832
H           -3.71631252583977       -1.98859518992686       -2.17395052125762
H           -3.78779863919569       -0.98955897844121        0.09135446035730
H           -3.75847208066885        0.97727896851665        0.09857097988623
H           -3.65531921993031        1.99299236563450       -2.15932263486487
H           -5.25705880053035        1.72947870466056       -3.98346525651101
H           -7.37404414208977        3.01617457698373       -3.98186290186381
H           -7.82471986543414        4.60330214488060       -2.12239224431221
H           -6.73791973772175        6.66191344956425        1.79436969502506
H           -5.28921531295950        6.97902848709833        3.78910686332210
H           -3.22886843119098        5.62264014024736        4.01373706345170
H           -2.61082726800555        4.02480609833196        2.26939981333308
H           -1.50161302652242        4.58065729717737        0.02700186151666
H            0.60147123242008        3.25637694632440        0.11907119031513
H            4.36481192430720        2.34900771579062        0.31755597845786
H            7.38315108178724        0.25118220134432        2.19776392928737
H            9.54515238192318        1.38811600113917        2.44692440789258
H           10.22981443037061        3.09800892028689        0.79216875724694
H            8.74084716804628        3.64254860911199       -1.08470275130955
H            5.65941622593125        1.83763593600660       -1.95020100189206
H            6.97956668177905        2.84465190315737       -2.56402331387261
H            5.78253827068441        3.52941482113969       -1.47370408706038

          :  Hamiltonian                  GFN2-xTB          :
         :: gradient norm              0.000066032512 Eh/a0 ::
         :: HOMO-LUMO gap              1.086305159886 eV    ::
         :: SCC energy              -166.424958124905 Eh    ::
         :: -> dispersion             -0.151579085973 Eh    ::
         :: repulsion energy           2.912563635857 Eh    ::

    * Orbital Energies and Occupations

         #    Occupation            Energy/Eh            Energy/eV
      -------------------------------------------------------------
         1        2.0000           -0.7264200             -19.7669
       ...           ...                  ...                  ...
       139        2.0000           -0.4105847             -11.1726
       140        2.0000           -0.4065368             -11.0624
       141        2.0000           -0.4018498             -10.9349
       142        2.0000           -0.4011708             -10.9164
       143        2.0000           -0.3989855             -10.8569
       144        2.0000           -0.3946326             -10.7385
       145        2.0000           -0.3897663             -10.6061
       146        2.0000           -0.3893763             -10.5955
       147        2.0000           -0.3868912             -10.5278
       148        2.0000           -0.3861821             -10.5085
       149        2.0000           -0.3494289              -9.5084
       150        2.0000           -0.3422911              -9.3142
       151        2.0000           -0.3413703              -9.2892 (HOMO)
       152                         -0.3014494              -8.2029 (LUMO)
       153                         -0.2706281              -7.3642
       154                         -0.2613100              -7.1106
       155                         -0.2371340              -6.4527
       156                         -0.2369980              -6.4490
       157                         -0.2367763              -6.4430
       158                         -0.2328777              -6.3369
       159                         -0.2283749              -6.2144
       160                         -0.2281936              -6.2095
       161                         -0.2242750              -6.1028
       162                         -0.2215858              -6.0297
       ...                                ...                  ...
       294                          0.7146443              19.4465
      -------------------------------------------------------------
                  HL-Gap            0.0399210 Eh            1.0863 eV

     #   Z          covCN         q      C6AA      α(0)
     1   6 C        3.758    -0.106    22.576     6.774
     2   6 C        2.968     0.015    27.673     8.629
     3   6 C        2.926    -0.039    28.981     8.828
     4   6 C        2.919    -0.032    28.798     8.800
     5   6 C        2.918    -0.034    28.851     8.808
     6   6 C        2.927    -0.034    28.843     8.807
     7   6 C        2.983     0.004    27.939     8.670
     8   6 C        2.977     0.012    27.738     8.639
     9   6 C        2.923    -0.049    29.212     8.863
    10   6 C        2.966     0.079    26.234     8.401
    11   7 N        1.848    -0.243    27.206     7.730
    12   6 C        2.963     0.082    26.177     8.392
    13   6 C        2.988    -0.005    28.127     8.700
    14   6 C        2.923    -0.028    28.701     8.785
    15   6 C        2.918    -0.041    29.021     8.834
    16   6 C        2.919     0.067    26.508     8.443
    17   7 N        2.752    -0.070    22.600     7.061
    18   6 C        2.922     0.042    27.047     8.529
    19   6 C        2.924    -0.060    29.483     8.904
    20   6 C        2.919    -0.039    28.961     8.825
    21   6 C        2.919    -0.040    28.996     8.830
    22   6 C        2.920    -0.056    29.397     8.891
    23   6 C        2.884     0.125    25.264     8.240
    24   8 O        1.709    -0.255    18.225     5.764
    25   6 C        2.884     0.125    25.262     8.240
    26   6 C        2.920    -0.056    29.395     8.891
    27   6 C        2.919    -0.040    28.995     8.830
    28   6 C        2.919    -0.038    28.954     8.824
    29   6 C        2.924    -0.060    29.497     8.907
    30   6 C        2.921     0.042    27.054     8.530
    31   6 C        2.926    -0.048    29.190     8.860
    32   6 C        2.977     0.007    27.870     8.660
    33   6 C        2.977     0.007    27.869     8.659
    34   6 C        2.926    -0.048    29.190     8.860
    35   6 C        2.919     0.067    26.509     8.443
    36   7 N        2.752    -0.070    22.601     7.061
    37   6 C        2.921     0.042    27.055     8.530
    38   6 C        2.924    -0.060    29.497     8.907
    39   6 C        2.919    -0.038    28.954     8.824
    40   6 C        2.919    -0.040    28.995     8.830
    41   6 C        2.920    -0.056    29.395     8.891
    42   6 C        2.884     0.125    25.262     8.240
    43   8 O        1.709    -0.255    18.226     5.764
    44   6 C        2.884     0.125    25.264     8.240
    45   6 C        2.920    -0.056    29.398     8.891
    46   6 C        2.919    -0.040    28.996     8.830
    47   6 C        2.919    -0.039    28.961     8.825
    48   6 C        2.924    -0.060    29.484     8.905
    49   6 C        2.922     0.042    27.047     8.529
    50   6 C        2.918    -0.041    29.024     8.835
    51   6 C        2.923    -0.028    28.704     8.786
    52   6 C        2.988    -0.005    28.129     8.700
    53   6 C        2.962     0.082    26.179     8.392
    54   7 N        1.848    -0.244    27.220     7.732
    55   6 C        2.966     0.078    26.251     8.404
    56   6 C        2.922    -0.049    29.205     8.862
    57   6 C        2.975     0.013    27.717     8.636
    58   6 C        2.980     0.004    27.926     8.668
    59   6 C        2.926    -0.032    28.804     8.801
    60   6 C        2.919    -0.034    28.847     8.807
    61   6 C        2.918    -0.032    28.797     8.800
    62   6 C        2.926    -0.041    29.027     8.836
    63   6 C        2.968     0.014    27.697     8.632
    64   6 C        3.758    -0.107    22.602     6.778
    65   1 H        0.925     0.050     2.318     2.381
    66   1 H        0.925     0.043     2.408     2.427
    67   1 H        0.925     0.038     2.472     2.459
    68   1 H        0.926     0.031     2.572     2.508
    69   1 H        0.926     0.030     2.583     2.513
    70   1 H        0.926     0.030     2.581     2.512
    71   1 H        0.925     0.029     2.607     2.525
    72   1 H        0.926     0.050     2.323     2.383
    73   1 H        0.926     0.065     2.137     2.286
    74   1 H        0.926     0.045     2.387     2.416
    75   1 H        0.926     0.036     2.507     2.476
    76   1 H        0.926     0.036     2.502     2.473
    77   1 H        0.926     0.038     2.477     2.461
    78   1 H        0.926     0.050     2.317     2.381
    79   1 H        0.926     0.050     2.315     2.379
    80   1 H        0.926     0.038     2.475     2.460
    81   1 H        0.926     0.035     2.515     2.480
    82   1 H        0.926     0.035     2.519     2.482
    83   1 H        0.926     0.044     2.390     2.417
    84   1 H        0.926     0.045     2.389     2.417
    85   1 H        0.926     0.035     2.519     2.482
    86   1 H        0.926     0.035     2.514     2.480
    87   1 H        0.926     0.038     2.475     2.460
    88   1 H        0.926     0.050     2.315     2.379
    89   1 H        0.926     0.050     2.317     2.380
    90   1 H        0.926     0.038     2.477     2.461
    91   1 H        0.926     0.036     2.502     2.474
    92   1 H        0.926     0.036     2.507     2.476
    93   1 H        0.926     0.044     2.390     2.418
    94   1 H        0.926     0.065     2.143     2.289
    95   1 H        0.926     0.053     2.286     2.365
    96   1 H        0.926     0.031     2.577     2.511
    97   1 H        0.926     0.030     2.587     2.515
    98   1 H        0.926     0.030     2.583     2.513
    99   1 H        0.926     0.031     2.577     2.511
   100   1 H        0.925     0.043     2.416     2.431
   101   1 H        0.925     0.042     2.418     2.432
   102   1 H        0.924     0.048     2.344     2.394

molecular dipole:
                 x           y           z       tot (Debye)
 q only:        1.070       0.160      -0.238
   full:        1.170       0.166      -0.209       3.051

 projected vibrational frequencies (cm⁻¹)
eigval :       -0.00    -0.00    -0.00     0.00     0.00     0.00
eigval :        7.47    10.50    12.55    13.12    15.75    21.71
eigval :       32.70    33.68    38.17    38.90    41.09    45.57
eigval :       54.36    66.22    75.84    84.43    86.76    95.99
eigval :      103.49   104.63   115.76   120.03   131.43   134.23
eigval :      139.90   149.09   150.45   166.82   172.58   188.82
eigval :      198.84   213.24   226.16   232.43   238.07   243.04
eigval :      248.63   251.10   263.57   267.99   269.39   284.78
eigval :      286.55   292.76   304.79   322.07   351.83   356.77
eigval :      365.39   375.02   382.12   390.14   392.00   396.61
eigval :      399.92   417.10   420.58   423.28   426.34   430.13
eigval :      431.52   440.03   441.35   442.78   447.69   450.56
eigval :      457.11   467.34   479.26   495.26   508.63   509.82
eigval :      510.25   516.17   519.32   520.98   525.22   525.53
eigval :      543.18   548.87   568.88   571.95   573.35   578.63
eigval :      582.67   591.89   601.59   615.90   619.83   624.93
eigval :      646.02   648.33   653.30   659.79   661.15   661.62
eigval :      661.97   670.98   674.44   691.61   693.42   694.33
eigval :      700.75   707.09   721.64   735.08   742.20   766.04
eigval :      768.81   776.71   778.20   779.00   779.15   779.18
eigval :      779.40   803.71   811.39   812.66   824.33   834.27
eigval :      835.75   855.23   855.42   855.51   859.24   860.92
eigval :      863.38   867.32   867.59   876.04   884.63   885.71
eigval :      887.53   887.80   897.37   897.89   898.60   901.30
eigval :      906.35   913.39   914.75   914.78   916.42   917.56
eigval :      918.00   918.17   918.57   928.69   928.91   930.99
eigval :      931.23   932.71   977.26  1003.63  1004.12  1005.85
eigval :     1029.11  1032.27  1033.90  1049.46  1065.14  1090.69
eigval :     1090.83  1091.58  1092.41  1101.11  1103.97  1108.53
eigval :     1108.87  1120.19  1125.14  1130.96  1139.63  1146.28
eigval :     1146.57  1170.18  1170.70  1174.95  1176.19  1182.61
eigval :     1183.81  1184.57  1187.16  1195.57  1201.53  1202.55
eigval :     1206.90  1212.87  1214.48  1217.95  1230.88  1232.27
eigval :     1242.26  1244.03  1244.23  1256.32  1262.15  1262.38
eigval :     1264.14  1268.39  1271.78  1278.71  1280.60  1281.92
eigval :     1309.55  1309.87  1311.52  1315.09  1316.72  1318.87
eigval :     1322.29  1329.54  1339.10  1343.30  1350.77  1355.98
eigval :     1358.80  1382.54  1402.29  1402.35  1407.18  1415.27
eigval :     1422.42  1423.69  1425.44  1434.21  1436.33  1441.16
eigval :     1444.65  1445.20  1454.25  1469.55  1477.02  1480.92
eigval :     1481.94  1483.36  1486.63  1489.38  1489.61  1492.41
eigval :     1494.48  1497.77  1504.33  1504.35  1523.15  1544.14
eigval :     1552.75  1567.35  1567.45  1578.13  1578.30  1580.66
eigval :     1581.03  1582.02  1586.48  1590.50  1591.69  1594.41
eigval :     1600.04  1601.45  1603.46  1603.47  2998.13  3006.62
eigval :     3026.14  3029.40  3038.86  3048.97  3068.33  3068.93
eigval :     3071.17  3079.59  3081.09  3088.09  3088.64  3088.99
eigval :     3089.02  3089.51  3091.10  3091.30  3091.42  3091.99
eigval :     3097.26  3098.75  3098.92  3098.96  3099.40  3100.61
eigval :     3100.88  3105.63  3106.07  3106.45  3106.70  3111.98
eigval :     3112.09  3112.29  3112.90  3112.97  3113.46  3113.61

   temp. (K)  partition function   enthalpy   heat capacity  entropy
                                   cal/mol     cal/K/mol   cal/K/mol   J/K/mol
 298.15  VIB  0.126E+25            30066.161    188.723    187.445
         ROT  0.237E+09              888.752      2.981     41.300
         INT  0.299E+33            30954.914    191.704    228.745
         TR   0.228E+29             1481.254      4.968     45.980
         TOT                       32436.1676   196.6724   274.7251  1149.4500

       T/K    H(0)-H(T)+PV         H(T)/Eh          T*S/Eh         G(T)/Eh
   ------------------------------------------------------------------------
    298.15    0.516903E-01    0.828340E+00    0.130531E+00    0.697810E+00
   ------------------------------------------------------------------------

         :::::::::::::::::::::::::::::::::::::::::::::::::::::
         ::                  THERMODYNAMIC                  ::
         :::::::::::::::::::::::::::::::::::::::::::::::::::::
         :: total free energy        -162.814584948665 Eh   ::
         ::.................................................::
         :: total energy             -163.512394489051 Eh   ::
         :: zero point energy           0.776649992181 Eh   ::
         :: G(RRHO) w/o ZPVE           -0.078840451795 Eh   ::
         :: G(RRHO) contrib.            0.697809540386 Eh   ::
         :::::::::::::::::::::::::::::::::::::::::::::::::::::

           -------------------------------------------------
          | TOTAL ENERGY             -163.512394489051 Eh   |
          | TOTAL ENTHALPY           -162.684054173549 Eh   |
          | TOTAL FREE ENERGY        -162.814584948665 Eh   |
          | GRADIENT NORM               0.000066032600 Eh/α |
          | HOMO-LUMO GAP               1.086305027468 eV   |
           -------------------------------------------------

 * finished run on 2025/07/17 at 17:47:17.896
