   * xtb version 6.7.1 (edcfbbe) compiled by 'albert@albert-system' on 2024-07-22

   ID    Z sym.   atoms
    1    6 C      1-10, 12-16, 18-23, 25-35, 37-42, 44-53, 55-64
    2    7 N      11, 17, 36, 54
    3    8 O      24, 43
    4    1 H      65-102

          program call               : xtb data2507/gas/oDTBPZ-DPXZ/oDTBPZ-DPXZ_gas_S0_finalOpt.xtbopt.xyz --gfn 2 --spinpol --tblite --uhf 2 --ohess vtight --parallel 40 --molden --ceasefiles --namespace data2507/gas/oDTBPZ-DPXZ/oDTBPZ-DPXZ_gas_T1_preOpt
 * total energy  :  -163.4669053 Eh     change       -0.3471033E-07 Eh
 * total energy  :  -163.4696861 Eh     change       -0.2780807E-02 Eh
 * total energy  :  -163.4705941 Eh     change       -0.9080364E-03 Eh
 * total energy  :  -163.4707109 Eh     change       -0.1167439E-03 Eh
 * total energy  :  -163.4707616 Eh     change       -0.5071901E-04 Eh
 * total energy  :  -163.4707696 Eh     change       -0.8028937E-05 Eh
 * total energy  :  -163.4707778 Eh     change       -0.8246945E-05 Eh
 * total energy  :  -163.4707877 Eh     change       -0.9893684E-05 Eh
 * total energy  :  -163.4707982 Eh     change       -0.1050093E-04 Eh
 * total energy  :  -163.4708114 Eh     change       -0.1319964E-04 Eh
 * total energy  :  -163.4709349 Eh     change       -0.2329590E-06 Eh
 * total energy  :  -163.4709351 Eh     change       -0.1934061E-06 Eh
 * total energy  :  -163.4709352 Eh     change       -0.1783597E-06 Eh
 * total energy  :  -163.4709354 Eh     change       -0.1832387E-06 Eh
 * total energy  :  -163.4709356 Eh     change       -0.1981975E-06 Eh
 * total energy  :  -163.4709358 Eh     change       -0.1924742E-06 Eh
 * total energy  :  -163.4709359 Eh     change       -0.1104750E-06 Eh
 * total energy  :  -163.4709361 Eh     change       -0.1843401E-06 Eh
 * total energy  :  -163.4709362 Eh     change       -0.8327049E-07 Eh
   *** GEOMETRY OPTIMIZATION CONVERGED AFTER 67 ITERATIONS ***

 final structure:
================
102
 xtb: 6.7.1 (edcfbbe)
C            6.62836199790490       -2.71468267689188       -2.06407007381252
C            7.55769353654374       -2.35865360689956       -0.94016539210930
C            8.77570518333344       -3.02088047683833       -0.84401982677161
C            9.68303963599830       -2.72321003826794        0.15532634037608
C            9.37886696724653       -1.74447398323200        1.08569801394466
C            8.17355341932521       -1.07577241823843        1.00422264206806
C            7.25338691323030       -1.36801561866618        0.00000036854220
C            5.98031865844394       -0.62354802208249       -0.02968528511589
C            4.77567332201482       -1.31572074736727        0.00213426201421
C            3.55000598888493       -0.66089096270067        0.02404979025255
N            2.38515888973884       -1.31388918382601        0.04759064599296
C            1.22607738080945       -0.67103860806811        0.07661068717535
C           -0.00953501074739       -1.38530251888749        0.11108767582007
C            0.01026803964830       -2.79058459015242        0.08744453227429
C           -1.14950508985564       -3.51559448107457        0.09358376747035
C           -2.38068395212986       -2.84440516980975        0.15043405218956
N           -3.58685504257589       -3.58307306677279        0.14485541585162
C           -3.87515571430354       -4.46803889783546        1.18155327060130
C           -3.05081931299176       -4.60045992660656        2.29350397534910
C           -3.36298919254599       -5.49607653438503        3.30358907888861
C           -4.50764330425436       -6.26538590617062        3.22753383402703
C           -5.35771622131750       -6.12201248130199        2.14142656015916
C           -5.05236091474287       -5.22886773668628        1.13094730819613
O           -5.95276680046786       -5.11810810191412        0.10268690386461
C           -5.67299969186057       -4.21543555209765       -0.89084560445263
C           -6.60137085337339       -4.09778120164011       -1.90911483649098
C           -6.37586103631875       -3.22740130640726       -2.96447977774294
C           -5.20781908337417       -2.49146094673957       -3.00140555803624
C           -4.27414528856689       -2.60431403691395       -1.98398151946983
C           -4.49774027234256       -3.44901378018077       -0.90198600088293
C           -2.41913393941991       -1.46715431002003        0.19675780571594
C           -1.24776968302327       -0.69983135542668        0.15923308605325
C           -1.26023992361399        0.74104382096552        0.14628296799188
C           -2.44464654627730        1.48866244567148        0.16827394674716
C           -2.42955840727631        2.86533152649644        0.09769893223723
N           -3.64822520236635        3.58305813879230        0.07669072071791
C           -4.55308789081689        3.41673045535323       -0.97061537166611
C           -4.31217852729344        2.55753029463569       -2.03739601876018
C           -5.24032280273155        2.41256970598828       -3.05577316262683
C           -6.42015580389330        3.13016846423029       -3.03511693433285
C           -6.66340125352034        4.01438546181959       -1.99533204127562
C           -5.74063840460528        4.16409611011724       -0.97615469765631
O           -6.03843459615894        5.07848269050404        0.00120533550899
C           -5.14309125328047        5.22178854981145        1.02978898929331
C           -5.46586905274130        6.12734434121426        2.02369192031819
C           -4.62143620753003        6.30338904435744        3.10937048858814
C           -3.46463618686073        5.55425476243610        3.20189822022335
C           -3.13498199652657        4.64638176095736        2.20848951732349
C           -3.95384429968629        4.48117076638116        1.09685314906629
C           -1.20991310199961        3.55646776804787        0.03115513868541
C           -0.03787961219741        2.85157877920184        0.03932124191754
C           -0.03376879454934        1.44666623469761        0.08749960243927
C            1.21351928554035        0.75316661527335        0.06653041211045
N            2.36213121609628        1.41530946931270        0.03435911570119
C            3.53700405568325        0.78263179924541        0.02031598292127
C            4.75370983884676        1.45562427051518        0.00083190523877
C            5.96639482811788        0.78047347597585       -0.02745463056822
C            7.21231762768259        1.57619106309956       -0.01912564359115
C            7.46340717252319        2.38262819753569        1.08834643323464
C            8.61648530656292        3.13780938677897        1.17288765317526
C            9.53253750319863        3.10312352331518        0.13533664328516
C            9.27395728680300        2.33030222147140       -0.98087902350107
C            8.11865088233399        1.56511890599725       -1.08095560478345
C            7.86463641501597        0.77349913851658       -2.32753206650293
H            7.19708894230748       -2.94813269764031       -2.96258094784397
H            6.04341874922029       -3.59778478541707       -1.80559047292971
H            5.93825415313473       -1.90464278004836       -2.28392689139177
H            9.01542710808064       -3.78193813745403       -1.57397296261312
H           10.62379152443939       -3.25151129072229        0.20644238916035
H           10.07802390588885       -1.50270846748449        1.87237608055734
H            7.92909724142559       -0.32132128031713        1.73683324221918
H            4.77235421500081       -2.39382942218067        0.04102540369564
H            0.97183581792614       -3.27858030218224        0.04620682714476
H           -1.13331037317660       -4.59415094415971        0.04958943341630
H           -2.16204851285799       -3.99438807714546        2.37086259960977
H           -2.70267863983321       -5.58366450776042        4.15250328786848
H           -4.75102186692481       -6.96717095980330        4.00938209002523
H           -6.26874112776376       -6.69302540454790        2.06057612224241
H           -7.49303895603239       -4.70187245371594       -1.85852198712053
H           -7.10697847029560       -3.13890143840005       -3.75225362214966
H           -5.00994477477904       -1.82343323272127       -3.82536680401447
H           -3.35848578865949       -2.03699979173088       -2.03584916391566
H           -3.38507413826841       -0.99054355060679        0.25493276959348
H           -3.40246471830030        0.99669596676363        0.23278214845931
H           -3.38734813116206        2.00425862415459       -2.07664832731188
H           -5.02883879646061        1.73410760332350       -3.86774062790750
H           -7.14690750009301        3.01672436808389       -3.82373390421178
H           -7.56483355135396        4.60478610406654       -1.95786424180717
H           -6.38575242784270        6.68202701531782        1.93042147580968
H           -4.87845560166752        7.01464031473046        3.87819050057121
H           -2.80835769020516        5.66743271235711        4.05090715820582
H           -2.23667157698475        4.05635799298986        2.29863739753406
H           -1.21209303967754        4.63419929571318       -0.03179042928259
H            0.91522962595952        3.35521371303362       -0.00958804254742
H            4.73919074517248        2.53525893035458       -0.00361718740021
H            6.74495917132602        2.39753056109508        1.89644795657879
H            8.80050425808429        3.75012119977263        2.04353201191554
H           10.44035203029528        3.68580198012023        0.19150416107825
H            9.97941427277698        2.32076703915265       -1.80004575762260
H            8.36342599984139       -0.19366106083258       -2.26722422770532
H            8.25569864054611        1.30066924919266       -3.19565742181162
H            6.80061713339328        0.60031561786689       -2.46996334527260

 projected vibrational frequencies (cm⁻¹)
eigval :       -0.00    -0.00    -0.00     0.00     0.00     0.00
eigval :        7.93     9.39    12.20    13.03    16.02    21.70
eigval :       32.43    33.68    38.72    39.64    42.77    46.00
eigval :       55.86    65.12    77.88    83.17    86.16    94.00
eigval :      105.74   106.97   114.60   121.72   128.89   135.99
eigval :      140.03   147.32   150.75   166.28   171.34   180.72
eigval :      197.74   212.11   227.07   233.92   237.53   240.73
eigval :      247.70   249.50   264.40   266.94   267.68   286.30
eigval :      287.95   292.30   303.21   310.48   342.72   357.02
eigval :      359.86   373.64   381.63   387.14   392.15   396.56
eigval :      399.05   417.18   419.39   419.66   425.38   429.64
eigval :      429.96   434.58   439.32   441.40   444.03   450.66
eigval :      457.88   476.66   479.04   496.99   507.13   507.47
eigval :      507.87   514.53   518.34   520.48   524.95   526.13
eigval :      542.23   548.50   566.08   568.12   569.51   577.68
eigval :      582.36   587.72   597.32   614.22   618.27   618.86
eigval :      622.15   637.61   649.42   652.48   661.81   662.63
eigval :      663.90   664.20   669.85   676.71   682.35   688.73
eigval :      692.18   697.94   701.27   712.86   720.13   723.37
eigval :      765.49   776.07   776.83   777.71   778.18   778.29
eigval :      778.49   801.92   810.96   811.66   823.40   824.21
eigval :      826.71   828.58   837.60   854.30   855.58   855.85
eigval :      858.26   862.57   865.93   866.10   871.80   883.53
eigval :      883.84   884.92   897.31   897.48   897.81   898.61
eigval :      900.17   913.52   914.21   914.24   915.87   916.59
eigval :      916.86   917.26   917.51   920.59   920.77   927.15
eigval :      927.50   928.01   957.13  1000.28  1002.83  1005.30
eigval :     1031.02  1032.24  1039.03  1040.72  1063.25  1088.77
eigval :     1088.89  1089.80  1090.48  1101.01  1103.65  1109.79
eigval :     1110.11  1119.18  1124.26  1130.08  1140.23  1145.59
eigval :     1147.09  1167.64  1168.44  1173.83  1174.97  1181.94
eigval :     1182.63  1182.90  1185.90  1195.64  1203.00  1203.77
eigval :     1205.00  1210.15  1216.29  1217.33  1227.97  1230.65
eigval :     1240.61  1241.87  1244.67  1247.29  1253.61  1255.46
eigval :     1258.52  1260.08  1265.24  1268.11  1275.92  1284.14
eigval :     1293.07  1305.71  1309.53  1311.75  1313.07  1316.61
eigval :     1318.39  1323.95  1333.99  1334.78  1344.28  1345.40
eigval :     1350.15  1363.13  1379.40  1400.51  1400.96  1403.12
eigval :     1405.18  1414.47  1421.50  1423.24  1423.69  1435.28
eigval :     1438.42  1443.06  1444.27  1460.81  1468.83  1473.98
eigval :     1476.06  1476.96  1478.30  1481.28  1483.24  1485.96
eigval :     1488.00  1490.79  1492.80  1493.93  1508.87  1516.48
eigval :     1532.39  1539.82  1564.23  1564.36  1570.64  1575.16
eigval :     1575.44  1578.57  1580.69  1581.53  1584.03  1586.41
eigval :     1596.56  1598.20  1599.32  1600.62  2995.37  3004.71
eigval :     3023.59  3026.76  3038.44  3048.10  3065.24  3066.12
eigval :     3067.93  3076.27  3077.76  3085.66  3087.64  3088.14
eigval :     3088.27  3088.88  3090.09  3090.90  3090.96  3091.02
eigval :     3095.00  3095.46  3097.94  3100.44  3100.54  3100.55
eigval :     3100.96  3101.36  3101.70  3106.43  3107.73  3107.97
eigval :     3108.05  3109.04  3113.19  3113.29  3113.32  3113.99

   temp. (K)  partition function   enthalpy   heat capacity  entropy
                                   cal/mol     cal/K/mol   cal/K/mol   J/K/mol
 298.15  VIB  0.145E+25            30211.992    189.889    188.315
         ROT  0.239E+09              888.752      2.981     41.317
         INT  0.346E+33            31100.745    192.870    229.632
         TR   0.228E+29             1481.254      4.968     45.980
         TOT                       32581.9985   197.8381   275.6123  1153.1617

       T/K    H(0)-H(T)+PV         H(T)/Eh          T*S/Eh         G(T)/Eh
   ------------------------------------------------------------------------
    298.15    0.519227E-01    0.825965E+00    0.130952E+00    0.695012E+00
   ------------------------------------------------------------------------

         :::::::::::::::::::::::::::::::::::::::::::::::::::::
         ::                  THERMODYNAMIC                  ::
         :::::::::::::::::::::::::::::::::::::::::::::::::::::
         :: total free energy        -162.775923881967 Eh   ::
         ::.................................................::
         :: total energy             -163.470936216380 Eh   ::
         :: zero point energy           0.774041898224 Eh   ::
         :: G(RRHO) w/o ZPVE           -0.079029563812 Eh   ::
         :: G(RRHO) contrib.            0.695012334413 Eh   ::
         :::::::::::::::::::::::::::::::::::::::::::::::::::::

           -------------------------------------------------
          | TOTAL ENERGY             -163.470936216380 Eh   |
          | TOTAL ENTHALPY           -162.644971598574 Eh   |
          | TOTAL FREE ENERGY        -162.775923881967 Eh   |
          | GRADIENT NORM               0.000069487283 Eh/α |
           -------------------------------------------------

 * finished run on 2025/07/17 at 17:54:01.338
