   * xtb version 6.7.1 (edcfbbe) compiled by 'albert@albert-system' on 2024-07-22

   ID    Z sym.   atoms
    1    6 C      1-10, 12-16, 18-23, 25-35, 37-42, 44-53, 55-64
    2    7 N      11, 17, 36, 54
    3    8 O      24, 43
    4    1 H      65-102

          program call               : xtb data2507/gas/oDTBPZ-DPXZ/oDTBPZ-DPXZ_gas_S0_crest.xyz --gfn 2 --ohess vtight --parallel 40 --molden --ceasefiles --namespace data2507/gas/oDTBPZ-DPXZ/oDTBPZ-DPXZ_gas_S0_finalOpt
          :  Hamiltonian                  GFN2-xTB          :
 * total energy  :  -163.5124408 Eh     change       -0.2352948E-08 Eh
 * total energy  :  -163.5124414 Eh     change       -0.6603913E-06 Eh
 * total energy  :  -163.5124421 Eh     change       -0.7283481E-06 Eh
 * total energy  :  -163.5124432 Eh     change       -0.1052349E-05 Eh
 * total energy  :  -163.5124442 Eh     change       -0.1027428E-05 Eh
 * total energy  :  -163.5124448 Eh     change       -0.5300635E-06 Eh
 * total energy  :  -163.5124452 Eh     change       -0.4560074E-06 Eh
 * total energy  :  -163.5124459 Eh     change       -0.6437398E-06 Eh
 * total energy  :  -163.5124467 Eh     change       -0.8506020E-06 Eh
 * total energy  :  -163.5124477 Eh     change       -0.9452537E-06 Eh
 * total energy  :  -163.5124507 Eh     change       -0.6673654E-06 Eh
 * total energy  :  -163.5124514 Eh     change       -0.7050686E-06 Eh
 * total energy  :  -163.5124521 Eh     change       -0.6674607E-06 Eh
 * total energy  :  -163.5124527 Eh     change       -0.6009531E-06 Eh
 * total energy  :  -163.5124533 Eh     change       -0.6341040E-06 Eh
 * total energy  :  -163.5124540 Eh     change       -0.7456169E-06 Eh
 * total energy  :  -163.5124548 Eh     change       -0.7960258E-06 Eh
 * total energy  :  -163.5124555 Eh     change       -0.6230899E-06 Eh
 * total energy  :  -163.5124555 Eh     change       -0.1375531E-07 Eh
   *** GEOMETRY OPTIMIZATION CONVERGED AFTER 22 ITERATIONS ***

 final structure:
================
102
 xtb: 6.7.1 (edcfbbe)
C            6.65281444675308       -2.66631747037753       -2.09394145787523
C            7.57096473165254       -2.32338499397672       -0.95725682176458
C            8.79859446924873       -2.96942508437086       -0.86981709805220
C            9.69173921686444       -2.68885275473793        0.14691468567014
C            9.36393404676243       -1.74555218512606        1.10544074313340
C            8.15081570575692       -1.09023439685543        1.03129984626391
C            7.24673258399464       -1.36429996733902        0.00793605778515
C            5.96242462435472       -0.63663728580226       -0.01276299650623
C            4.77778421613107       -1.32819143478570        0.00517225747784
C            3.54314895588531       -0.65201827737197        0.02868994502293
N            2.39792892476826       -1.34841075236807        0.04606233048418
C            1.26493598227754       -0.67105751139151        0.07230474785698
C            0.01620624250202       -1.39713204345758        0.09778169002110
C            0.02959405664394       -2.79503377260515        0.05345837753231
C           -1.13890298922862       -3.51543169062470        0.06182378640282
C           -2.36090726259694       -2.84069462330604        0.14248852146034
N           -3.57139715897174       -3.56104097848808        0.14579545412125
C           -3.83473623134220       -4.50106966185459        1.14642394205244
C           -2.97407385065336       -4.70581334074321        2.21778929956821
C           -3.26252066077511       -5.65040238052374        3.19094231925377
C           -4.42132437771484       -6.39622722842831        3.11857523825983
C           -5.31069976672792       -6.17570303874636        2.07744708328793
C           -5.02857879975142       -5.23336314888494        1.10607547292698
O           -5.97459502425313       -5.04570586638947        0.12977925942357
C           -5.72442359405781       -4.08496104964946       -0.81774772678394
C           -6.70160517372300       -3.88663938952422       -1.77553457192321
C           -6.51132356569527       -2.96126532113991       -2.79069980861051
C           -5.32702544939708       -2.25602738102997       -2.85095373162331
C           -4.34458217962792       -2.45035259357716       -1.89217961960133
C           -4.53485927213485       -3.34405349526021       -0.84492669108535
C           -2.38374876592818       -1.45742627529958        0.20509344480852
C           -1.20883335865996       -0.70452542674195        0.16114705795686
C           -1.22075382148051        0.75113097974283        0.14741494243343
C           -2.40851118840784        1.48464646406762        0.15830204103531
C           -2.40769399689856        2.86692738307413        0.07273517327760
N           -3.63089768537656        3.56470144305175        0.03685442054408
C           -4.56667031859735        3.31112745720167       -0.97151872173249
C           -4.33023913637566        2.41036157797243       -2.00318644039950
C           -5.28537786497412        2.18020436260072       -2.98139487580320
C           -6.48806777706822        2.85581986655035       -2.95641140405749
C           -6.72472219103422        3.78751540300680       -1.95689159424563
C           -5.77492066909322        4.02154465030258       -0.97979250190700
O           -6.07079815252295        4.98571843951509       -0.04917992849012
C           -5.14920706545302        5.21287330516173        0.94207442817531
C           -5.47521635158396        6.16158593876183        1.89324556976031
C           -4.61222032086744        6.42194776684389        2.94729982896151
C           -3.43494887344018        5.70974899897906        3.05251771875930
C           -3.10270621808980        4.75849853903336        2.10001300962439
C           -3.93740984607682        4.51339602340768        1.01667353464552
C           -1.19600385611922        3.56121497359865        0.00473993740424
C           -0.01568714855223        2.86040523334739        0.02453722214005
C           -0.00662276059651        1.46314974394056        0.08722251689916
C            1.25375628440727        0.75726103846996        0.07507440756737
N            2.37625135082615        1.45254173507640        0.06116567049719
C            3.53199792975199        0.77459506093994        0.04178737288418
C            4.75874087315764        1.46644887050107        0.03812894892801
C            5.95015597821219        0.78915244390184        0.00494789326441
C            7.21234034240499        1.56077167576504        0.02547544079452
C            7.49434004704982        2.31970265961425        1.15836012176560
C            8.66440330299113        3.04724691329170        1.25282348741909
C            9.56396310261323        3.03266230646172        0.20046434059959
C            9.27357154371143        2.30787476648729       -0.93986381969745
C            8.10161126444551        1.56981057318808       -1.04988943503391
C            7.81248166630389        0.82777824718764       -2.31920813294067
H            7.22886939172346       -2.87027673061874       -2.99482212443763
H            6.08168495126443       -3.56445982230624       -1.85782408790133
H            5.94938710465642       -1.86389906117452       -2.29918709302878
H            9.05572238986283       -3.70510652581772       -1.61926772987297
H           10.63982686321962       -3.20417026299126        0.19086061844733
H           10.05073386916979       -1.51990064732222        1.90734219640791
H            7.88774774702244       -0.36385990147688        1.78545671296142
H            4.76447255212925       -2.40688270070437        0.02557688775481
H            0.98775647192101       -3.28661210670372       -0.00430055651351
H           -1.12703158416601       -4.59323968369086        0.00019839534461
H           -2.07341331453234       -4.11777802737843        2.29839488444358
H           -2.57132834255538       -5.79244752430228        4.00742200679328
H           -4.64720413756272       -7.13699370513702        3.86917288086238
H           -6.23656842427926       -6.72331213114065        2.00304921540799
H           -7.60389339351854       -4.47348914721111       -1.71124706707435
H           -7.28158456224250       -2.80935835911628       -3.53004089333090
H           -5.15208651215291       -1.54869497966276       -3.64679738589821
H           -3.41621531966763       -1.90689306576354       -1.96970915917831
H           -3.34494741884451       -0.97568141499908        0.28714291575711
H           -3.36321920727959        0.98804720433644        0.22684455499577
H           -3.38705271761084        1.88962080939845       -2.05298627583492
H           -5.07410905052387        1.46912844896808       -3.76505099669146
H           -7.23704916071744        2.67616723544350       -3.71125034383963
H           -7.64276959264907        4.35183737797264       -1.91987114426755
H           -6.41404560762665        6.68237822643201        1.79312112696886
H           -4.87258709934840        7.16719245885239        3.68212416834071
H           -2.76322875057720        5.88352889654897        3.87904833240655
H           -2.18810282479672        4.19672999341733        2.20653823474215
H           -1.20096428836857        4.63799394414272       -0.07332200613631
H            0.93498963545846        3.36694913194305       -0.02773854545688
H            4.73768526637453        2.54594688145908        0.05110656042230
H            6.78708869136903        2.32002655721171        1.97630254127081
H            8.87354854525515        3.62302743319353        2.14222813798834
H           10.48411245486294        3.59452132614494        0.26413573296807
H            9.96615539617051        2.31488341236986       -1.76970213058065
H            8.30419588359265       -0.14473368100227       -2.30574934688163
H            8.19021984481155        1.38346931697178       -3.17523276715212
H            6.74414631223357        0.67000408175136       -2.44674438261436

          :  Hamiltonian                  GFN2-xTB          :
         :: gradient norm              0.000068078241 Eh/a0 ::
         :: HOMO-LUMO gap              1.104619901107 eV    ::
         :: SCC energy              -166.424898569272 Eh    ::
         :: -> dispersion             -0.152042163028 Eh    ::
         :: repulsion energy           2.912443104558 Eh    ::

    * Orbital Energies and Occupations

         #    Occupation            Energy/Eh            Energy/eV
      -------------------------------------------------------------
         1        2.0000           -0.7267236             -19.7752
       ...           ...                  ...                  ...
       139        2.0000           -0.4102401             -11.1632
       140        2.0000           -0.4061992             -11.0532
       141        2.0000           -0.4014828             -10.9249
       142        2.0000           -0.4009062             -10.9092
       143        2.0000           -0.3987573             -10.8507
       144        2.0000           -0.3943754             -10.7315
       145        2.0000           -0.3898397             -10.6081
       146        2.0000           -0.3894301             -10.5969
       147        2.0000           -0.3867161             -10.5231
       148        2.0000           -0.3859974             -10.5035
       149        2.0000           -0.3490390              -9.4978
       150        2.0000           -0.3425547              -9.3214
       151        2.0000           -0.3416055              -9.2956 (HOMO)
       152                         -0.3010114              -8.1909 (LUMO)
       153                         -0.2702094              -7.3528
       154                         -0.2609072              -7.0996
       155                         -0.2372649              -6.4563
       156                         -0.2371788              -6.4540
       157                         -0.2366950              -6.4408
       158                         -0.2326196              -6.3299
       159                         -0.2285814              -6.2200
       160                         -0.2284284              -6.2159
       161                         -0.2240955              -6.0979
       162                         -0.2214819              -6.0268
       ...                                ...                  ...
       294                          0.7150127              19.4565
      -------------------------------------------------------------
                  HL-Gap            0.0405940 Eh            1.1046 eV

     #   Z          covCN         q      C6AA      α(0)
     1   6 C        3.758    -0.107    22.601     6.778
     2   6 C        2.968     0.014    27.698     8.633
     3   6 C        2.926    -0.041    29.028     8.836
     4   6 C        2.918    -0.032    28.797     8.800
     5   6 C        2.919    -0.034    28.847     8.808
     6   6 C        2.926    -0.032    28.804     8.801
     7   6 C        2.980     0.004    27.926     8.668
     8   6 C        2.975     0.013    27.719     8.636
     9   6 C        2.922    -0.049    29.205     8.862
    10   6 C        2.966     0.078    26.253     8.404
    11   7 N        1.849    -0.244    27.224     7.733
    12   6 C        2.962     0.082    26.179     8.392
    13   6 C        2.988    -0.005    28.134     8.701
    14   6 C        2.923    -0.028    28.706     8.786
    15   6 C        2.918    -0.042    29.033     8.836
    16   6 C        2.919     0.066    26.516     8.444
    17   7 N        2.751    -0.070    22.588     7.059
    18   6 C        2.922     0.042    27.050     8.529
    19   6 C        2.924    -0.060    29.481     8.904
    20   6 C        2.919    -0.039    28.962     8.825
    21   6 C        2.919    -0.040    28.993     8.830
    22   6 C        2.920    -0.056    29.397     8.891
    23   6 C        2.884     0.125    25.263     8.240
    24   8 O        1.709    -0.255    18.222     5.763
    25   6 C        2.885     0.125    25.260     8.240
    26   6 C        2.920    -0.056    29.395     8.891
    27   6 C        2.919    -0.040    28.992     8.830
    28   6 C        2.919    -0.038    28.952     8.824
    29   6 C        2.924    -0.060    29.495     8.906
    30   6 C        2.921     0.042    27.058     8.530
    31   6 C        2.926    -0.048    29.202     8.862
    32   6 C        2.977     0.006    27.872     8.660
    33   6 C        2.977     0.006    27.873     8.660
    34   6 C        2.926    -0.048    29.201     8.862
    35   6 C        2.919     0.066    26.515     8.444
    36   7 N        2.751    -0.070    22.588     7.059
    37   6 C        2.921     0.042    27.057     8.530
    38   6 C        2.924    -0.060    29.493     8.906
    39   6 C        2.919    -0.038    28.950     8.823
    40   6 C        2.919    -0.040    28.992     8.830
    41   6 C        2.920    -0.056    29.395     8.891
    42   6 C        2.884     0.125    25.259     8.240
    43   8 O        1.709    -0.255    18.221     5.763
    44   6 C        2.884     0.125    25.263     8.240
    45   6 C        2.920    -0.056    29.396     8.891
    46   6 C        2.919    -0.040    28.994     8.830
    47   6 C        2.919    -0.039    28.961     8.825
    48   6 C        2.924    -0.060    29.483     8.904
    49   6 C        2.922     0.042    27.049     8.529
    50   6 C        2.918    -0.041    29.031     8.836
    51   6 C        2.923    -0.028    28.703     8.786
    52   6 C        2.988    -0.005    28.132     8.700
    53   6 C        2.962     0.082    26.177     8.392
    54   7 N        1.848    -0.244    27.211     7.731
    55   6 C        2.966     0.079    26.236     8.402
    56   6 C        2.923    -0.049    29.212     8.863
    57   6 C        2.977     0.012    27.740     8.639
    58   6 C        2.983     0.004    27.939     8.670
    59   6 C        2.927    -0.034    28.843     8.807
    60   6 C        2.918    -0.034    28.851     8.808
    61   6 C        2.919    -0.032    28.799     8.800
    62   6 C        2.926    -0.039    28.981     8.828
    63   6 C        2.968     0.015    27.674     8.629
    64   6 C        3.758    -0.106    22.576     6.774
    65   1 H        0.925     0.042     2.419     2.432
    66   1 H        0.924     0.048     2.344     2.394
    67   1 H        0.925     0.043     2.416     2.431
    68   1 H        0.925     0.031     2.578     2.511
    69   1 H        0.926     0.030     2.584     2.514
    70   1 H        0.926     0.030     2.588     2.516
    71   1 H        0.926     0.031     2.577     2.511
    72   1 H        0.926     0.053     2.288     2.365
    73   1 H        0.926     0.065     2.146     2.291
    74   1 H        0.926     0.044     2.392     2.419
    75   1 H        0.926     0.036     2.499     2.472
    76   1 H        0.926     0.036     2.500     2.473
    77   1 H        0.926     0.038     2.476     2.460
    78   1 H        0.926     0.050     2.316     2.380
    79   1 H        0.926     0.050     2.314     2.379
    80   1 H        0.926     0.038     2.473     2.459
    81   1 H        0.926     0.035     2.514     2.480
    82   1 H        0.926     0.035     2.512     2.478
    83   1 H        0.926     0.044     2.390     2.418
    84   1 H        0.926     0.044     2.391     2.418
    85   1 H        0.926     0.035     2.514     2.479
    86   1 H        0.926     0.035     2.518     2.482
    87   1 H        0.926     0.038     2.473     2.459
    88   1 H        0.926     0.050     2.314     2.379
    89   1 H        0.926     0.050     2.317     2.380
    90   1 H        0.926     0.038     2.476     2.460
    91   1 H        0.926     0.036     2.500     2.473
    92   1 H        0.926     0.036     2.497     2.471
    93   1 H        0.926     0.045     2.388     2.417
    94   1 H        0.926     0.065     2.141     2.288
    95   1 H        0.926     0.050     2.325     2.384
    96   1 H        0.925     0.028     2.608     2.525
    97   1 H        0.926     0.030     2.582     2.513
    98   1 H        0.926     0.030     2.584     2.514
    99   1 H        0.926     0.031     2.573     2.508
   100   1 H        0.925     0.050     2.318     2.381
   101   1 H        0.925     0.043     2.409     2.427
   102   1 H        0.925     0.038     2.473     2.459

molecular dipole:
                 x           y           z       tot (Debye)
 q only:        1.002      -0.158      -0.289
   full:        1.102      -0.166      -0.265       2.910

 projected vibrational frequencies (cm⁻¹)
eigval :       -0.00    -0.00    -0.00    -0.00     0.00     0.00
eigval :        6.98    11.89    13.09    13.82    16.10    21.72
eigval :       33.54    33.65    38.07    38.88    42.58    45.55
eigval :       55.08    66.07    75.94    84.22    87.02    96.03
eigval :      103.51   104.70   115.77   121.28   132.84   135.91
eigval :      139.71   148.74   151.52   167.08   172.73   189.30
eigval :      199.25   213.84   226.14   232.63   240.23   243.96
eigval :      248.59   251.74   263.39   268.09   270.12   285.46
eigval :      287.51   292.86   305.28   322.52   351.42   356.80
eigval :      365.91   374.70   382.41   390.93   391.88   396.54
eigval :      399.96   417.29   420.39   423.35   426.27   430.88
eigval :      432.58   439.94   441.79   443.19   448.13   451.12
eigval :      456.87   467.93   479.33   495.33   508.78   509.75
eigval :      510.37   516.54   519.58   520.95   525.81   526.08
eigval :      543.11   549.01   568.84   571.86   573.46   578.70
eigval :      582.61   591.87   601.66   615.94   619.82   624.78
eigval :      645.60   648.64   653.23   659.89   661.37   661.86
eigval :      662.13   670.97   674.59   691.61   693.13   694.24
eigval :      700.77   707.14   721.63   734.94   742.14   766.01
eigval :      768.71   776.05   778.18   779.01   779.40   779.42
eigval :      779.71   803.80   811.39   812.65   824.40   835.05
eigval :      836.58   855.38   855.58   855.92   859.22   860.82
eigval :      863.51   868.21   868.51   877.33   884.65   885.69
eigval :      887.65   888.69   897.84   898.28   899.03   902.66
eigval :      906.20   912.85   914.85   914.89   917.31   917.38
eigval :      917.95   918.37   918.52   928.68   928.88   931.90
eigval :      932.33   932.89   977.20  1003.66  1004.17  1005.85
eigval :     1029.15  1032.26  1033.90  1049.73  1065.17  1090.88
eigval :     1091.09  1091.79  1092.80  1101.04  1103.92  1108.62
eigval :     1109.04  1120.39  1125.36  1130.92  1139.69  1146.63
eigval :     1146.67  1169.88  1170.70  1174.42  1176.26  1182.60
eigval :     1183.80  1184.35  1187.79  1195.56  1201.67  1203.08
eigval :     1207.14  1213.06  1214.44  1217.88  1231.12  1232.43
eigval :     1242.32  1244.15  1244.39  1256.38  1262.13  1262.45
eigval :     1264.18  1268.39  1272.19  1278.66  1280.81  1281.96
eigval :     1309.56  1309.64  1311.45  1315.08  1316.73  1318.81
eigval :     1322.83  1328.83  1338.35  1343.19  1350.42  1355.59
eigval :     1358.70  1382.54  1402.35  1402.55  1407.17  1415.17
eigval :     1422.19  1423.52  1425.44  1434.23  1436.42  1441.13
eigval :     1444.60  1445.23  1454.42  1469.79  1477.05  1480.96
eigval :     1481.97  1483.39  1486.04  1488.97  1489.64  1492.47
eigval :     1494.50  1497.60  1504.02  1504.06  1523.13  1543.99
eigval :     1552.60  1567.37  1567.50  1577.97  1578.35  1580.60
eigval :     1581.03  1582.06  1586.32  1590.39  1591.58  1594.53
eigval :     1600.08  1601.47  1603.32  1603.36  2998.10  3006.58
eigval :     3026.12  3029.54  3038.58  3048.91  3068.25  3068.86
eigval :     3071.10  3079.54  3080.99  3088.07  3088.84  3089.15
eigval :     3089.19  3090.17  3091.05  3091.30  3091.33  3091.90
eigval :     3097.23  3099.04  3099.16  3099.23  3099.81  3100.39
eigval :     3101.12  3106.11  3106.54  3106.93  3107.31  3111.82
eigval :     3111.89  3112.62  3112.97  3113.04  3113.55  3113.73

   temp. (K)  partition function   enthalpy   heat capacity  entropy
                                   cal/mol     cal/K/mol   cal/K/mol   J/K/mol
 298.15  VIB  0.953E+24            30039.876    188.730    187.105
         ROT  0.236E+09              888.752      2.981     41.296
         INT  0.225E+33            30928.628    191.711    228.401
         TR   0.228E+29             1481.254      4.968     45.980
         TOT                       32409.8823   196.6787   274.3807  1148.0086

       T/K    H(0)-H(T)+PV         H(T)/Eh          T*S/Eh         G(T)/Eh
   ------------------------------------------------------------------------
    298.15    0.516484E-01    0.828394E+00    0.130367E+00    0.698027E+00
   ------------------------------------------------------------------------

         :::::::::::::::::::::::::::::::::::::::::::::::::::::
         ::                  THERMODYNAMIC                  ::
         :::::::::::::::::::::::::::::::::::::::::::::::::::::
         :: total free energy        -162.814428255143 Eh   ::
         ::.................................................::
         :: total energy             -163.512455464718 Eh   ::
         :: zero point energy           0.776745875517 Eh   ::
         :: G(RRHO) w/o ZPVE           -0.078718665942 Eh   ::
         :: G(RRHO) contrib.            0.698027209575 Eh   ::
         :::::::::::::::::::::::::::::::::::::::::::::::::::::

           -------------------------------------------------
          | TOTAL ENERGY             -163.512455464718 Eh   |
          | TOTAL ENTHALPY           -162.684061154155 Eh   |
          | TOTAL FREE ENERGY        -162.814428255143 Eh   |
          | GRADIENT NORM               0.000068063142 Eh/α |
          | HOMO-LUMO GAP               1.104620104943 eV   |
           -------------------------------------------------

 * finished run on 2025/07/17 at 17:53:35.962
