   * xtb version 6.7.1 (edcfbbe) compiled by 'albert@albert-system' on 2024-07-22

   ID    Z sym.   atoms
    1    6 C      1-10, 12-16, 18-23, 25-35, 37-42, 44-53, 55-64
    2    7 N      11, 17, 36, 54
    3    8 O      24, 43
    4    1 H      65-102

          program call               : xtb data2507/toluene/oDTBPZ-DPXZ/oDTBPZ-DPXZ_toluene_S0_finalOpt.xtbopt.xyz --gfn 2 --uhf 2 --gbsa toluene --ohess vtight --parallel 40 --molden --ceasefiles --namespace data2507/toluene/oDTBPZ-DPXZ/oDTBPZ-DPXZ_toluene_T1_preOpt
      * Solvation model:               GBSA
        Solvent                        toluene
        Solvent mass                       9.2140E+01 g/mol
          :  Hamiltonian                  GFN2-xTB          :
 * total energy  :  -163.5272277 Eh     change       -0.2948150E-07 Eh
 * total energy  :  -163.5295739 Eh     change       -0.2346199E-02 Eh
 * total energy  :  -163.5302810 Eh     change       -0.7071228E-03 Eh
 * total energy  :  -163.5303623 Eh     change       -0.8135039E-04 Eh
 * total energy  :  -163.5304058 Eh     change       -0.4350604E-04 Eh
 * total energy  :  -163.5304154 Eh     change       -0.9525006E-05 Eh
 * total energy  :  -163.5304250 Eh     change       -0.9642665E-05 Eh
 * total energy  :  -163.5304357 Eh     change       -0.1064592E-04 Eh
 * total energy  :  -163.5304449 Eh     change       -0.9221843E-05 Eh
 * total energy  :  -163.5304534 Eh     change       -0.8484001E-05 Eh
 * total energy  :  -163.5305239 Eh     change       -0.1297303E-05 Eh
 * total energy  :  -163.5305251 Eh     change       -0.1184756E-05 Eh
 * total energy  :  -163.5305264 Eh     change       -0.1298509E-05 Eh
 * total energy  :  -163.5305274 Eh     change       -0.1042527E-05 Eh
 * total energy  :  -163.5305282 Eh     change       -0.7950310E-06 Eh
 * total energy  :  -163.5305288 Eh     change       -0.5573628E-06 Eh
 * total energy  :  -163.5305290 Eh     change       -0.2350902E-06 Eh
 * total energy  :  -163.5305292 Eh     change       -0.1594405E-06 Eh
 * total energy  :  -163.5305292 Eh     change       -0.1946660E-08 Eh
   *** GEOMETRY OPTIMIZATION CONVERGED AFTER 44 ITERATIONS ***

 final structure:
================
102
 xtb: 6.7.1 (edcfbbe)
C            7.81855323693961       -0.75058062405159       -2.37627563822281
C            8.08398428428665       -1.56307636542315       -1.14540765810032
C            9.22995875784516       -2.34618814642617       -1.07478930066158
C            9.49759824938899       -3.13656448870045        0.02745706378509
C            8.60030178589044       -3.16963688606738        1.08175335734562
C            7.45639353515655       -2.39711479566056        1.02607764916961
C            7.19588125636895       -1.57437068625413       -0.06748711104534
C            5.95274184097420       -0.77263895709587       -0.05095902216123
C            4.73950545938678       -1.44767489576785       -0.03037317361309
C            3.52208496425635       -0.77284724046079        0.01062003088821
N            2.34997176052726       -1.41794040429032        0.01840397593320
C            1.20469722838238       -0.74596704456125        0.06890307693418
C           -0.04356432237904       -1.44083140310531        0.08400117026438
C           -0.04656232619942       -2.84516808834039        0.02161458955825
C           -1.21684460570716       -3.55302114281764        0.01292208105766
C           -2.43721208541337       -2.86234989098047        0.08703882057138
N           -3.65438747359717       -3.58872318174635        0.06634541996487
C           -3.96181389241393       -4.46641572383244        1.10127117190300
C           -3.17076301131444       -4.57217232466592        2.24164324802627
C           -3.50293691240979       -5.45894338641582        3.25219691509066
C           -4.63356134924980       -6.24861434842639        3.14845250101816
C           -5.44799663965575       -6.13691371847873        2.03203204621305
C           -5.12280753968270       -5.25113885914158        1.01984208277530
O           -5.98420440332960       -5.17302089652748       -0.04485404487774
C           -5.68368315343464       -4.27916699543665       -1.04165087054253
C           -6.57178300018333       -4.19724499845170       -2.09996022436389
C           -6.32339128830971       -3.33223837375671       -3.15430049638972
C           -5.17500817242416       -2.56201982020178       -3.14904152305808
C           -4.28133024558400       -2.64035292594005       -2.09391711753054
C           -4.52563435101574       -3.48533180038896       -1.01498837070282
C           -2.45633577459587       -1.48685497944879        0.16646540030662
C           -1.27212466539028       -0.73601580615917        0.15256312188893
C           -1.25984928465708        0.70384766256617        0.18606328106117
C           -2.43186930686301        1.47251283302162        0.22782948543826
C           -2.39077489925730        2.84976569096390        0.20832967664357
N           -3.59699645081535        3.59404435154241        0.20428749700874
C           -4.46190030101821        3.53777945709398       -0.88592920100062
C           -4.21668576174014        2.73214712097982       -1.99439019819085
C           -5.10402808475090        2.69957350079032       -3.05719060035823
C           -6.24671468571750        3.47802490721508       -3.04099867582430
C           -6.49510926027792        4.30569003958558       -1.95716723436130
C           -5.61328851038522        4.34160468382780       -0.89102965542160
O           -5.91299343273614        5.20138009391043        0.13544282470447
C           -5.05662105902824        5.23549968036534        1.20650456639392
C           -5.38019657346646        6.08865640326936        2.24686423293657
C           -4.57066520163866        6.15583698196578        3.37035360040599
C           -3.44715740040701        5.35361305630796        3.45283283683868
C           -3.11723297919486        4.49858295416405        2.41457922045066
C           -3.90271274482206        4.43851308335611        1.26707958583314
C           -1.15900932462506        3.52306269446139        0.17557382412477
C           -0.00018949858274        2.79635777281677        0.16016303143315
C           -0.01987310772546        1.39095533070253        0.15496938733907
C            1.21750622855743        0.67711351896169        0.10604644756002
N            2.37334658526933        1.33090925185148        0.08642750603437
C            3.53558586022040        0.66677254359057        0.04372445066030
C            4.76258350075552        1.32357331799111        0.02794407236822
C            5.96727097774497        0.63196953219967       -0.02550606869385
C            7.24016447664782        1.37791918544715        0.01699229019757
C            8.15562038063476        1.07420594245044        1.02265102101899
C            9.35799353969126        1.74634348784666        1.12394806420893
C            9.66416298302593        2.74177148256742        0.21154777673219
C            8.76155047933365        3.05145528693752       -0.78887957178709
C            7.54660476520611        2.38563190305124       -0.90495711862272
C            6.62289954875051        2.75892886414825       -2.02812920242739
H            8.21255349670741       -1.25553015259775       -3.25604930471544
H            6.75197006205180       -0.58539228566278       -2.51034000369679
H            8.30617206292845        0.22063537284207       -2.29582016145558
H            9.92075881676061       -2.33780184953029       -1.90656240130464
H           10.39740380757979       -3.73386682982993        0.05975507510511
H            8.79061376977652       -3.79426338216758        1.94271176326763
H            6.75099168224507       -2.41271124117297        1.84624664389520
H            4.72290276872382       -2.52761536647392       -0.05670895975755
H            0.90871982653559       -3.34450558645296       -0.03432083341811
H           -1.21646039316062       -4.63038774174554       -0.05455238254379
H           -2.29238398233579       -3.95355803504342        2.33570631288503
H           -2.87066664020201       -5.52541182739522        4.12407205063978
H           -4.89165408921021       -6.94332461964722        3.93188007834259
H           -6.34463423339795       -6.72703509104233        1.92705722166809
H           -7.44937453731106       -4.82390422230118       -2.07974461232423
H           -7.02194155679756       -3.27239821472106       -3.97367664173025
H           -4.96265587234060       -1.89512983514300       -3.97018622187412
H           -3.38079525288288       -2.04751480940247       -2.10981673363756
H           -3.41446135016583       -0.99663507131964        0.23463332196580
H           -3.39800301270370        0.99500404027132        0.26724616514808
H           -3.32037535010086        2.13370999507593       -2.02717858512120
H           -4.89107913368924        2.06224492091156       -3.90135630751036
H           -6.94058247683544        3.45370952721736       -3.86612790922554
H           -7.36784735851279        4.93828356158819       -1.91946953840455
H           -6.27179635474164        6.68897734427318        2.15796835632863
H           -4.82723488096067        6.82575814926032        4.17556557790222
H           -2.81892271449209        5.38517401415263        4.32957741889022
H           -2.24513729301661        3.86895896188310        2.49242644029161
H           -1.14082736934777        4.60218683633076        0.15643618423935
H            0.96326328959792        3.28223197074471        0.13392189683073
H            4.75886146547652        2.40116859478119        0.08780046316510
H            7.90836858678089        0.30698706501226        1.74157020271708
H           10.05201312757412        1.49445366110798        1.91263930140520
H           10.60221491812401        3.27370606831268        0.27838118467568
H            9.00271699290644        3.82562222434154       -1.50450865192418
H            7.19540761983628        2.99449194131046       -2.92363682080448
H            6.04515805839081        3.64476183157177       -1.76229352784860
H            5.92616783137570        1.95629180962080       -2.25412316210274

          :  Hamiltonian                  GFN2-xTB          :
         :: gradient norm              0.000036754728 Eh/a0 ::
         :: HOMO-LUMO gap              0.834202914897 eV    ::
         :: SCC energy              -166.435482610738 Eh    ::
         :: -> dispersion             -0.150657283771 Eh    ::
         :: -> Gsolv                  -0.067138222747 Eh    ::
         :: repulsion energy           2.904953453894 Eh    ::

    * Orbital Energies and Occupations

         #    Occupation            Energy/Eh            Energy/eV
      -------------------------------------------------------------
         1        2.0000           -0.7402925             -20.1444
       ...           ...                  ...                  ...
       140        2.0000           -0.4003640             -10.8945
       141        2.0000           -0.3995089             -10.8712
       142        2.0000           -0.3987530             -10.8506
       143        2.0000           -0.3965594             -10.7909
       144        2.0000           -0.3954508             -10.7608
       145        2.0000           -0.3932116             -10.6998
       146        2.0000           -0.3874138             -10.5421
       147        2.0000           -0.3813564             -10.3772
       148        2.0000           -0.3777389             -10.2788
       149        1.8807           -0.3513484              -9.5607
       150        1.8469           -0.3510741              -9.5532
       151        1.2724           -0.3485161              -9.4836
       152        1.0000           -0.2983227              -8.1178 (HOMO)
       153                         -0.2676664              -7.2836 (LUMO)
       154                         -0.2584597              -7.0330
       155                         -0.2472640              -6.7284
       156                         -0.2472319              -6.7275
       157                         -0.2372900              -6.4570
       158                         -0.2371847              -6.4541
       159                         -0.2312607              -6.2929
       160                         -0.2290633              -6.2331
       161                         -0.2228689              -6.0646
       162                         -0.2217478              -6.0341
       163                         -0.2180555              -5.9336
       ...                                ...                  ...
       294                          0.7104061              19.3311
      -------------------------------------------------------------
                  HL-Gap            0.0306563 Eh            0.8342 eV

     #   Z          covCN         q      C6AA      α(0)
     1   6 C        3.758    -0.106    22.571     6.773
     2   6 C        2.968     0.012    27.736     8.639
     3   6 C        2.926    -0.042    29.032     8.836
     4   6 C        2.918    -0.035    28.879     8.812
     5   6 C        2.918    -0.037    28.921     8.819
     6   6 C        2.927    -0.036    28.898     8.816
     7   6 C        2.981     0.003    27.949     8.672
     8   6 C        2.977     0.000    28.017     8.682
     9   6 C        2.925    -0.067    29.672     8.933
    10   6 C        2.942     0.084    26.130     8.384
    11   7 N        1.848    -0.262    27.674     7.797
    12   6 C        2.944     0.079    26.227     8.399
    13   6 C        2.986    -0.013    28.319     8.729
    14   6 C        2.923    -0.029    28.718     8.788
    15   6 C        2.917    -0.044    29.101     8.846
    16   6 C        2.919     0.055    26.756     8.482
    17   7 N        2.752    -0.053    22.267     7.008
    18   6 C        2.924     0.044    27.003     8.522
    19   6 C        2.922    -0.056    29.388     8.890
    20   6 C        2.918    -0.035    28.876     8.812
    21   6 C        2.919    -0.036    28.905     8.816
    22   6 C        2.918    -0.056    29.380     8.888
    23   6 C        2.883     0.125    25.248     8.238
    24   8 O        1.709    -0.254    18.215     5.762
    25   6 C        2.883     0.125    25.247     8.238
    26   6 C        2.918    -0.055    29.374     8.888
    27   6 C        2.919    -0.036    28.907     8.817
    28   6 C        2.918    -0.035    28.874     8.812
    29   6 C        2.922    -0.057    29.418     8.895
    30   6 C        2.922     0.044    27.014     8.523
    31   6 C        2.922    -0.047    29.167     8.856
    32   6 C        2.976    -0.003    28.084     8.693
    33   6 C        2.976    -0.002    28.079     8.692
    34   6 C        2.922    -0.047    29.168     8.857
    35   6 C        2.919     0.056    26.752     8.482
    36   7 N        2.752    -0.053    22.264     7.008
    37   6 C        2.922     0.044    27.016     8.524
    38   6 C        2.922    -0.057    29.418     8.895
    39   6 C        2.918    -0.035    28.874     8.812
    40   6 C        2.919    -0.036    28.906     8.817
    41   6 C        2.918    -0.055    29.374     8.888
    42   6 C        2.883     0.125    25.247     8.237
    43   8 O        1.709    -0.254    18.216     5.762
    44   6 C        2.883     0.125    25.248     8.238
    45   6 C        2.918    -0.056    29.379     8.888
    46   6 C        2.919    -0.036    28.905     8.816
    47   6 C        2.918    -0.035    28.876     8.812
    48   6 C        2.922    -0.056    29.390     8.890
    49   6 C        2.923     0.044    27.004     8.522
    50   6 C        2.917    -0.044    29.104     8.847
    51   6 C        2.923    -0.029    28.717     8.788
    52   6 C        2.986    -0.012    28.318     8.729
    53   6 C        2.943     0.080    26.221     8.398
    54   7 N        1.848    -0.262    27.653     7.794
    55   6 C        2.942     0.083    26.157     8.388
    56   6 C        2.923    -0.067    29.659     8.931
    57   6 C        2.975     0.001    27.996     8.679
    58   6 C        2.979     0.004    27.931     8.669
    59   6 C        2.926    -0.035    28.869     8.811
    60   6 C        2.918    -0.037    28.910     8.817
    61   6 C        2.918    -0.035    28.879     8.812
    62   6 C        2.926    -0.043    29.070     8.842
    63   6 C        2.967     0.012    27.735     8.638
    64   6 C        3.758    -0.106    22.585     6.776
    65   1 H        0.925     0.045     2.390     2.417
    66   1 H        0.925     0.038     2.471     2.458
    67   1 H        0.925     0.052     2.301     2.372
    68   1 H        0.925     0.031     2.570     2.507
    69   1 H        0.926     0.029     2.604     2.524
    70   1 H        0.926     0.028     2.621     2.532
    71   1 H        0.925     0.023     2.686     2.563
    72   1 H        0.926     0.035     2.514     2.479
    73   1 H        0.926     0.052     2.294     2.369
    74   1 H        0.926     0.043     2.406     2.425
    75   1 H        0.926     0.045     2.380     2.413
    76   1 H        0.926     0.047     2.357     2.401
    77   1 H        0.926     0.049     2.336     2.390
    78   1 H        0.926     0.055     2.264     2.353
    79   1 H        0.926     0.054     2.265     2.353
    80   1 H        0.926     0.049     2.329     2.386
    81   1 H        0.926     0.048     2.343     2.394
    82   1 H        0.926     0.046     2.370     2.407
    83   1 H        0.926     0.047     2.360     2.402
    84   1 H        0.926     0.047     2.361     2.403
    85   1 H        0.926     0.046     2.369     2.407
    86   1 H        0.926     0.048     2.344     2.394
    87   1 H        0.926     0.049     2.329     2.387
    88   1 H        0.926     0.054     2.265     2.353
    89   1 H        0.926     0.054     2.265     2.353
    90   1 H        0.926     0.049     2.336     2.390
    91   1 H        0.926     0.047     2.357     2.401
    92   1 H        0.926     0.046     2.377     2.411
    93   1 H        0.926     0.044     2.399     2.422
    94   1 H        0.926     0.053     2.285     2.364
    95   1 H        0.926     0.042     2.426     2.435
    96   1 H        0.926     0.024     2.668     2.554
    97   1 H        0.926     0.026     2.641     2.541
    98   1 H        0.926     0.029     2.607     2.525
    99   1 H        0.925     0.032     2.564     2.504
   100   1 H        0.925     0.046     2.377     2.411
   101   1 H        0.924     0.047     2.353     2.399
   102   1 H        0.925     0.042     2.421     2.433

molecular dipole:
                 x           y           z       tot (Debye)
 q only:       -2.494       0.300      -0.383
   full:       -2.369       0.273      -0.308       6.111

 projected vibrational frequencies (cm⁻¹)
eigval :       -0.00    -0.00     0.00     0.00     0.00     0.00
eigval :        9.66    13.25    15.80    17.36    19.83    25.21
eigval :       30.05    35.90    40.81    42.91    47.26    49.89
eigval :       57.80    65.25    75.04    82.93    86.04    91.70
eigval :      105.00   107.58   114.33   118.96   124.73   137.44
eigval :      139.70   145.77   151.94   166.01   171.06   177.51
eigval :      196.96   210.52   226.37   234.74   235.80   237.72
eigval :      247.28   249.01   264.91   265.66   266.23   283.14
eigval :      287.66   291.34   302.07   309.12   341.79   357.36
eigval :      360.64   375.62   380.96   384.63   391.57   396.00
eigval :      397.92   417.17   418.59   419.17   425.40   429.06
eigval :      430.17   434.43   437.17   441.06   445.30   450.61
eigval :      456.22   473.81   478.22   496.50   505.18   506.02
eigval :      507.81   512.00   516.94   519.90   525.42   527.32
eigval :      541.94   547.78   562.03   566.33   568.59   577.13
eigval :      582.28   584.29   595.99   614.01   615.77   620.03
eigval :      622.21   635.90   649.74   655.31   662.87   663.62
eigval :      665.06   666.02   669.14   679.94   680.61   688.74
eigval :      691.87   697.34   699.57   709.96   719.08   726.45
eigval :      763.32   776.05   776.82   777.45   778.90   780.47
eigval :      781.13   798.41   810.31   810.52   820.75   821.60
eigval :      823.78   826.38   833.12   853.19   853.67   853.79
eigval :      857.52   864.99   868.27   869.05   869.97   879.63
eigval :      882.63   884.73   897.84   900.54   901.28   901.80
eigval :      903.00   914.90   914.98   915.31   915.39   915.56
eigval :      916.07   917.55   918.52   919.76   919.84   926.06
eigval :      926.91   927.15   958.29   997.57  1002.24  1006.39
eigval :     1031.10  1031.85  1037.95  1038.53  1063.62  1085.76
eigval :     1085.87  1087.09  1087.87  1101.46  1103.45  1109.36
eigval :     1109.63  1115.13  1121.11  1128.41  1140.60  1145.76
eigval :     1147.53  1165.59  1166.77  1172.24  1173.19  1180.09
eigval :     1181.21  1182.44  1183.59  1193.72  1199.87  1201.63
eigval :     1202.10  1202.51  1215.21  1216.75  1224.21  1227.26
eigval :     1238.94  1239.39  1245.21  1247.69  1253.51  1255.37
eigval :     1256.24  1258.72  1265.08  1267.65  1277.77  1280.84
eigval :     1293.45  1294.92  1302.20  1306.85  1307.90  1313.45
eigval :     1315.36  1317.84  1322.73  1324.33  1338.97  1339.19
eigval :     1346.34  1356.16  1371.55  1399.29  1399.99  1400.67
eigval :     1403.46  1412.41  1418.60  1420.07  1420.82  1432.72
eigval :     1436.08  1440.56  1441.79  1454.65  1459.04  1459.66
eigval :     1465.47  1473.02  1473.40  1474.27  1476.87  1480.65
eigval :     1485.55  1487.58  1489.36  1491.39  1504.75  1511.13
eigval :     1526.50  1541.12  1560.60  1560.79  1562.71  1569.68
eigval :     1569.96  1574.96  1576.18  1576.69  1578.88  1579.88
eigval :     1590.10  1592.88  1597.15  1598.70  2993.20  3005.92
eigval :     3022.81  3027.49  3035.45  3048.32  3059.53  3062.22
eigval :     3063.51  3069.99  3071.06  3076.87  3079.22  3083.35
eigval :     3088.06  3088.19  3089.23  3090.58  3091.11  3091.12
eigval :     3092.11  3092.91  3097.78  3099.45  3099.59  3099.92
eigval :     3100.06  3100.30  3100.31  3107.39  3107.53  3107.95
eigval :     3108.31  3108.73  3111.58  3111.82  3112.24  3112.96

   temp. (K)  partition function   enthalpy   heat capacity  entropy
                                   cal/mol     cal/K/mol   cal/K/mol   J/K/mol
 298.15  VIB  0.310E+24            30219.438    190.502    187.438
         ROT  0.240E+09              888.752      2.981     41.331
         INT  0.746E+32            31108.190    193.483    228.768
         TR   0.228E+29             1481.254      4.968     45.980
         TOT                       32589.4438   198.4513   274.7483  1149.5468

       T/K    H(0)-H(T)+PV         H(T)/Eh          T*S/Eh         G(T)/Eh
   ------------------------------------------------------------------------
    298.15    0.519346E-01    0.824927E+00    0.130542E+00    0.694385E+00
   ------------------------------------------------------------------------

         :::::::::::::::::::::::::::::::::::::::::::::::::::::
         ::                  THERMODYNAMIC                  ::
         :::::::::::::::::::::::::::::::::::::::::::::::::::::
         :: total free energy        -162.836143672524 Eh   ::
         ::.................................................::
         :: total energy             -163.530529155132 Eh   ::
         :: zero point energy           0.772992672461 Eh   ::
         :: G(RRHO) w/o ZPVE           -0.078607189852 Eh   ::
         :: G(RRHO) contrib.            0.694385482609 Eh   ::
         :::::::::::::::::::::::::::::::::::::::::::::::::::::

           -------------------------------------------------
          | TOTAL ENERGY             -163.530529155132 Eh   |
          | TOTAL ENTHALPY           -162.705601898164 Eh   |
          | TOTAL FREE ENERGY        -162.836143672524 Eh   |
          | GRADIENT NORM               0.000039049691 Eh/α |
          | HOMO-LUMO GAP               0.834200380835 eV   |
           -------------------------------------------------

 * finished run on 2025/07/17 at 18:10:43.733
