   * xtb version 6.7.1 (edcfbbe) compiled by 'albert@albert-system' on 2024-07-22

   ID    Z sym.   atoms
    1    6 C      1-10, 12-16, 18-23, 25-35, 37-42, 44-53, 55-64
    2    7 N      11, 17, 36, 54
    3    8 O      24, 43
    4    1 H      65-102

          program call               : xtb data2507/toluene/oDTBPZ-DPXZ/oDTBPZ-DPXZ_toluene_T1_crest.xyz --gfn 2 --uhf 2 --gbsa toluene --ohess vtight --parallel 40 --molden --ceasefiles --namespace data2507/toluene/oDTBPZ-DPXZ/oDTBPZ-DPXZ_toluene_T1_finalOpt
      * Solvation model:               GBSA
        Solvent                        toluene
        Solvent mass                       9.2140E+01 g/mol
          :  Hamiltonian                  GFN2-xTB          :
 * total energy  :  -163.5302826 Eh     change       -0.6077840E-08 Eh
 * total energy  :  -163.5303728 Eh     change       -0.9024965E-04 Eh
 * total energy  :  -163.5304205 Eh     change       -0.4772742E-04 Eh
 * total energy  :  -163.5304321 Eh     change       -0.1155179E-04 Eh
 * total energy  :  -163.5304404 Eh     change       -0.8254951E-05 Eh
 * total energy  :  -163.5304475 Eh     change       -0.7162386E-05 Eh
 * total energy  :  -163.5304545 Eh     change       -0.6957451E-05 Eh
 * total energy  :  -163.5304590 Eh     change       -0.4526344E-05 Eh
 * total energy  :  -163.5304628 Eh     change       -0.3831006E-05 Eh
 * total energy  :  -163.5304667 Eh     change       -0.3890455E-05 Eh
 * total energy  :  -163.5305137 Eh     change       -0.4770276E-06 Eh
 * total energy  :  -163.5305142 Eh     change       -0.4386504E-06 Eh
 * total energy  :  -163.5305145 Eh     change       -0.3111354E-06 Eh
 * total energy  :  -163.5305147 Eh     change       -0.2415850E-06 Eh
 * total energy  :  -163.5305150 Eh     change       -0.2715541E-06 Eh
 * total energy  :  -163.5305153 Eh     change       -0.2940525E-06 Eh
 * total energy  :  -163.5305156 Eh     change       -0.3036718E-06 Eh
 * total energy  :  -163.5305158 Eh     change       -0.2086788E-06 Eh
 * total energy  :  -163.5305158 Eh     change       -0.4662218E-07 Eh
   *** GEOMETRY OPTIMIZATION CONVERGED AFTER 42 ITERATIONS ***

 final structure:
================
102
 xtb: 6.7.1 (edcfbbe)
C            7.97216608129242       -0.77180097712895       -1.96355733179223
C            8.14846515135677       -1.58191067990169       -0.71520161190345
C            9.28757533907560       -2.36311375843802       -0.56128725929565
C            9.47548963574061       -3.15338468783763        0.55738694696516
C            8.50378876560104       -3.18784658979466        1.54346573141627
C            7.36644068607503       -2.41593779693960        1.40540406341920
C            7.18493580372730       -1.59312429617211        0.29597181645306
C            5.94534030125618       -0.78894255186639        0.22459537190291
C            4.73120053407172       -1.45996435604554        0.16391640774984
C            3.51635029164897       -0.78101016900911        0.11301297951443
N            2.34384579040357       -1.42257408968146        0.05188733196181
C            1.20053582824236       -0.74648544096648        0.01128710150340
C           -0.04809783352183       -1.43727558669208       -0.05861439444546
C           -0.05390147494802       -2.84300131410447       -0.06417685351165
C           -1.22524289727142       -3.54816591806291       -0.09979613295508
C           -2.44391514320527       -2.85237061915741       -0.15225643659697
N           -3.66248892981464       -3.57619290779942       -0.17001424013106
C           -4.54083354152493       -3.51537176420659        0.90903782933359
C           -4.30494609483390       -2.71224325739024        2.02132209325278
C           -5.20611504911579       -2.67465927211615        3.07227825140251
C           -6.35381696791752       -3.44523541094284        3.04012457349022
C           -6.59341177290640       -4.27027046912925        1.95231557361776
C           -5.69762591533098       -4.31138535309004        0.89808835963792
O           -5.98921429824794       -5.16881573539811       -0.13269669817905
C           -5.12077273209805       -5.20551902508062       -1.19393148895454
C           -5.43691393311189       -6.05427602300321       -2.24015251824708
C           -4.61473977195753       -6.12296770701556       -3.35435890993581
C           -3.48605516090250       -5.32660196323484       -3.42186430115834
C           -3.16313727725913       -4.47653713096009       -2.37736679619873
C           -3.96145738646484       -4.41544511065572       -1.23879160707769
C           -2.45979959855241       -1.47463557345675       -0.17122540929227
C           -1.27462597412291       -0.72759454426975       -0.11058532694975
C           -1.25990172069301        0.71227984294561       -0.07872039491884
C           -2.42967332614510        1.48474624501783       -0.11316376034266
C           -2.38695014004490        2.85978036081707       -0.03459313745192
N           -3.59140874393987        3.60713650978168       -0.03354793533172
C           -3.86835636738008        4.48928402531687       -1.07343633749163
C           -3.05408942154791        4.58741200227743       -2.19804931918998
C           -3.35644767615969        5.47905320891039       -3.21371366625233
C           -4.47987543954625        6.28138456538017       -3.13110410577391
C           -5.31716258113423        6.17757671866277       -2.03095896234330
C           -5.02187135322549        5.28693584546404       -1.01389893529522
O           -5.90525672960341        5.21710492220041        0.03326134412000
C           -5.63565403240970        4.31763260776476        1.03371781753898
C           -6.54707039021164        4.24279380318289        2.07256036736948
C           -6.33007618172494        3.37339862501835        3.13017230011966
C           -5.18942060273631        2.59194071536360        3.14802636995418
C           -4.27284972799228        2.66284377357578        2.11219857390248
C           -4.48580393318318        3.51158771146901        1.02954454018382
C           -1.15560216479153        3.52802138159015        0.05838047578078
C            0.00161119365310        2.79864533926446        0.06912948484325
C           -0.01992170490546        1.39458060619458        0.00866600141914
C            1.21552329729054        0.67661459608429        0.04591196432852
N            2.37177320650708        1.32648569189253        0.11371995016269
C            3.53239139340508        0.65865387358818        0.14240074808864
C            4.75949239964762        1.31134991984962        0.21459826794254
C            5.96267792223723        0.61581797435942        0.24708712647973
C            7.23144788284306        1.35846518265173        0.37823220840721
C            8.07151557612413        1.05498044673910        1.44773837276199
C            9.26407502102865        1.72619587186826        1.63491088867410
C            9.63664693836684        2.72000594077814        0.74570550262693
C            8.80952105774965        3.02867415482644       -0.31826926783991
C            7.60520343702080        2.36420447720485       -0.52067511891786
C            6.76560654600396        2.73727479567529       -1.70806020328313
H            8.42425274172153       -1.28116860541265       -2.81232429647842
H            6.91826017833807       -0.60290150150779       -2.17221974555396
H            8.45723575225105        0.19763211735931       -1.85221709332483
H           10.03696180190120       -2.35345282142433       -1.34067544795196
H           10.37141633274329       -3.74941271101657        0.65515688987128
H            8.63126316538500       -3.81288958726423        2.41565224259184
H            6.60439349417274       -2.43200420034547        2.17309927718415
H            4.71286905476328       -2.53994369513876        0.13902712568604
H            0.89998306311176       -3.34632785930795       -0.02190128212967
H           -1.22699924853578       -4.62750148893262       -0.08201482253842
H           -3.40492076062170       -2.12020133793060        2.06673793704403
H           -4.99997740590117       -2.03975875727153        3.91997438322670
H           -7.05825391013766       -3.41695646536982        3.85614333684798
H           -7.46973130194817       -4.89704285736330        1.90235056791670
H           -6.33257501236950       -6.65015343301706       -2.16306883275277
H           -4.86548749550100       -6.78959173194637       -4.16412615414687
H           -2.84806291893850       -5.35927408854356       -4.29148627431305
H           -2.28641215336221       -3.85189800656586       -2.44295461365461
H           -3.41634848097644       -0.97968557009257       -0.22611430565620
H           -3.39525434128515        1.01184478288331       -0.19650117997057
H           -2.18113573077354        3.95897058423057       -2.27603418824487
H           -2.70681613681186        5.53915476783421       -4.07319627780298
H           -4.71490056791192        6.97968172234770       -3.91860764091303
H           -6.20914644645570        6.77740946168393       -1.94266078674670
H           -7.41769890741066        4.87829345724408        2.03453114845108
H           -7.04624556944112        3.31912627103680        3.93460650160801
H           -5.00114292650523        1.92175306238864        3.97236759127534
H           -3.37885809417464        2.06096081872430        2.14644397363203
H           -1.13663493621311        4.60523643008093        0.12516251422907
H            0.96478102451556        3.28058988601986        0.14011659840253
H            4.75549131284010        2.38915888515893        0.27032376749702
H            7.77260696383713        0.28885560294223        2.14788497812905
H            9.89901198497339        1.47458016917511        2.47197883873282
H           10.56797987614418        3.25113479050198        0.87966886317714
H            9.10280197456968        3.80134668463300       -1.01582611547728
H            7.40158544503518        2.96621731298547       -2.56144377926603
H            6.17536864117353        3.62725241806818       -1.48730249441233
H            6.08242888931585        1.93729145399374       -1.97993668893781

          :  Hamiltonian                  GFN2-xTB          :
         :: gradient norm              0.000091109846 Eh/a0 ::
         :: HOMO-LUMO gap              0.834216625453 eV    ::
         :: SCC energy              -166.435371011053 Eh    ::
         :: -> dispersion             -0.150669303118 Eh    ::
         :: -> Gsolv                  -0.067121342100 Eh    ::
         :: repulsion energy           2.904855164289 Eh    ::

    * Orbital Energies and Occupations

         #    Occupation            Energy/Eh            Energy/eV
      -------------------------------------------------------------
         1        2.0000           -0.7402857             -20.1442
       ...           ...                  ...                  ...
       140        2.0000           -0.4005091             -10.8984
       141        2.0000           -0.3994123             -10.8686
       142        2.0000           -0.3987554             -10.8507
       143        2.0000           -0.3965282             -10.7901
       144        2.0000           -0.3954773             -10.7615
       145        2.0000           -0.3932027             -10.6996
       146        2.0000           -0.3874394             -10.5428
       147        2.0000           -0.3812881             -10.3754
       148        2.0000           -0.3777300             -10.2786
       149        1.8806           -0.3513406              -9.5605
       150        1.8477           -0.3510730              -9.5532
       151        1.2717           -0.3485053              -9.4833
       152        1.0000           -0.2983168              -8.1176 (HOMO)
       153                         -0.2676596              -7.2834 (LUMO)
       154                         -0.2584482              -7.0327
       155                         -0.2472574              -6.7282
       156                         -0.2472258              -6.7274
       157                         -0.2372850              -6.4569
       158                         -0.2371796              -6.4540
       159                         -0.2313083              -6.2942
       160                         -0.2290696              -6.2333
       161                         -0.2228674              -6.0645
       162                         -0.2217546              -6.0342
       163                         -0.2180816              -5.9343
       ...                                ...                  ...
       294                          0.7103771              19.3303
      -------------------------------------------------------------
                  HL-Gap            0.0306572 Eh            0.8342 eV

     #   Z          covCN         q      C6AA      α(0)
     1   6 C        3.758    -0.106    22.571     6.773
     2   6 C        2.968     0.012    27.736     8.639
     3   6 C        2.926    -0.042    29.032     8.836
     4   6 C        2.918    -0.035    28.879     8.812
     5   6 C        2.918    -0.037    28.921     8.819
     6   6 C        2.927    -0.036    28.898     8.816
     7   6 C        2.981     0.003    27.948     8.672
     8   6 C        2.977     0.000    28.017     8.682
     9   6 C        2.924    -0.067    29.671     8.933
    10   6 C        2.942     0.084    26.129     8.384
    11   7 N        1.848    -0.263    27.675     7.797
    12   6 C        2.944     0.079    26.227     8.399
    13   6 C        2.986    -0.013    28.319     8.729
    14   6 C        2.923    -0.029    28.718     8.788
    15   6 C        2.917    -0.044    29.102     8.846
    16   6 C        2.919     0.055    26.756     8.482
    17   7 N        2.752    -0.053    22.267     7.008
    18   6 C        2.922     0.044    27.014     8.523
    19   6 C        2.922    -0.057    29.419     8.895
    20   6 C        2.918    -0.035    28.874     8.812
    21   6 C        2.919    -0.036    28.907     8.817
    22   6 C        2.918    -0.055    29.374     8.888
    23   6 C        2.883     0.125    25.247     8.237
    24   8 O        1.709    -0.254    18.216     5.762
    25   6 C        2.883     0.125    25.248     8.238
    26   6 C        2.918    -0.056    29.379     8.888
    27   6 C        2.919    -0.036    28.905     8.816
    28   6 C        2.918    -0.035    28.875     8.812
    29   6 C        2.922    -0.056    29.387     8.890
    30   6 C        2.924     0.044    27.003     8.522
    31   6 C        2.922    -0.047    29.168     8.857
    32   6 C        2.976    -0.003    28.084     8.693
    33   6 C        2.976    -0.002    28.079     8.692
    34   6 C        2.922    -0.047    29.167     8.857
    35   6 C        2.919     0.056    26.752     8.482
    36   7 N        2.752    -0.053    22.265     7.008
    37   6 C        2.923     0.044    27.003     8.522
    38   6 C        2.922    -0.056    29.389     8.890
    39   6 C        2.918    -0.035    28.876     8.812
    40   6 C        2.919    -0.036    28.905     8.816
    41   6 C        2.918    -0.056    29.379     8.888
    42   6 C        2.883     0.125    25.248     8.238
    43   8 O        1.709    -0.255    18.216     5.763
    44   6 C        2.883     0.125    25.247     8.238
    45   6 C        2.918    -0.055    29.374     8.888
    46   6 C        2.919    -0.036    28.907     8.817
    47   6 C        2.918    -0.035    28.874     8.812
    48   6 C        2.922    -0.057    29.418     8.895
    49   6 C        2.922     0.044    27.015     8.523
    50   6 C        2.917    -0.044    29.103     8.846
    51   6 C        2.923    -0.029    28.717     8.788
    52   6 C        2.986    -0.012    28.318     8.729
    53   6 C        2.943     0.080    26.222     8.398
    54   7 N        1.848    -0.262    27.656     7.794
    55   6 C        2.942     0.083    26.157     8.388
    56   6 C        2.923    -0.067    29.660     8.931
    57   6 C        2.975     0.001    27.995     8.679
    58   6 C        2.979     0.004    27.930     8.669
    59   6 C        2.926    -0.035    28.868     8.811
    60   6 C        2.918    -0.037    28.910     8.817
    61   6 C        2.918    -0.035    28.878     8.812
    62   6 C        2.926    -0.043    29.070     8.842
    63   6 C        2.968     0.012    27.734     8.638
    64   6 C        3.758    -0.106    22.585     6.776
    65   1 H        0.925     0.045     2.389     2.417
    66   1 H        0.925     0.038     2.472     2.459
    67   1 H        0.925     0.052     2.301     2.372
    68   1 H        0.925     0.031     2.570     2.507
    69   1 H        0.926     0.029     2.604     2.524
    70   1 H        0.926     0.028     2.622     2.532
    71   1 H        0.925     0.023     2.685     2.563
    72   1 H        0.926     0.035     2.513     2.479
    73   1 H        0.926     0.052     2.295     2.369
    74   1 H        0.926     0.043     2.406     2.426
    75   1 H        0.926     0.046     2.370     2.408
    76   1 H        0.926     0.048     2.345     2.395
    77   1 H        0.926     0.049     2.330     2.387
    78   1 H        0.926     0.054     2.265     2.353
    79   1 H        0.926     0.054     2.265     2.353
    80   1 H        0.926     0.049     2.335     2.390
    81   1 H        0.926     0.047     2.355     2.400
    82   1 H        0.926     0.045     2.378     2.412
    83   1 H        0.926     0.047     2.359     2.402
    84   1 H        0.926     0.047     2.361     2.403
    85   1 H        0.926     0.046     2.376     2.410
    86   1 H        0.926     0.047     2.354     2.399
    87   1 H        0.926     0.049     2.335     2.390
    88   1 H        0.926     0.054     2.265     2.354
    89   1 H        0.926     0.054     2.265     2.353
    90   1 H        0.926     0.049     2.330     2.387
    91   1 H        0.926     0.048     2.345     2.395
    92   1 H        0.926     0.046     2.371     2.408
    93   1 H        0.926     0.044     2.400     2.422
    94   1 H        0.926     0.053     2.285     2.364
    95   1 H        0.926     0.042     2.425     2.435
    96   1 H        0.926     0.024     2.669     2.555
    97   1 H        0.926     0.026     2.641     2.541
    98   1 H        0.926     0.029     2.607     2.525
    99   1 H        0.925     0.032     2.563     2.503
   100   1 H        0.925     0.046     2.375     2.410
   101   1 H        0.924     0.047     2.353     2.399
   102   1 H        0.925     0.042     2.421     2.433

molecular dipole:
                 x           y           z       tot (Debye)
 q only:       -2.456       0.306      -0.505
   full:       -2.335       0.277      -0.441       6.081

 projected vibrational frequencies (cm⁻¹)
eigval :       -0.00    -0.00    -0.00    -0.00     0.00     0.00
eigval :        6.91    11.14    12.91    16.69    19.60    24.81
eigval :       30.27    32.41    39.52    40.70    45.51    48.07
eigval :       57.41    65.15    75.08    83.15    85.75    91.36
eigval :      104.23   107.46   113.73   118.90   124.40   138.48
eigval :      141.69   146.05   150.27   163.70   169.80   178.69
eigval :      197.69   211.99   224.63   231.98   234.66   241.00
eigval :      247.14   248.91   264.30   265.72   266.21   284.50
eigval :      287.25   291.34   301.56   309.57   344.09   357.12
eigval :      359.74   375.59   381.64   384.50   391.10   396.11
eigval :      397.67   416.99   418.22   419.53   424.93   428.76
eigval :      429.28   436.26   437.60   441.15   444.78   449.65
eigval :      459.55   472.36   478.07   496.80   505.12   505.69
eigval :      507.92   512.16   516.67   519.74   525.42   527.25
eigval :      542.29   547.95   561.70   566.33   568.49   577.07
eigval :      582.27   584.18   596.04   613.84   615.50   621.41
eigval :      622.22   635.35   650.01   655.75   662.67   663.45
eigval :      664.88   666.05   669.16   680.18   681.87   688.43
eigval :      691.73   697.65   699.75   710.07   719.85   726.15
eigval :      763.17   774.01   775.16   776.72   779.01   779.90
eigval :      780.28   798.09   810.39   810.58   820.70   821.51
eigval :      823.60   827.05   832.64   852.96   853.44   853.71
eigval :      856.94   863.34   867.75   868.75   869.37   880.01
eigval :      881.47   881.80   897.74   900.28   901.08   901.53
eigval :      902.33   914.24   914.43   914.69   915.16   915.38
eigval :      915.85   916.41   919.13   919.21   919.53   924.50
eigval :      925.42   927.10   958.39   997.62  1001.07  1006.90
eigval :     1031.65  1032.78  1037.68  1038.04  1063.65  1085.45
eigval :     1086.41  1086.97  1088.09  1098.59  1103.48  1108.99
eigval :     1109.31  1114.88  1120.76  1128.37  1140.68  1145.80
eigval :     1147.31  1165.55  1166.60  1171.87  1173.16  1178.95
eigval :     1180.35  1182.41  1183.12  1193.66  1199.80  1200.42
eigval :     1201.97  1202.43  1215.08  1216.48  1224.09  1227.14
eigval :     1238.18  1239.25  1244.81  1247.30  1252.23  1254.40
eigval :     1255.96  1258.46  1263.69  1267.69  1277.65  1280.79
eigval :     1293.57  1294.88  1302.07  1306.80  1307.83  1313.42
eigval :     1315.36  1317.77  1322.45  1324.11  1338.95  1339.06
eigval :     1346.15  1356.20  1371.50  1399.24  1399.63  1400.62
eigval :     1403.20  1412.52  1418.50  1419.93  1420.75  1432.64
eigval :     1436.14  1440.52  1441.55  1454.62  1458.82  1459.57
eigval :     1465.31  1472.42  1473.12  1473.97  1476.97  1480.37
eigval :     1485.38  1487.45  1488.85  1491.49  1504.60  1510.99
eigval :     1526.50  1540.85  1560.55  1560.72  1562.79  1569.63
eigval :     1569.86  1574.94  1576.18  1576.67  1578.78  1579.86
eigval :     1590.13  1592.81  1597.04  1598.27  2992.59  3006.30
eigval :     3022.48  3027.10  3034.75  3046.56  3058.29  3061.75
eigval :     3063.83  3069.54  3071.04  3076.50  3079.31  3083.29
eigval :     3087.42  3088.45  3089.53  3090.75  3091.08  3091.38
eigval :     3091.93  3092.75  3097.96  3099.09  3099.62  3099.78
eigval :     3099.83  3100.08  3100.42  3107.08  3107.43  3107.65
eigval :     3108.06  3108.83  3111.75  3111.83  3111.93  3112.62

   temp. (K)  partition function   enthalpy   heat capacity  entropy
                                   cal/mol     cal/K/mol   cal/K/mol   J/K/mol
 298.15  VIB  0.851E+24            30252.252    190.316    188.263
         ROT  0.240E+09              888.752      2.981     41.331
         INT  0.205E+33            31141.004    193.297    229.593
         TR   0.228E+29             1481.254      4.968     45.980
         TOT                       32622.2581   198.2652   275.5732  1152.9984

       T/K    H(0)-H(T)+PV         H(T)/Eh          T*S/Eh         G(T)/Eh
   ------------------------------------------------------------------------
    298.15    0.519869E-01    0.824819E+00    0.130934E+00    0.693886E+00
   ------------------------------------------------------------------------

         :::::::::::::::::::::::::::::::::::::::::::::::::::::
         ::                  THERMODYNAMIC                  ::
         :::::::::::::::::::::::::::::::::::::::::::::::::::::
         :: total free energy        -162.836630340767 Eh   ::
         ::.................................................::
         :: total energy             -163.530515848488 Eh   ::
         :: zero point energy           0.772832368769 Eh   ::
         :: G(RRHO) w/o ZPVE           -0.078946861049 Eh   ::
         :: G(RRHO) contrib.            0.693885507721 Eh   ::
         :::::::::::::::::::::::::::::::::::::::::::::::::::::

           -------------------------------------------------
          | TOTAL ENERGY             -163.530515848488 Eh   |
          | TOTAL ENTHALPY           -162.705696602375 Eh   |
          | TOTAL FREE ENERGY        -162.836630340767 Eh   |
          | GRADIENT NORM               0.000078849782 Eh/α |
          | HOMO-LUMO GAP               0.834225742354 eV   |
           -------------------------------------------------

 * finished run on 2025/07/17 at 18:21:24.325
