   * xtb version 6.7.1 (edcfbbe) compiled by 'albert@albert-system' on 2024-07-22

   ID    Z sym.   atoms
    1    6 C      1-10, 12-16, 18-23, 25-35, 37-42, 44-53, 55-64
    2    7 N      11, 17, 36, 54
    3    8 O      24, 43
    4    1 H      65-102

          program call               : xtb data2507/toluene/oDTBPZ-DPXZ/oDTBPZ-DPXZ.xyz --gfn 2 --gbsa toluene --ohess vtight --parallel 40 --molden --ceasefiles --namespace data2507/toluene/oDTBPZ-DPXZ/oDTBPZ-DPXZ_toluene_S0_preOpt
      * Solvation model:               GBSA
        Solvent                        toluene
        Solvent mass                       9.2140E+01 g/mol
          :  Hamiltonian                  GFN2-xTB          :
 * total energy  :  -163.5436074 Eh     change       -0.2511428E-08 Eh
 * total energy  :  -163.5629123 Eh     change       -0.1930488E-01 Eh
 * total energy  :  -163.5690437 Eh     change       -0.6131443E-02 Eh
 * total energy  :  -163.5708885 Eh     change       -0.1844821E-02 Eh
 * total energy  :  -163.5722909 Eh     change       -0.1402317E-02 Eh
 * total energy  :  -163.5729340 Eh     change       -0.6431618E-03 Eh
 * total energy  :  -163.5732036 Eh     change       -0.2695642E-03 Eh
 * total energy  :  -163.5733139 Eh     change       -0.1102846E-03 Eh
 * total energy  :  -163.5734292 Eh     change       -0.1153373E-03 Eh
 * total energy  :  -163.5736098 Eh     change       -0.1805874E-03 Eh
 * total energy  :  -163.5771993 Eh     change       -0.2715559E-06 Eh
 * total energy  :  -163.5771996 Eh     change       -0.3187122E-06 Eh
 * total energy  :  -163.5771999 Eh     change       -0.3304324E-06 Eh
 * total energy  :  -163.5772002 Eh     change       -0.2813761E-06 Eh
 * total energy  :  -163.5772004 Eh     change       -0.2245296E-06 Eh
 * total energy  :  -163.5772006 Eh     change       -0.1914673E-06 Eh
 * total energy  :  -163.5772008 Eh     change       -0.1809757E-06 Eh
 * total energy  :  -163.5772009 Eh     change       -0.1556459E-06 Eh
 * total energy  :  -163.5772010 Eh     change       -0.9808826E-07 Eh
   *** GEOMETRY OPTIMIZATION CONVERGED AFTER 114 ITERATIONS ***

 final structure:
================
102
 xtb: 6.7.1 (edcfbbe)
C            7.44575058873475       -0.90983813272670       -1.94611408859292
C            7.68516698842566       -1.66123313663524       -0.67198131532133
C            8.83976891580791       -2.42188295179635       -0.53018798214872
C            9.08547951188052       -3.15296192092111        0.61704626038455
C            8.15707338863131       -3.15150858643120        1.64458849452633
C            7.00283117194900       -2.40290757701224        1.51806415411600
C            6.76635864478991       -1.63749938003456        0.37881279087899
C            5.51380216384023       -0.85074219443084        0.31813484151150
C            4.31593697520876       -1.51817311638507        0.29929553125378
C            3.09489203770270       -0.81739342647653        0.25782043051793
N            1.93364568988497       -1.48729284338515        0.22674345227678
C            0.81523929169445       -0.78376548658211        0.19211519124850
C           -0.44937382348994       -1.48146554150316        0.15153767244666
C           -0.46220766014212       -2.88020787266485        0.11950500597371
C           -1.64391220939986       -3.57667697896277        0.06597457448476
C           -2.85349201275480       -2.87546211790279        0.05567215430007
N           -4.07573843717778       -3.57795880363807       -0.01029711302935
C           -4.42216704051200       -4.48592612069666        0.99428950556761
C           -3.66974917064209       -4.63002883084236        2.15399466510870
C           -4.04054922526486       -5.53827905810437        3.13409460438807
C           -5.17524345481648       -6.30901808551419        2.97900567586420
C           -5.95662169618237       -6.15267660057630        1.84314072011982
C           -5.59149447942361       -5.24676815284381        0.86447842868935
O           -6.43351888670056       -5.12499978651824       -0.21624069854561
C           -6.09191715087075       -4.20875010706191       -1.18402491229301
C           -6.95264160620175       -4.09151432488072       -2.25986939126406
C           -6.66498402085976       -3.21447576079619       -3.29557491305693
C           -5.50243444432588       -2.47200820602358       -3.25146028311866
C           -4.63728525519696       -2.58475306097209       -2.17350119412062
C           -4.92450622211107       -3.43603454423076       -1.11284061702720
C           -2.85295614131945       -1.49125441774235        0.10002659281079
C           -1.66135017068140       -0.76216528489862        0.13680226985488
C           -1.63996382760587        0.69462267112593        0.14388774019384
C           -2.81009985391019        1.45811256838057        0.12017219392796
C           -2.77092158860418        2.84208463045894        0.08843567501495
N           -3.97305438496528        3.57971190663115        0.03696415179945
C           -4.83421564963216        3.46895211326524       -1.05940520632018
C           -4.57357775722600        2.62522871102038       -2.13289767863596
C           -5.44968424531187        2.54409741216953       -3.20484539828139
C           -6.59634663036434        3.31172785317057       -3.23019150839518
C           -6.85718461275960        4.18134531332379       -2.18118185827374
C           -5.98583551858828        4.26650571568292       -1.11090122534661
O           -6.30075642782330        5.17626579890891       -0.12804915732928
C           -5.44659791398725        5.26761442293289        0.94617923236486
C           -5.78480341616919        6.16820997133263        1.93929652561721
C           -4.98980405126050        6.29532785891092        3.06933764900236
C           -3.86850588180591        5.50147510972950        3.20368291635582
C           -3.52486114419953        4.59817134415771        2.20919359500426
C           -4.29134487341693        4.48235461715109        1.05555701300690
C           -1.54157185253064        3.50790259384298        0.09767082026847
C           -0.38015687767284        2.77715256774330        0.13959367061550
C           -0.40752539176762        1.37841298606040        0.16005431517785
C            0.83655421012001        0.64390258226581        0.19290233074340
N            1.97550984427605        1.31354304459752        0.22238153148715
C            3.11683211167885        0.60918044642172        0.25199551521896
C            4.35685166864446        1.27553632793252        0.28485050224400
C            5.53712693717922        0.57569297010840        0.31129493263540
C            6.82286683844691        1.29741500804045        0.39792169300784
C            7.66815414167590        1.01687924921398        1.46922478230754
C            8.87563201671249        1.67115717116463        1.61578647915283
C            9.25695160190919        2.61998612360453        0.68211741413296
C            8.42234673503708        2.90634246577272       -0.38196450431350
C            7.20052826754250        2.26194351438879       -0.54258728743342
C            6.34763537980889        2.61476615852110       -1.72618028110248
H            7.93034930302604        0.06497475375691       -1.90079611256933
H            7.86307513594129       -1.45486016519678       -2.79029612768560
H            6.38274658979351       -0.75610051915887       -2.11660617131378
H            9.55498127231898       -2.44173946081245       -1.34044470703744
H            9.99291991410782       -3.73246397571558        0.70524471371980
H            8.33041704707938       -3.73149013349550        2.53929531442442
H            6.27312938892733       -2.39276332675479        2.31630999726286
H            4.28520173218312       -2.59782057214021        0.30364433758769
H            0.48698271774924       -3.39245685081833        0.12438294393162
H           -1.65031874892617       -4.65539726147175        0.02468451718502
H           -2.78857019894169       -4.02417388143847        2.29497568005197
H           -3.43297415265970       -5.63282150081430        4.02102533007909
H           -5.46587869277456       -7.02114568013682        3.73520063352764
H           -6.86000819246306       -6.72421956981075        1.69829583829499
H           -7.84140774374548       -4.70288217962049       -2.27049439753850
H           -7.34404828588555       -3.12822842007019       -4.12905450068533
H           -5.25242839408499       -1.80085749165154       -4.05847334256095
H           -3.72362937185667       -2.01189936935944       -2.16531741515204
H           -3.80681339255205       -0.98902850304542        0.10466747659461
H           -3.77802380688997        0.98355976845354        0.12619621143996
H           -3.67226423703243        2.03309623326583       -2.13920125555269
H           -5.22075719732963        1.87763189985329       -4.02193754576003
H           -7.28370726600914        3.25051646103081       -4.05907231080243
H           -7.73301618957296        4.81117040868612       -2.17682305430411
H           -6.67847951325082        6.75853291377409        1.81042583062537
H           -5.25938485900234        7.00340803917476        3.83700085500411
H           -3.25071393047347        5.57361275794370        4.08565604332862
H           -2.65414636100096        3.97398495119640        2.33419878272298
H           -1.51737141126199        4.58666131291027        0.06572477789115
H            0.58339961409001        3.26184204910892        0.14505610121879
H            4.35061385002237        2.35431318655901        0.30943377019339
H            7.36217416444296        0.28680915798456        2.20360050790892
H            9.51553851002039        1.44043559375266        2.45462878539651
H           10.20112682544662        3.13506859735781        0.78308752955103
H            8.72155559965583        3.64631310307326       -1.11121934791871
H            5.64234173300047        1.82318194258156       -1.96387724997530
H            6.97241517960534        2.80565102719750       -2.59682245674904
H            5.78099325442326        3.52358788504744       -1.52164506396901

          :  Hamiltonian                  GFN2-xTB          :
         :: gradient norm              0.000022946483 Eh/a0 ::
         :: HOMO-LUMO gap              1.046619999883 eV    ::
         :: SCC energy              -166.482104603066 Eh    ::
         :: -> dispersion             -0.150878908425 Eh    ::
         :: -> Gsolv                  -0.065759551867 Eh    ::
         :: repulsion energy           2.904903565182 Eh    ::

    * Orbital Energies and Occupations

         #    Occupation            Energy/Eh            Energy/eV
      -------------------------------------------------------------
         1        2.0000           -0.7310068             -19.8917
       ...           ...                  ...                  ...
       139        2.0000           -0.4143710             -11.2756
       140        2.0000           -0.4081221             -11.1056
       141        2.0000           -0.4039261             -10.9914
       142        2.0000           -0.4025931             -10.9551
       143        2.0000           -0.3984133             -10.8414
       144        2.0000           -0.3962170             -10.7816
       145        2.0000           -0.3923795             -10.6772
       146        2.0000           -0.3919518             -10.6656
       147        2.0000           -0.3888700             -10.5817
       148        2.0000           -0.3884678             -10.5707
       149        2.0000           -0.3559297              -9.6853
       150        2.0000           -0.3458278              -9.4105
       151        2.0000           -0.3450089              -9.3882 (HOMO)
       152                         -0.3065462              -8.3415 (LUMO)
       153                         -0.2745023              -7.4696
       154                         -0.2646496              -7.2015
       155                         -0.2400697              -6.5326
       156                         -0.2399916              -6.5305
       157                         -0.2384863              -6.4895
       158                         -0.2353779              -6.4050
       159                         -0.2315268              -6.3002
       160                         -0.2313946              -6.2966
       161                         -0.2244751              -6.1083
       162                         -0.2221735              -6.0456
       ...                                ...                  ...
       294                          0.7084358              19.2775
      -------------------------------------------------------------
                  HL-Gap            0.0384626 Eh            1.0466 eV

     #   Z          covCN         q      C6AA      α(0)
     1   6 C        3.758    -0.108    22.607     6.779
     2   6 C        2.968     0.015    27.667     8.628
     3   6 C        2.926    -0.040    28.998     8.831
     4   6 C        2.918    -0.033    28.818     8.803
     5   6 C        2.918    -0.035    28.877     8.812
     6   6 C        2.926    -0.034    28.857     8.810
     7   6 C        2.982     0.003    27.958     8.673
     8   6 C        2.976     0.014    27.699     8.633
     9   6 C        2.923    -0.052    29.300     8.877
    10   6 C        2.964     0.081    26.201     8.396
    11   7 N        1.848    -0.265    27.737     7.805
    12   6 C        2.961     0.084    26.128     8.384
    13   6 C        2.987    -0.008    28.221     8.714
    14   6 C        2.923    -0.027    28.688     8.783
    15   6 C        2.918    -0.040    28.987     8.829
    16   6 C        2.919     0.067    26.489     8.440
    17   7 N        2.751    -0.072    22.634     7.066
    18   6 C        2.922     0.042    27.056     8.530
    19   6 C        2.924    -0.060    29.493     8.906
    20   6 C        2.919    -0.039    28.968     8.826
    21   6 C        2.919    -0.041    29.011     8.833
    22   6 C        2.919    -0.058    29.439     8.898
    23   6 C        2.882     0.122    25.309     8.248
    24   8 O        1.708    -0.272    18.503     5.808
    25   6 C        2.883     0.122    25.309     8.248
    26   6 C        2.920    -0.058    29.435     8.897
    27   6 C        2.919    -0.041    29.013     8.833
    28   6 C        2.919    -0.039    28.964     8.825
    29   6 C        2.924    -0.061    29.520     8.910
    30   6 C        2.920     0.042    27.061     8.531
    31   6 C        2.925    -0.047    29.175     8.858
    32   6 C        2.976     0.007    27.868     8.659
    33   6 C        2.976     0.007    27.867     8.659
    34   6 C        2.925    -0.047    29.173     8.857
    35   6 C        2.919     0.067    26.490     8.440
    36   7 N        2.751    -0.072    22.632     7.066
    37   6 C        2.920     0.042    27.062     8.531
    38   6 C        2.924    -0.061    29.520     8.910
    39   6 C        2.919    -0.039    28.964     8.825
    40   6 C        2.919    -0.041    29.013     8.833
    41   6 C        2.920    -0.058    29.435     8.897
    42   6 C        2.882     0.122    25.309     8.248
    43   8 O        1.708    -0.272    18.504     5.808
    44   6 C        2.882     0.122    25.309     8.248
    45   6 C        2.919    -0.058    29.439     8.898
    46   6 C        2.919    -0.041    29.012     8.833
    47   6 C        2.919    -0.039    28.968     8.826
    48   6 C        2.924    -0.060    29.495     8.906
    49   6 C        2.922     0.042    27.056     8.530
    50   6 C        2.918    -0.040    28.988     8.829
    51   6 C        2.923    -0.028    28.689     8.784
    52   6 C        2.987    -0.008    28.220     8.714
    53   6 C        2.960     0.084    26.134     8.385
    54   7 N        1.848    -0.264    27.704     7.801
    55   6 C        2.964     0.080    26.219     8.399
    56   6 C        2.922    -0.052    29.286     8.875
    57   6 C        2.975     0.015    27.666     8.628
    58   6 C        2.980     0.004    27.938     8.670
    59   6 C        2.926    -0.033    28.820     8.804
    60   6 C        2.918    -0.035    28.871     8.811
    61   6 C        2.918    -0.032    28.806     8.801
    62   6 C        2.926    -0.041    29.029     8.836
    63   6 C        2.967     0.016    27.662     8.627
    64   6 C        3.758    -0.109    22.634     6.783
    65   1 H        0.925     0.055     2.256     2.349
    66   1 H        0.925     0.048     2.351     2.398
    67   1 H        0.925     0.038     2.471     2.458
    68   1 H        0.926     0.035     2.514     2.480
    69   1 H        0.926     0.032     2.553     2.499
    70   1 H        0.926     0.032     2.565     2.504
    71   1 H        0.925     0.027     2.633     2.538
    72   1 H        0.926     0.048     2.343     2.394
    73   1 H        0.926     0.064     2.155     2.295
    74   1 H        0.926     0.050     2.322     2.383
    75   1 H        0.926     0.039     2.458     2.452
    76   1 H        0.926     0.042     2.428     2.437
    77   1 H        0.926     0.042     2.416     2.431
    78   1 H        0.926     0.048     2.345     2.394
    79   1 H        0.926     0.048     2.344     2.394
    80   1 H        0.926     0.043     2.413     2.429
    81   1 H        0.926     0.042     2.424     2.435
    82   1 H        0.926     0.040     2.453     2.449
    83   1 H        0.926     0.052     2.299     2.371
    84   1 H        0.926     0.051     2.302     2.372
    85   1 H        0.926     0.040     2.453     2.449
    86   1 H        0.926     0.042     2.425     2.435
    87   1 H        0.926     0.043     2.414     2.430
    88   1 H        0.926     0.048     2.345     2.395
    89   1 H        0.926     0.048     2.345     2.395
    90   1 H        0.926     0.042     2.417     2.431
    91   1 H        0.926     0.042     2.428     2.437
    92   1 H        0.926     0.039     2.457     2.451
    93   1 H        0.926     0.050     2.317     2.380
    94   1 H        0.926     0.065     2.147     2.291
    95   1 H        0.926     0.055     2.264     2.353
    96   1 H        0.926     0.029     2.606     2.525
    97   1 H        0.926     0.030     2.580     2.512
    98   1 H        0.926     0.032     2.552     2.498
    99   1 H        0.926     0.036     2.505     2.475
   100   1 H        0.925     0.043     2.414     2.430
   101   1 H        0.925     0.049     2.335     2.390
   102   1 H        0.924     0.051     2.306     2.375

molecular dipole:
                 x           y           z       tot (Debye)
 q only:        1.402       0.266      -0.369
   full:        1.429       0.240      -0.304       3.762

 projected vibrational frequencies (cm⁻¹)
eigval :       -0.00    -0.00     0.00     0.00     0.00     0.00
eigval :        7.61    13.84    14.36    18.88    21.53    24.29
eigval :       30.85    35.74    37.52    40.79    45.20    49.11
eigval :       54.08    65.40    72.84    83.47    86.69    94.93
eigval :      101.76   105.79   115.67   120.06   129.30   130.83
eigval :      139.56   149.57   150.98   166.24   173.60   186.16
eigval :      197.38   211.22   225.27   233.63   234.51   241.57
eigval :      248.82   251.40   263.76   265.87   268.18   282.67
eigval :      285.34   292.45   302.51   320.45   351.10   356.70
eigval :      364.68   374.86   381.12   388.46   391.08   396.23
eigval :      400.04   417.12   420.90   422.28   425.06   429.63
eigval :      430.49   437.92   441.41   442.61   447.51   448.80
eigval :      455.81   466.30   478.16   494.40   508.13   509.24
eigval :      510.52   515.48   518.85   520.72   524.76   525.09
eigval :      542.49   548.38   568.65   571.46   572.73   578.39
eigval :      582.23   591.25   600.39   614.85   619.03   624.51
eigval :      645.41   647.05   652.64   659.13   659.72   661.14
eigval :      662.45   670.06   673.27   690.14   692.38   693.38
eigval :      699.65   706.57   720.80   732.89   741.44   763.40
eigval :      765.62   775.42   775.96   776.75   779.28   779.78
eigval :      780.24   800.36   810.65   811.69   822.04   832.63
eigval :      833.53   853.12   853.26   854.02   858.17   861.19
eigval :      864.21   868.04   869.18   874.10   882.45   884.47
eigval :      885.43   887.80   896.57   897.79   898.17   899.07
eigval :      905.53   913.13   913.32   914.69   915.93   916.16
eigval :      916.32   916.36   920.97   926.20   926.97   929.60
eigval :      929.74   931.52   976.19  1001.68  1004.03  1006.10
eigval :     1028.04  1029.69  1033.85  1046.74  1064.00  1089.15
eigval :     1089.53  1090.84  1092.17  1101.12  1103.16  1105.70
eigval :     1106.24  1116.30  1121.29  1129.47  1138.53  1144.65
eigval :     1146.99  1166.31  1167.11  1171.96  1173.38  1180.97
eigval :     1181.75  1182.81  1185.60  1194.04  1198.26  1199.22
eigval :     1200.73  1206.47  1212.67  1216.47  1227.63  1228.52
eigval :     1240.13  1242.39  1242.50  1255.09  1260.11  1260.47
eigval :     1262.94  1266.54  1267.80  1276.17  1277.35  1279.81
eigval :     1303.02  1303.85  1306.74  1310.08  1314.34  1315.93
eigval :     1318.96  1325.50  1331.99  1339.00  1347.72  1352.60
eigval :     1356.41  1378.81  1399.39  1399.51  1404.54  1413.52
eigval :     1420.02  1421.01  1422.97  1431.87  1433.69  1438.56
eigval :     1441.89  1442.94  1451.65  1466.37  1473.74  1477.83
eigval :     1478.23  1479.20  1479.55  1480.17  1486.34  1489.29
eigval :     1491.49  1493.65  1501.21  1501.31  1520.59  1542.15
eigval :     1550.63  1565.67  1565.75  1574.43  1575.89  1578.79
eigval :     1579.10  1579.43  1583.22  1587.51  1588.96  1591.48
eigval :     1597.77  1599.25  1601.67  1601.90  2996.23  3009.18
eigval :     3026.24  3029.93  3037.22  3049.22  3064.06  3067.08
eigval :     3068.07  3074.82  3075.71  3083.42  3086.53  3086.68
eigval :     3087.40  3087.45  3089.09  3090.40  3091.58  3092.45
eigval :     3093.70  3094.84  3095.77  3096.32  3096.79  3098.70
eigval :     3103.85  3103.94  3104.34  3104.69  3105.11  3107.49
eigval :     3108.35  3108.92  3109.81  3110.38  3111.42  3115.14

   temp. (K)  partition function   enthalpy   heat capacity  entropy
                                   cal/mol     cal/K/mol   cal/K/mol   J/K/mol
 298.15  VIB  0.387E+24            30093.187    189.274    186.856
         ROT  0.239E+09              888.752      2.981     41.320
         INT  0.925E+32            30981.940    192.255    228.176
         TR   0.228E+29             1481.254      4.968     45.980
         TOT                       32463.1935   197.2229   274.1557  1147.0676

       T/K    H(0)-H(T)+PV         H(T)/Eh          T*S/Eh         G(T)/Eh
   ------------------------------------------------------------------------
    298.15    0.517334E-01    0.827318E+00    0.130260E+00    0.697058E+00
   ------------------------------------------------------------------------

         :::::::::::::::::::::::::::::::::::::::::::::::::::::
         ::                  THERMODYNAMIC                  ::
         :::::::::::::::::::::::::::::::::::::::::::::::::::::
         :: total free energy        -162.880143001558 Eh   ::
         ::.................................................::
         :: total energy             -163.577201035473 Eh   ::
         :: zero point energy           0.775584880325 Eh   ::
         :: G(RRHO) w/o ZPVE           -0.078526846410 Eh   ::
         :: G(RRHO) contrib.            0.697058033915 Eh   ::
         :::::::::::::::::::::::::::::::::::::::::::::::::::::

           -------------------------------------------------
          | TOTAL ENERGY             -163.577201035473 Eh   |
          | TOTAL ENTHALPY           -162.749882763340 Eh   |
          | TOTAL FREE ENERGY        -162.880143001558 Eh   |
          | GRADIENT NORM               0.000022924946 Eh/α |
          | HOMO-LUMO GAP               1.046620781559 eV   |
           -------------------------------------------------

 * finished run on 2025/07/17 at 18:04:22.958
