   * xtb version 6.7.1 (edcfbbe) compiled by 'albert@albert-system' on 2024-07-22

   ID    Z sym.   atoms
    1    6 C      1-10, 12-16, 18-23, 25-35, 37-42, 44-53, 55-64
    2    7 N      11, 17, 36, 54
    3    8 O      24, 43
    4    1 H      65-102

          program call               : xtb data2507/toluene/oDTBPZ-DPXZ/oDTBPZ-DPXZ_toluene_S0_crest.xyz --gfn 2 --gbsa toluene --ohess vtight --parallel 40 --molden --ceasefiles --namespace data2507/toluene/oDTBPZ-DPXZ/oDTBPZ-DPXZ_toluene_S0_finalOpt
      * Solvation model:               GBSA
        Solvent                        toluene
        Solvent mass                       9.2140E+01 g/mol
          :  Hamiltonian                  GFN2-xTB          :
 * total energy  :  -163.5766462 Eh     change       -0.1498478E-08 Eh
 * total energy  :  -163.5767187 Eh     change       -0.7249955E-04 Eh
 * total energy  :  -163.5767641 Eh     change       -0.4536343E-04 Eh
 * total energy  :  -163.5767862 Eh     change       -0.2208232E-04 Eh
 * total energy  :  -163.5768050 Eh     change       -0.1884499E-04 Eh
 * total energy  :  -163.5768374 Eh     change       -0.3236306E-04 Eh
 * total energy  :  -163.5768612 Eh     change       -0.2382898E-04 Eh
 * total energy  :  -163.5769032 Eh     change       -0.4198402E-04 Eh
 * total energy  :  -163.5769325 Eh     change       -0.2925645E-04 Eh
 * total energy  :  -163.5769447 Eh     change       -0.1220710E-04 Eh
 * total energy  :  -163.5771408 Eh     change       -0.2290374E-06 Eh
 * total energy  :  -163.5771410 Eh     change       -0.2446148E-06 Eh
 * total energy  :  -163.5771413 Eh     change       -0.2527657E-06 Eh
 * total energy  :  -163.5771415 Eh     change       -0.2350380E-06 Eh
 * total energy  :  -163.5771418 Eh     change       -0.2297105E-06 Eh
 * total energy  :  -163.5771420 Eh     change       -0.2271707E-06 Eh
 * total energy  :  -163.5771422 Eh     change       -0.1775143E-06 Eh
 * total energy  :  -163.5771423 Eh     change       -0.1232973E-06 Eh
 * total energy  :  -163.5771424 Eh     change       -0.8917894E-07 Eh
   *** GEOMETRY OPTIMIZATION CONVERGED AFTER 58 ITERATIONS ***

 final structure:
================
102
 xtb: 6.7.1 (edcfbbe)
C            7.79396420848521       -0.75966277578459       -2.37252040583152
C            8.07574293110076       -1.55004238965993       -1.13104939961387
C            9.23776998821424       -2.30838991948169       -1.04958370671077
C            9.52168086853069       -3.07595875252129        0.06446114642330
C            8.62538922378429       -3.11351740972423        1.11957712405533
C            7.46456462621173       -2.36748832009573        1.05318185002435
C            7.18957772924517       -1.56633820473199       -0.05258098484286
C            5.93130366303347       -0.78667019500694       -0.04615756704878
C            4.73805163076127       -1.46274626974480       -0.03968033262433
C            3.51159925902739       -0.77104236373040       -0.00820556897465
N            2.35458145917783       -1.44904266433101       -0.00709774266547
C            1.23118284877721       -0.75383599228167        0.03358415625110
C           -0.02930711907605       -1.46012034339807        0.03907943718487
C           -0.03473625843416       -2.85783253283216       -0.02441219135438
C           -1.21291803705603       -3.56228006831457       -0.02477788609412
C           -2.42567383326864       -2.87091043517337        0.05302907452173
N           -3.64429050170563       -3.58249939727165        0.05342252057139
C           -3.92047742892951       -4.50631820981496        1.06550675415687
C           -3.08879244677843       -4.67002905190911        2.16708199723374
C           -3.39114495456636       -5.59441124988769        3.15561383515480
C           -4.53468912215767       -6.36259306587262        3.06761624060655
C           -5.39376375154308       -6.18682969696958        1.99236505531875
C           -5.09722198625244       -5.26455461847220        1.00583762992654
O           -6.01394060457101       -5.12365077780112       -0.00982727222970
C           -5.74159306759680       -4.18958435684525       -0.98246125140273
C           -6.67846887405829       -4.05043630863416       -1.98986656241505
C           -6.46405229364402       -3.15528821209952       -3.02779744255038
C           -5.29802832009559       -2.41739428751494       -3.05616867322406
C           -4.35697436624107       -2.55152636561090       -2.04643667249318
C           -4.56980476248741       -3.42025682909632       -0.98236978399201
C           -2.43184156629848       -1.48777583647296        0.12356269355488
C           -1.24512119426796       -0.75015056470706        0.10569231464944
C           -1.23327399005054        0.70635307706845        0.14074072089294
C           -2.40838322595527        1.46147916122941        0.18170172301974
C           -2.37974939588662        2.84613693898931        0.17589269065103
N           -3.58748238578955        3.57592826316310        0.18616000652590
C           -4.49219690184592        3.47747517689214       -0.87597283211855
C           -4.27246021814179        2.65114262978134       -1.97194458039855
C           -5.19253444691668        2.58021294005319       -3.00713280977784
C           -6.34378989123444        3.34063420845940       -2.97270207590918
C           -6.56404945432341        4.19455818787370       -1.90180653201220
C           -5.64820841878798        4.27028568522103       -0.86856895523488
O           -5.92480261165834        5.16637923790566        0.13797063923156
C           -5.02606378450068        5.24890829405446        1.17583490091003
C           -5.32372821144927        6.13844039263014        2.19164995742482
C           -4.48321157841560        6.25395324847488        3.28951828770968
C           -3.35724369787590        5.45931345115210        3.36941190712835
C           -3.05353637818181        4.56809445958720        2.35131522120786
C           -3.86591607850342        4.46502619417137        1.22823389405031
C           -1.15530985361973        3.52062897913695        0.14920610534735
C            0.01149186264291        2.79783874298167        0.12717894742623
C           -0.00586700586802        1.39881891998742        0.11752322968722
C            1.24311516791127        0.67334856512715        0.07544142351570
N            2.37770313373823        1.35094419247595        0.07307573910465
C            3.52382455233213        0.65510204457481        0.03080874438667
C            4.75953499242346        1.33008155457555        0.03269358243083
C            5.94474815099409        0.63941899064776       -0.01040313984226
C            7.22757202553750        1.36945126495393        0.04502487769760
C            8.11911497964974        1.06491306680903        1.07131265388848
C            9.32640383117970        1.72565842089681        1.18747750428398
C            9.66094464953571        2.70531868250952        0.26784383293627
C            8.78040727341427        3.01545523628875       -0.75165005055467
C            7.55824123974904        2.36473195905247       -0.88110697468008
C            6.65463601221837        2.74383001150554       -2.01802525810658
H            8.17540702769379       -1.28195986677169       -3.24756261954794
H            6.72653364546576       -0.59463829502759       -2.49830651608611
H            8.28693811977031        0.21042405127637       -2.31705638762493
H            9.92787814480260       -2.29749260915901       -1.88150478590257
H           10.43392481179585       -3.65315114201275        0.10547849526200
H            8.82881594602494       -3.72175816192006        1.98883980617344
H            6.75903708413916       -2.38719817780626        1.87279479239345
H            4.71488384319816       -2.54222626579637       -0.06726679894954
H            0.91660971942695       -3.36256129201592       -0.08447964535047
H           -1.21448981048484       -4.63989111891599       -0.08896369829757
H           -2.19901375965799       -4.06689228257281        2.25643250071347
H           -2.72284338863702       -5.70395747465007        3.99590363459962
H           -4.77235192722125       -7.08746255990103        3.83011230378425
H           -6.30596912397240       -6.75553305358143        1.90192396954740
H           -7.56786655828267       -4.65940727488515       -1.94617683458326
H           -7.20196851386173       -3.05187982955156       -3.80761132640886
H           -5.10488050948550       -1.73299864140480       -3.86766228742036
H           -3.44269416341884       -1.98161694696816       -2.09477099107772
H           -3.38696960545492       -0.99323286873344        0.19595060379800
H           -3.37203964982891        0.97960002317025        0.21717369922374
H           -3.36887842485343        2.06488613010902       -2.02527115710088
H           -4.99420020623677        1.92743331277944       -3.84305581572078
H           -7.06527201075429        3.28652137984464       -3.77260717175461
H           -7.44193895824212        4.81948933262239       -1.85131476659353
H           -6.22232828773805        6.72910686542452        2.10591236994784
H           -4.72144802214490        6.95336444416436        4.07527428161730
H           -2.70459500287652        5.52167230177670        4.22669511926580
H           -2.17806314150577        3.94342386954396        2.43363866577972
H           -1.13924665371425        4.59996405787471        0.13846229972743
H            0.97127755297838        3.28933903181525        0.10237466986870
H            4.74681489224752        2.40747924735866        0.09164087662291
H            7.84961886782737        0.31043478989007        1.79525173700781
H           10.00239211100976        1.47604540632471        1.99192965798137
H           10.60424911417174        3.22602996069955        0.34512205286734
H            9.04310532360020        3.77929096404220       -1.47029172882414
H            7.24178005478361        2.96797561804863       -2.90672787900602
H            6.08737377490837        3.63944748365183       -1.76318740157998
H            5.94850129759381        1.95174840251784       -2.25156700324003

          :  Hamiltonian                  GFN2-xTB          :
         :: gradient norm              0.000037451433 Eh/a0 ::
         :: HOMO-LUMO gap              1.048543295972 eV    ::
         :: SCC energy              -166.481998984709 Eh    ::
         :: -> dispersion             -0.150907295865 Eh    ::
         :: -> Gsolv                  -0.065683477621 Eh    ::
         :: repulsion energy           2.904856608226 Eh    ::

    * Orbital Energies and Occupations

         #    Occupation            Energy/Eh            Energy/eV
      -------------------------------------------------------------
         1        2.0000           -0.7310297             -19.8923
       ...           ...                  ...                  ...
       139        2.0000           -0.4143849             -11.2760
       140        2.0000           -0.4080925             -11.1048
       141        2.0000           -0.4038944             -10.9905
       142        2.0000           -0.4025833             -10.9548
       143        2.0000           -0.3984473             -10.8423
       144        2.0000           -0.3961797             -10.7806
       145        2.0000           -0.3923742             -10.6770
       146        2.0000           -0.3919580             -10.6657
       147        2.0000           -0.3887927             -10.5796
       148        2.0000           -0.3884277             -10.5697
       149        2.0000           -0.3558717              -9.6838
       150        2.0000           -0.3458537              -9.4112
       151        2.0000           -0.3450260              -9.3886 (HOMO)
       152                         -0.3064927              -8.3401 (LUMO)
       153                         -0.2744396              -7.4679
       154                         -0.2645810              -7.1996
       155                         -0.2400725              -6.5327
       156                         -0.2400452              -6.5320
       157                         -0.2384754              -6.4892
       158                         -0.2354289              -6.4063
       159                         -0.2315446              -6.3006
       160                         -0.2314173              -6.2972
       161                         -0.2244853              -6.1086
       162                         -0.2222174              -6.0468
       ...                                ...                  ...
       294                          0.7084564              19.2781
      -------------------------------------------------------------
                  HL-Gap            0.0385333 Eh            1.0485 eV

     #   Z          covCN         q      C6AA      α(0)
     1   6 C        3.758    -0.107    22.606     6.779
     2   6 C        2.968     0.015    27.666     8.628
     3   6 C        2.926    -0.040    28.999     8.831
     4   6 C        2.918    -0.033    28.817     8.803
     5   6 C        2.918    -0.035    28.877     8.812
     6   6 C        2.926    -0.034    28.858     8.810
     7   6 C        2.982     0.003    27.958     8.673
     8   6 C        2.976     0.014    27.701     8.633
     9   6 C        2.923    -0.052    29.302     8.877
    10   6 C        2.964     0.081    26.201     8.396
    11   7 N        1.848    -0.265    27.739     7.806
    12   6 C        2.961     0.084    26.128     8.384
    13   6 C        2.987    -0.008    28.222     8.714
    14   6 C        2.923    -0.027    28.688     8.784
    15   6 C        2.918    -0.040    28.988     8.829
    16   6 C        2.919     0.067    26.490     8.440
    17   7 N        2.751    -0.072    22.630     7.065
    18   6 C        2.922     0.042    27.056     8.530
    19   6 C        2.924    -0.060    29.494     8.906
    20   6 C        2.919    -0.039    28.968     8.826
    21   6 C        2.919    -0.041    29.011     8.833
    22   6 C        2.919    -0.058    29.439     8.898
    23   6 C        2.882     0.122    25.309     8.247
    24   8 O        1.708    -0.272    18.502     5.808
    25   6 C        2.883     0.122    25.310     8.248
    26   6 C        2.920    -0.058    29.435     8.897
    27   6 C        2.919    -0.041    29.013     8.833
    28   6 C        2.919    -0.039    28.964     8.825
    29   6 C        2.924    -0.061    29.519     8.910
    30   6 C        2.920     0.042    27.062     8.531
    31   6 C        2.925    -0.047    29.175     8.858
    32   6 C        2.976     0.007    27.868     8.659
    33   6 C        2.976     0.007    27.868     8.659
    34   6 C        2.925    -0.047    29.175     8.858
    35   6 C        2.919     0.067    26.491     8.440
    36   7 N        2.751    -0.072    22.630     7.065
    37   6 C        2.920     0.042    27.062     8.531
    38   6 C        2.924    -0.061    29.519     8.910
    39   6 C        2.919    -0.039    28.964     8.825
    40   6 C        2.919    -0.041    29.012     8.833
    41   6 C        2.920    -0.058    29.435     8.897
    42   6 C        2.883     0.122    25.309     8.248
    43   8 O        1.708    -0.272    18.502     5.808
    44   6 C        2.882     0.122    25.309     8.247
    45   6 C        2.919    -0.058    29.439     8.898
    46   6 C        2.919    -0.041    29.011     8.833
    47   6 C        2.919    -0.039    28.968     8.826
    48   6 C        2.924    -0.060    29.494     8.906
    49   6 C        2.922     0.042    27.057     8.530
    50   6 C        2.918    -0.040    28.990     8.829
    51   6 C        2.923    -0.028    28.690     8.784
    52   6 C        2.987    -0.008    28.222     8.714
    53   6 C        2.961     0.084    26.133     8.385
    54   7 N        1.848    -0.264    27.707     7.801
    55   6 C        2.964     0.080    26.219     8.399
    56   6 C        2.922    -0.052    29.287     8.875
    57   6 C        2.975     0.015    27.667     8.628
    58   6 C        2.980     0.004    27.937     8.670
    59   6 C        2.926    -0.033    28.819     8.804
    60   6 C        2.918    -0.035    28.870     8.811
    61   6 C        2.918    -0.032    28.807     8.801
    62   6 C        2.926    -0.041    29.030     8.836
    63   6 C        2.967     0.016    27.660     8.627
    64   6 C        3.758    -0.109    22.633     6.783
    65   1 H        0.925     0.048     2.350     2.397
    66   1 H        0.925     0.038     2.469     2.457
    67   1 H        0.925     0.055     2.259     2.350
    68   1 H        0.926     0.035     2.514     2.479
    69   1 H        0.926     0.032     2.553     2.499
    70   1 H        0.926     0.032     2.565     2.504
    71   1 H        0.925     0.027     2.634     2.538
    72   1 H        0.926     0.048     2.343     2.394
    73   1 H        0.926     0.064     2.155     2.296
    74   1 H        0.926     0.050     2.320     2.382
    75   1 H        0.926     0.039     2.458     2.452
    76   1 H        0.926     0.042     2.428     2.437
    77   1 H        0.926     0.042     2.416     2.431
    78   1 H        0.926     0.048     2.344     2.394
    79   1 H        0.926     0.048     2.344     2.394
    80   1 H        0.926     0.043     2.413     2.429
    81   1 H        0.926     0.042     2.423     2.434
    82   1 H        0.926     0.040     2.453     2.449
    83   1 H        0.926     0.052     2.301     2.372
    84   1 H        0.926     0.051     2.302     2.372
    85   1 H        0.926     0.040     2.452     2.449
    86   1 H        0.926     0.042     2.425     2.435
    87   1 H        0.926     0.043     2.413     2.429
    88   1 H        0.926     0.048     2.344     2.394
    89   1 H        0.926     0.048     2.345     2.395
    90   1 H        0.926     0.042     2.416     2.431
    91   1 H        0.926     0.042     2.427     2.436
    92   1 H        0.926     0.040     2.455     2.450
    93   1 H        0.926     0.050     2.318     2.381
    94   1 H        0.926     0.064     2.148     2.292
    95   1 H        0.926     0.054     2.265     2.353
    96   1 H        0.926     0.029     2.608     2.525
    97   1 H        0.926     0.030     2.580     2.512
    98   1 H        0.926     0.032     2.552     2.498
    99   1 H        0.926     0.036     2.505     2.475
   100   1 H        0.925     0.049     2.335     2.389
   101   1 H        0.924     0.051     2.306     2.375
   102   1 H        0.925     0.043     2.416     2.431

molecular dipole:
                 x           y           z       tot (Debye)
 q only:        1.376       0.288      -0.426
   full:        1.405       0.262      -0.363       3.748

 projected vibrational frequencies (cm⁻¹)
eigval :       -0.00    -0.00    -0.00    -0.00     0.00     0.00
eigval :       -3.37     9.30    11.57    16.10    20.12    21.77
eigval :       30.80    34.58    35.92    38.40    44.92    46.17
eigval :       53.71    64.64    72.48    83.12    85.90    94.60
eigval :      100.56   105.20   114.90   118.38   122.43   128.68
eigval :      139.02   148.34   149.98   166.01   171.90   185.70
eigval :      196.78   210.72   225.01   232.91   233.95   240.88
eigval :      248.09   250.85   262.37   265.40   267.58   281.79
eigval :      285.02   291.72   302.66   319.48   350.46   356.19
eigval :      363.54   374.71   381.03   387.55   390.87   395.56
eigval :      399.73   416.58   420.50   422.17   425.19   428.88
eigval :      429.94   437.28   440.85   441.77   447.20   448.46
eigval :      455.70   466.15   478.18   494.47   507.96   508.56
eigval :      509.64   515.23   518.29   520.44   524.42   524.92
eigval :      542.57   548.34   568.41   571.37   572.58   578.30
eigval :      582.25   591.17   600.48   614.76   619.03   624.46
eigval :      645.37   646.74   652.41   658.43   658.97   660.66
eigval :      661.87   669.89   673.18   690.47   692.63   693.42
eigval :      699.60   706.74   720.81   733.11   741.45   763.20
eigval :      765.54   774.09   775.06   778.12   778.45   778.91
eigval :      780.44   800.02   810.43   811.61   821.83   832.40
eigval :      833.71   852.87   853.01   854.57   857.79   860.03
eigval :      862.77   865.93   867.95   873.19   883.83   885.37
eigval :      886.53   887.29   895.81   897.63   899.10   900.85
eigval :      905.64   908.44   909.95   913.64   915.73   916.17
eigval :      917.77   918.49   918.78   927.46   928.19   929.38
eigval :      929.76   931.35   976.17  1001.72  1003.05  1005.92
eigval :     1027.85  1029.73  1033.29  1046.86  1064.14  1089.09
eigval :     1089.27  1090.21  1091.44  1101.48  1103.72  1105.51
eigval :     1105.88  1115.97  1121.06  1129.71  1139.31  1146.77
eigval :     1147.94  1167.01  1167.55  1171.36  1172.64  1180.11
eigval :     1181.54  1183.04  1183.13  1194.07  1196.76  1197.74
eigval :     1200.76  1206.50  1212.68  1216.60  1227.79  1228.63
eigval :     1240.49  1241.38  1241.44  1255.56  1258.37  1258.58
eigval :     1263.75  1266.51  1268.07  1276.25  1277.47  1279.92
eigval :     1302.86  1303.73  1306.86  1310.01  1314.26  1316.12
eigval :     1319.10  1325.16  1331.36  1338.74  1347.50  1352.43
eigval :     1356.56  1378.90  1399.48  1399.69  1403.63  1413.57
eigval :     1419.86  1421.04  1423.02  1431.90  1433.66  1438.50
eigval :     1441.93  1442.56  1451.74  1466.43  1473.52  1477.48
eigval :     1478.12  1478.83  1479.52  1479.82  1486.19  1488.86
eigval :     1491.69  1493.65  1500.92  1501.04  1520.54  1542.13
eigval :     1550.62  1565.79  1565.84  1574.39  1575.89  1578.64
eigval :     1578.82  1579.60  1583.20  1587.56  1588.98  1591.37
eigval :     1597.80  1599.38  1601.53  1601.65  2995.96  3008.77
eigval :     3026.79  3029.68  3038.17  3049.32  3063.57  3067.35
eigval :     3068.01  3074.91  3075.67  3083.43  3086.56  3086.66
eigval :     3087.20  3087.46  3088.73  3090.04  3092.28  3092.55
eigval :     3093.42  3095.85  3096.00  3096.17  3096.54  3098.64
eigval :     3103.55  3103.65  3103.76  3104.30  3105.00  3108.58
eigval :     3108.83  3109.59  3110.04  3110.76  3110.97  3115.24

   temp. (K)  partition function   enthalpy   heat capacity  entropy
                                   cal/mol     cal/K/mol   cal/K/mol   J/K/mol
 298.15  VIB  0.308E+25            30173.627    189.124    188.979
         ROT  0.239E+09              888.752      2.981     41.319
         INT  0.736E+33            31062.380    192.104    230.299
         TR   0.228E+29             1481.254      4.968     45.980
         TOT                       32543.6336   197.0726   276.2784  1155.9487

       T/K    H(0)-H(T)+PV         H(T)/Eh          T*S/Eh         G(T)/Eh
   ------------------------------------------------------------------------
    298.15    0.518616E-01    0.827223E+00    0.131269E+00    0.695955E+00
   ------------------------------------------------------------------------

         :::::::::::::::::::::::::::::::::::::::::::::::::::::
         ::                  THERMODYNAMIC                  ::
         :::::::::::::::::::::::::::::::::::::::::::::::::::::
         :: total free energy        -162.881187858127 Eh   ::
         ::.................................................::
         :: total energy             -163.577142376587 Eh   ::
         :: zero point energy           0.775361711052 Eh   ::
         :: G(RRHO) w/o ZPVE           -0.079407192592 Eh   ::
         :: G(RRHO) contrib.            0.695954518460 Eh   ::
         :::::::::::::::::::::::::::::::::::::::::::::::::::::

           -------------------------------------------------
          | TOTAL ENERGY             -163.577142376587 Eh   |
          | TOTAL ENTHALPY           -162.749919084317 Eh   |
          | TOTAL FREE ENERGY        -162.881187858127 Eh   |
          | GRADIENT NORM               0.000037394324 Eh/α |
          | HOMO-LUMO GAP               1.048545458583 eV   |
           -------------------------------------------------

 * finished run on 2025/07/17 at 18:10:29.719
