   * xtb version 6.7.1 (edcfbbe) compiled by 'albert@albert-system' on 2024-07-22

   ID    Z sym.   atoms
    1    6 C      1-20, 22-28
    2    7 N      21, 29
    3    1 H      30-57

          program call               : xtb data2507/toluene/CzBN/CzBN_toluene_S0_crest.xyz --gfn 2 --gbsa toluene --ohess vtight --parallel 40 --molden --ceasefiles --namespace data2507/toluene/CzBN/CzBN_toluene_S0_finalOpt
      * Solvation model:               GBSA
        Solvent                        toluene
        Solvent mass                       9.2140E+01 g/mol
          :  Hamiltonian                  GFN2-xTB          :
 * total energy  :   -77.9978474 Eh     change       -0.5164651E-09 Eh
 * total energy  :   -77.9978737 Eh     change       -0.2633131E-04 Eh
 * total energy  :   -77.9978841 Eh     change       -0.1037177E-04 Eh
 * total energy  :   -77.9978877 Eh     change       -0.3576714E-05 Eh
 * total energy  :   -77.9978895 Eh     change       -0.1847286E-05 Eh
 * total energy  :   -77.9978951 Eh     change       -0.5532813E-05 Eh
 * total energy  :   -77.9978981 Eh     change       -0.3000554E-05 Eh
 * total energy  :   -77.9979004 Eh     change       -0.2366195E-05 Eh
 * total energy  :   -77.9979020 Eh     change       -0.1570707E-05 Eh
 * total energy  :   -77.9979032 Eh     change       -0.1165855E-05 Eh
 * total energy  :   -77.9979040 Eh     change       -0.8475165E-06 Eh
 * total energy  :   -77.9979046 Eh     change       -0.6042048E-06 Eh
 * total energy  :   -77.9979052 Eh     change       -0.5402108E-06 Eh
 * total energy  :   -77.9979057 Eh     change       -0.4898176E-06 Eh
 * total energy  :   -77.9979060 Eh     change       -0.3743254E-06 Eh
 * total energy  :   -77.9979062 Eh     change       -0.1844887E-06 Eh
 * total energy  :   -77.9979063 Eh     change       -0.8965085E-07 Eh
   *** GEOMETRY OPTIMIZATION CONVERGED AFTER 17 ITERATIONS ***

 final structure:
================
57
 xtb: 6.7.1 (edcfbbe)
C           -5.62436533284049       -1.03464463993435       -1.01894929502908
C           -4.75126455468897       -1.37964262035616        0.19694596454392
C           -4.58187593683239       -2.90142384709116        0.24265363776153
C           -5.45956096955339       -0.94056745962024        1.48732963753484
C           -3.42152137970086       -0.64631006773228        0.08232744001430
C           -3.42357864027879        0.75370860399900        0.02334242769095
C           -2.26817998687018        1.50232182654365       -0.08443496015694
C           -1.06047883999473        0.82637540539843       -0.14715432302057
C           -1.02600134006934       -0.58017143783019       -0.06785802077164
C           -2.20417604529648       -1.30750167986221        0.04275704366514
C            0.36063131997087       -0.96017832266205       -0.11855190424422
C            1.00520693105022       -2.19029577739820       -0.11492828391857
C            2.38615054868904       -2.24471344623952       -0.21526916891054
C            3.15974289680318       -3.55620696320678       -0.20517351452545
C            3.92353733852451       -3.70325610713520       -1.52974125803026
C            4.15011568676122       -3.54508162311067        0.96877887742118
C            2.24730864414351       -4.77610798350408       -0.04410671269426
C            3.09417280078713       -1.04224605613988       -0.34181283332840
C            2.47948317429962        0.19367160329962       -0.34943730800156
C            1.10197395521183        0.23459809525105       -0.21120002873649
N            0.23389221227782        1.31469175998172       -0.22582057900126
C            0.59338066864050        2.65822153596694       -0.30874688708360
C            0.01857254131636        3.48179701979872       -1.27368300802481
C            0.37929857486189        4.81274447090281       -1.36785540924455
C            1.32757334547953        5.34811479113224       -0.50615958894639
C            1.90340162054194        4.55186651510064        0.46305304321544
C            1.53651605733572        3.20862851901664        0.57785107736450
C            2.07869687909679        2.44503793000847        1.63388385899752
N            2.51004646706251        1.87182405552039        2.53047778633866
H           -5.11784543648652       -1.32082304967765       -1.93885133318576
H           -6.56982911714846       -1.57048715277567       -0.96442001082613
H           -5.83949961568939        0.02935872119879       -1.06519391386864
H           -3.99584543996204       -3.20419388282603        1.10752092317279
H           -4.10199164917679       -3.26931970199881       -0.66150754925162
H           -5.56007794862052       -3.37236690157715        0.31914520839205
H           -4.83774202050781       -1.16450063793660        2.35212287834796
H           -5.66632613396101        0.12613830684539        1.48472491975287
H           -6.40415367850343       -1.47002659411427        1.59475245665212
H           -4.36245819223350        1.28423509398980        0.06808719377212
H           -2.31352845597269        2.58115831415800       -0.10898818464411
H           -2.14265277440071       -2.38113410519058        0.10107654895592
H            0.40902756399689       -3.08411161555295       -0.03913709384383
H            4.46814921229748       -4.64514448245755       -1.54505526202256
H            4.63720931359012       -2.89567726684556       -1.66786110197798
H            3.22887687926910       -3.69159596133580       -2.36755914219514
H            3.61728227390172       -3.41313419233943        1.90859131365875
H            4.87164992565477       -2.73840264662603        0.87316670483843
H            4.69475961966141       -4.48632191526423        1.00852328079096
H            2.85200541130129       -5.68086522144739       -0.03092033883527
H            1.54639592689095       -4.85338033598366       -0.87222582188592
H            1.69362934544593       -4.72825725500020        0.89088116292397
H            4.16842408341039       -1.06710507651014       -0.44220669763389
H            3.06657795214398        1.09352803822965       -0.46357386250576
H           -0.69946811064034        3.05700618170698       -1.95885970796224
H           -0.07196452015099        5.43475654831639       -2.12595485676400
H            1.61392253684806        6.38494745821713       -0.58926097784928
H            2.63363046521371        4.95500774250017        1.14949270421484

          :  Hamiltonian                  GFN2-xTB          :
         :: gradient norm              0.000042618478 Eh/a0 ::
         :: HOMO-LUMO gap              2.249243608698 eV    ::
         :: SCC energy               -79.403857147499 Eh    ::
         :: -> dispersion             -0.068519252347 Eh    ::
         :: -> Gsolv                  -0.033685599258 Eh    ::
         :: repulsion energy           1.405950845937 Eh    ::

    * Orbital Energies and Occupations

         #    Occupation            Energy/Eh            Energy/eV
      -------------------------------------------------------------
         1        2.0000           -0.6831486             -18.5894
       ...           ...                  ...                  ...
        61        2.0000           -0.4333712             -11.7926
        62        2.0000           -0.4319087             -11.7528
        63        2.0000           -0.4283448             -11.6559
        64        2.0000           -0.4274177             -11.6306
        65        2.0000           -0.4206698             -11.4470
        66        2.0000           -0.4178436             -11.3701
        67        2.0000           -0.4177043             -11.3663
        68        2.0000           -0.4164736             -11.3328
        69        2.0000           -0.4101315             -11.1602
        70        2.0000           -0.4076204             -11.0919
        71        2.0000           -0.3976768             -10.8213
        72        2.0000           -0.3749656             -10.2033
        73        2.0000           -0.3618817              -9.8473 (HOMO)
        74                         -0.2792236              -7.5981 (LUMO)
        75                         -0.2500617              -6.8045
        76                         -0.2410422              -6.5591
        77                         -0.2193216              -5.9680
        78                         -0.2148793              -5.8472
        79                         -0.1915937              -5.2135
        80                         -0.1852237              -5.0402
        81                         -0.1787097              -4.8629
        82                         -0.1001097              -2.7241
        83                         -0.0880619              -2.3963
        84                         -0.0599933              -1.6325
       ...                                ...                  ...
       144                          1.1552790              31.4367
      -------------------------------------------------------------
                  HL-Gap            0.0826581 Eh            2.2492 eV

     #   Z          covCN         q      C6AA      α(0)
     1   6 C        3.761    -0.105    22.556     6.770
     2   6 C        3.902     0.025    20.098     6.372
     3   6 C        3.761    -0.107    22.593     6.776
     4   6 C        3.761    -0.105    22.551     6.769
     5   6 C        2.972    -0.001    28.042     8.686
     6   6 C        2.931    -0.040    28.992     8.830
     7   6 C        2.908    -0.055    29.370     8.886
     8   6 C        3.074     0.043    26.952     8.512
     9   6 C        3.065    -0.019    28.420     8.742
    10   6 C        2.918    -0.044    29.102     8.846
    11   6 C        3.066    -0.020    28.435     8.744
    12   6 C        2.918    -0.045    29.113     8.848
    13   6 C        2.972    -0.000    28.027     8.684
    14   6 C        3.902     0.025    20.097     6.372
    15   6 C        3.761    -0.105    22.554     6.770
    16   6 C        3.761    -0.105    22.548     6.769
    17   6 C        3.761    -0.107    22.598     6.777
    18   6 C        2.931    -0.039    28.962     8.826
    19   6 C        2.908    -0.051    29.266     8.871
    20   6 C        3.073     0.045    26.914     8.506
    21   7 N        2.801    -0.056    22.315     7.016
    22   6 C        2.915     0.076    26.307     8.411
    23   6 C        2.921    -0.040    28.995     8.830
    24   6 C        2.918    -0.019    28.487     8.752
    25   6 C        2.917    -0.029    28.730     8.790
    26   6 C        2.928    -0.019    28.484     8.753
    27   6 C        2.974     0.000    28.022     8.683
    28   6 C        1.912     0.125    28.038     8.551
    29   7 N        0.911    -0.277    27.144     7.535
    30   1 H        0.925     0.033     2.546     2.495
    31   1 H        0.925     0.039     2.469     2.457
    32   1 H        0.925     0.036     2.499     2.472
    33   1 H        0.925     0.036     2.507     2.476
    34   1 H        0.925     0.036     2.500     2.473
    35   1 H        0.925     0.037     2.485     2.465
    36   1 H        0.925     0.032     2.558     2.501
    37   1 H        0.925     0.036     2.507     2.476
    38   1 H        0.925     0.039     2.467     2.456
    39   1 H        0.926     0.033     2.543     2.494
    40   1 H        0.926     0.026     2.643     2.542
    41   1 H        0.926     0.041     2.435     2.440
    42   1 H        0.926     0.042     2.419     2.432
    43   1 H        0.925     0.039     2.458     2.452
    44   1 H        0.925     0.035     2.512     2.478
    45   1 H        0.925     0.033     2.545     2.495
    46   1 H        0.925     0.033     2.550     2.497
    47   1 H        0.925     0.035     2.513     2.479
    48   1 H        0.925     0.039     2.462     2.454
    49   1 H        0.925     0.038     2.476     2.461
    50   1 H        0.925     0.037     2.495     2.470
    51   1 H        0.925     0.036     2.499     2.472
    52   1 H        0.926     0.032     2.562     2.503
    53   1 H        0.926     0.016     2.800     2.617
    54   1 H        0.926     0.054     2.266     2.354
    55   1 H        0.926     0.056     2.251     2.346
    56   1 H        0.926     0.053     2.278     2.360
    57   1 H        0.926     0.047     2.357     2.401

molecular dipole:
                 x           y           z       tot (Debye)
 q only:       -0.737       0.495      -1.168
   full:       -0.797       0.872      -1.440       4.735

 projected vibrational frequencies (cm⁻¹)
eigval :       -0.00    -0.00    -0.00     0.00     0.00     0.00
eigval :       23.40    28.44    31.54    36.42    50.78    66.68
eigval :       79.65    85.50   110.47   123.23   140.58   158.21
eigval :      174.26   184.78   203.44   208.60   215.52   221.77
eigval :      227.77   231.85   249.57   259.78   281.56   318.42
eigval :      322.30   323.74   334.82   349.66   357.63   359.90
eigval :      360.44   380.63   400.10   410.12   437.70   443.10
eigval :      452.01   458.43   464.54   468.02   502.17   519.18
eigval :      545.04   557.64   574.75   580.23   588.90   626.80
eigval :      636.70   641.47   687.24   688.69   708.75   719.92
eigval :      726.27   774.43   781.55   816.89   821.89   829.85
eigval :      868.18   871.13   872.85   887.58   910.57   912.66
eigval :      917.36   918.04   924.96   932.13   939.93   958.26
eigval :      958.57   960.93   961.20   962.07   963.45  1029.79
eigval :     1034.10  1034.77  1035.25  1039.66  1087.32  1092.20
eigval :     1124.28  1129.17  1148.33  1174.02  1176.23  1205.24
eigval :     1220.86  1225.39  1225.48  1229.45  1230.27  1234.91
eigval :     1242.83  1243.48  1257.97  1282.88  1301.21  1305.60
eigval :     1309.65  1344.81  1356.67  1364.64  1398.81  1400.85
eigval :     1401.71  1402.46  1410.49  1425.54  1425.88  1426.22
eigval :     1440.04  1461.98  1480.04  1482.10  1488.04  1488.67
eigval :     1491.65  1491.88  1498.65  1499.14  1501.33  1502.02
eigval :     1511.04  1511.27  1517.33  1518.33  1551.83  1570.58
eigval :     1579.27  1582.58  1603.84  1615.03  2357.02  3019.34
eigval :     3019.56  3020.07  3020.19  3022.99  3023.23  3024.75
eigval :     3025.01  3026.67  3027.03  3030.67  3030.80  3035.39
eigval :     3035.76  3043.78  3044.33  3047.11  3047.65  3067.39
eigval :     3074.30  3084.87  3088.02  3089.78  3091.08  3098.14
eigval :     3104.88  3116.75  3119.70

   temp. (K)  partition function   enthalpy   heat capacity  entropy
                                   cal/mol     cal/K/mol   cal/K/mol   J/K/mol
 298.15  VIB  0.699E+11            15602.273     98.854     94.564
         ROT  0.198E+08              888.752      2.981     36.365
         INT  0.138E+19            16491.025    101.835    130.929
         TR   0.718E+28             1481.254      4.968     43.682
         TOT                       17972.2792   106.8027   174.6110   730.5726

       T/K    H(0)-H(T)+PV         H(T)/Eh          T*S/Eh         G(T)/Eh
   ------------------------------------------------------------------------
    298.15    0.286406E-01    0.498592E+00    0.829633E-01    0.415629E+00
   ------------------------------------------------------------------------

         :::::::::::::::::::::::::::::::::::::::::::::::::::::
         ::                  THERMODYNAMIC                  ::
         :::::::::::::::::::::::::::::::::::::::::::::::::::::
         :: total free energy         -77.582277557606 Eh   ::
         ::.................................................::
         :: total energy              -77.997906301597 Eh   ::
         :: zero point energy           0.469951431310 Eh   ::
         :: G(RRHO) w/o ZPVE           -0.054322687319 Eh   ::
         :: G(RRHO) contrib.            0.415628743991 Eh   ::
         :::::::::::::::::::::::::::::::::::::::::::::::::::::

           -------------------------------------------------
          | TOTAL ENERGY              -77.997906301597 Eh   |
          | TOTAL ENTHALPY            -77.499314220374 Eh   |
          | TOTAL FREE ENERGY         -77.582277557606 Eh   |
          | GRADIENT NORM               0.000042602982 Eh/α |
          | HOMO-LUMO GAP               2.249242476640 eV   |
           -------------------------------------------------

 * finished run on 2025/08/22 at 09:50:30.598
