   * xtb version 6.7.1 (edcfbbe) compiled by 'albert@albert-system' on 2024-07-22

   ID    Z sym.   atoms
    1    6 C      1-20, 22-28
    2    7 N      21, 29
    3    1 H      30-57

          program call               : xtb data2507/toluene/CzBN/CzBN_toluene_T1_crest.xyz --gfn 2 --uhf 2 --gbsa toluene --ohess vtight --parallel 40 --molden --ceasefiles --namespace data2507/toluene/CzBN/CzBN_toluene_T1_finalOpt
      * Solvation model:               GBSA
        Solvent                        toluene
        Solvent mass                       9.2140E+01 g/mol
          :  Hamiltonian                  GFN2-xTB          :
 * total energy  :   -77.8956438 Eh     change       -0.6407191E-08 Eh
 * total energy  :   -77.8957381 Eh     change       -0.9435371E-04 Eh
 * total energy  :   -77.8957744 Eh     change       -0.3626904E-04 Eh
 * total energy  :   -77.8957791 Eh     change       -0.4726205E-05 Eh
 * total energy  :   -77.8957837 Eh     change       -0.4523423E-05 Eh
 * total energy  :   -77.8957855 Eh     change       -0.1880355E-05 Eh
 * total energy  :   -77.8957875 Eh     change       -0.1936737E-05 Eh
 * total energy  :   -77.8957886 Eh     change       -0.1096948E-05 Eh
 * total energy  :   -77.8957892 Eh     change       -0.5960585E-06 Eh
 * total energy  :   -77.8957896 Eh     change       -0.4209016E-06 Eh
 * total energy  :   -77.8957901 Eh     change       -0.4786367E-06 Eh
 * total energy  :   -77.8957905 Eh     change       -0.3898093E-06 Eh
 * total energy  :   -77.8957907 Eh     change       -0.2727744E-06 Eh
 * total energy  :   -77.8957909 Eh     change       -0.2178133E-06 Eh
 * total energy  :   -77.8957911 Eh     change       -0.1690563E-06 Eh
 * total energy  :   -77.8957912 Eh     change       -0.1257353E-06 Eh
 * total energy  :   -77.8957913 Eh     change       -0.9947782E-07 Eh
   *** GEOMETRY OPTIMIZATION CONVERGED AFTER 17 ITERATIONS ***

 final structure:
================
57
 xtb: 6.7.1 (edcfbbe)
C           -5.61786645461409       -1.10289092419833       -1.00483089983398
C           -4.72845618977791       -1.47343944289515        0.19294699659748
C           -4.53721642485067       -2.99314003050795        0.19263146338109
C           -5.43098355776087       -1.07912374993301        1.50218382902103
C           -3.41731818055518       -0.71536646654542        0.08839794378847
C           -3.44398224955059        0.68836298848907        0.06152403283619
C           -2.29591714555689        1.45385277762104       -0.04516623554636
C           -1.07788995480300        0.79616904704769       -0.13626173066572
C           -1.01841202196360       -0.62126443682548       -0.06684402092226
C           -2.18360199806975       -1.36427107242194        0.03340731369982
C            0.37489595190280       -0.97080745547326       -0.11426715304471
C            1.05223903231808       -2.17800734191049       -0.10644643965747
C            2.44312985937805       -2.19320506923584       -0.22025401084094
C            3.24331125105813       -3.48255714089992       -0.20663431214525
C            4.24438853254164       -3.43222633254267        0.95878225413213
C            2.36550468699172       -4.72505033398018       -0.02838668777715
C            4.00172973675145       -3.61785655728629       -1.53695338948292
C            3.12238859773767       -0.97249242169526       -0.36553140250247
C            2.47117403810434        0.24660619418227       -0.37179197173805
C            1.09212822960055        0.25222390345157       -0.21554834998635
N            0.20334269096427        1.30626741360876       -0.22500973310885
C            0.52432507208956        2.64552974655617       -0.32272007762112
C           -0.15533526939144        3.47416611521906       -1.20870219718000
C            0.15085247597121        4.81280924871951       -1.32420026054415
C            1.16333532589271        5.37325896191392       -0.49960523139711
C            1.83493177537644        4.60147625064343        0.40057474052696
C            1.55098664366971        3.21738564204866        0.54820817966020
C            2.09873417364360        2.50592510478708        1.59069862889532
N            2.59908309849179        1.92001809238449        2.46635267209577
H           -5.11658809067410       -1.35326103160230       -1.93764350278335
H           -6.55301425952657       -1.65622568045952       -0.95607210230214
H           -5.85117936084445       -0.04216739716078       -1.01630346316553
H           -3.94555727228475       -3.31452394206487        1.04661022057465
H           -4.05782324320820       -3.32779050942923       -0.72440516450083
H           -5.50897153527038       -3.47794017028987        0.25869194872305
H           -6.36549368869231       -1.62709534393426        1.60007660439304
H           -4.79906733072572       -1.31800163275854        2.35526519208412
H           -5.65486875916110       -0.01661054620240        1.53104706991360
H           -4.38787293980778        1.20385026299517        0.13348492328931
H           -2.35257305069124        2.53157860768637       -0.04177473036117
H           -2.11343326955659       -2.43746923234494        0.07452100115822
H            0.48867593622419       -3.09084217453837       -0.01766809855206
H            4.81323827359426       -4.35852991063255        0.99875871348728
H            3.71717587656802       -3.30768638663307        1.90251332388555
H            4.94297761158003       -2.60758057623181        0.85072580671320
H            1.66135274855765       -4.82988675406600       -0.85043161714916
H            1.82008484708217       -4.68678724592398        0.91164530229424
H            2.99606885934395       -5.61148624531225       -0.01355237565915
H            4.56929161918042       -4.54562186709339       -1.54552863501737
H            4.69377461596200       -2.79422616804165       -1.68645772859219
H            3.30144146952441       -3.63241773983881       -2.36962872878495
H            4.19406246988541       -0.96995860973633       -0.48079832968121
H            3.02608375842611        1.16321420476512       -0.49900204873133
H           -0.88755438320965        3.02822233071170       -1.86733248091468
H           -0.34760152890043        5.42804867480816       -2.05512312841656
H            1.40033675163708        6.42239894930598       -0.59652144382651
H            2.59445227539778        5.02866110530090        1.04114526368224

          :  Hamiltonian                  GFN2-xTB          :
         :: gradient norm              0.000063023024 Eh/a0 ::
         :: HOMO-LUMO gap              0.212140514578 eV    ::
         :: SCC energy               -79.278228528758 Eh    ::
         :: -> dispersion             -0.068181425628 Eh    ::
         :: -> Gsolv                  -0.038567936128 Eh    ::
         :: repulsion energy           1.382437193345 Eh    ::

    * Orbital Energies and Occupations

         #    Occupation            Energy/Eh            Energy/eV
      -------------------------------------------------------------
         1        2.0000           -0.6936754             -18.8759
       ...           ...                  ...                  ...
        62        2.0000           -0.4303373             -11.7101
        63        2.0000           -0.4282011             -11.6519
        64        2.0000           -0.4266368             -11.6094
        65        2.0000           -0.4235267             -11.5247
        66        2.0000           -0.4199454             -11.4273
        67        2.0000           -0.4172888             -11.3550
        68        2.0000           -0.4114401             -11.1959
        69        2.0000           -0.4106476             -11.1743
        70        2.0000           -0.3987812             -10.8514
        71        2.0000           -0.3935146             -10.7081
        72        1.9999           -0.3876118             -10.5475
        73        1.0001           -0.3705078             -10.0820
        74        0.9837           -0.2630717              -7.1585 (HOMO)
        75        0.0163           -0.2552762              -6.9464 (LUMO)
        76                         -0.2357907              -6.4162
        77                         -0.2295226              -6.2456
        78                         -0.2037985              -5.5456
        79                         -0.1988440              -5.4108
        80                         -0.1858540              -5.0573
        81                         -0.1517635              -4.1297
        82                         -0.1089274              -2.9641
        83                         -0.0765293              -2.0825
        84                         -0.0735059              -2.0002
        85                          0.0057282               0.1559
       ...                                ...                  ...
       144                          1.1542164              31.4078
      -------------------------------------------------------------
                  HL-Gap            0.0077955 Eh            0.2121 eV

     #   Z          covCN         q      C6AA      α(0)
     1   6 C        3.761    -0.108    22.606     6.778
     2   6 C        3.903     0.028    20.043     6.364
     3   6 C        3.761    -0.112    22.682     6.789
     4   6 C        3.761    -0.107    22.597     6.776
     5   6 C        2.972     0.021    27.534     8.607
     6   6 C        2.926    -0.043    29.076     8.843
     7   6 C        2.906    -0.036    28.883     8.812
     8   6 C        3.074     0.040    27.035     8.525
     9   6 C        3.056    -0.013    28.280     8.721
    10   6 C        2.914    -0.037    28.930     8.820
    11   6 C        3.058    -0.012    28.265     8.719
    12   6 C        2.914    -0.038    28.936     8.821
    13   6 C        2.972     0.023    27.486     8.600
    14   6 C        3.903     0.029    20.038     6.363
    15   6 C        3.762    -0.107    22.589     6.775
    16   6 C        3.761    -0.112    22.691     6.791
    17   6 C        3.761    -0.108    22.607     6.778
    18   6 C        2.927    -0.040    29.006     8.832
    19   6 C        2.906    -0.028    28.704     8.785
    20   6 C        3.072     0.044    26.940     8.510
    21   7 N        2.797     0.018    20.943     6.797
    22   6 C        2.909     0.033    27.269     8.563
    23   6 C        2.912    -0.039    28.969     8.826
    24   6 C        2.912    -0.060    29.484     8.904
    25   6 C        2.910    -0.031    28.781     8.797
    26   6 C        2.917    -0.034    28.857     8.809
    27   6 C        2.960    -0.028    28.700     8.787
    28   6 C        1.908     0.092    28.817     8.670
    29   7 N        0.911    -0.377    29.735     7.887
    30   1 H        0.925     0.037     2.486     2.465
    31   1 H        0.925     0.045     2.380     2.413
    32   1 H        0.925     0.041     2.438     2.442
    33   1 H        0.925     0.040     2.444     2.445
    34   1 H        0.925     0.041     2.437     2.441
    35   1 H        0.925     0.043     2.413     2.429
    36   1 H        0.925     0.046     2.377     2.411
    37   1 H        0.925     0.036     2.498     2.471
    38   1 H        0.925     0.040     2.446     2.446
    39   1 H        0.926     0.046     2.368     2.406
    40   1 H        0.926     0.044     2.399     2.422
    41   1 H        0.926     0.059     2.211     2.325
    42   1 H        0.926     0.061     2.188     2.313
    43   1 H        0.925     0.046     2.366     2.405
    44   1 H        0.925     0.037     2.494     2.470
    45   1 H        0.925     0.040     2.453     2.449
    46   1 H        0.925     0.042     2.424     2.435
    47   1 H        0.925     0.041     2.437     2.441
    48   1 H        0.925     0.044     2.399     2.422
    49   1 H        0.925     0.047     2.361     2.403
    50   1 H        0.925     0.040     2.445     2.445
    51   1 H        0.925     0.038     2.473     2.459
    52   1 H        0.926     0.045     2.377     2.411
    53   1 H        0.926     0.036     2.497     2.471
    54   1 H        0.926     0.035     2.516     2.480
    55   1 H        0.926     0.027     2.636     2.539
    56   1 H        0.926     0.028     2.621     2.532
    57   1 H        0.925     0.020     2.738     2.587

molecular dipole:
                 x           y           z       tot (Debye)
 q only:       -1.897      -2.399      -1.559
   full:       -1.951      -1.871      -1.810       8.269

 projected vibrational frequencies (cm⁻¹)
eigval :       -0.00    -0.00     0.00     0.00     0.00     0.00
eigval :       20.92    23.97    29.26    34.37    46.00    65.92
eigval :       78.99    82.25   103.50   117.49   134.57   154.41
eigval :      170.01   185.23   195.68   206.72   211.13   221.03
eigval :      223.89   230.27   245.32   253.50   279.02   315.18
eigval :      319.70   324.29   331.75   334.90   347.64   348.89
eigval :      352.62   381.16   384.85   393.49   406.14   426.11
eigval :      432.21   440.16   453.39   464.20   470.64   499.72
eigval :      515.65   550.81   568.32   571.19   591.26   601.79
eigval :      618.97   628.94   638.15   686.61   694.95   706.04
eigval :      707.53   716.23   757.53   804.60   812.47   814.69
eigval :      827.27   846.71   850.23   868.17   880.19   884.41
eigval :      889.59   901.06   908.25   919.54   927.89   958.02
eigval :      958.77   961.23   962.21   963.89   963.97  1023.64
eigval :     1031.25  1031.47  1033.00  1034.43  1037.46  1078.79
eigval :     1093.20  1114.42  1121.37  1130.79  1152.25  1189.52
eigval :     1199.08  1204.37  1213.33  1216.90  1217.37  1222.85
eigval :     1226.22  1246.90  1250.28  1253.15  1276.96  1284.65
eigval :     1300.35  1305.23  1322.48  1353.88  1370.46  1388.70
eigval :     1399.72  1400.36  1401.43  1401.93  1412.49  1423.09
eigval :     1425.14  1425.98  1437.32  1447.95  1468.34  1484.05
eigval :     1485.22  1487.26  1488.50  1491.53  1494.47  1496.08
eigval :     1497.60  1498.16  1510.11  1510.44  1513.61  1515.03
eigval :     1520.37  1535.66  1546.60  1561.46  2170.18  3025.00
eigval :     3025.36  3025.76  3026.27  3028.52  3028.76  3028.96
eigval :     3029.98  3032.45  3032.66  3034.83  3035.25  3040.07
eigval :     3040.42  3048.82  3049.53  3052.23  3052.88  3062.27
eigval :     3068.84  3081.79  3089.82  3090.06  3104.89  3106.69
eigval :     3108.17  3126.21  3129.34

   temp. (K)  partition function   enthalpy   heat capacity  entropy
                                   cal/mol     cal/K/mol   cal/K/mol   J/K/mol
 298.15  VIB  0.194E+12            15978.605    100.657     97.020
         ROT  0.198E+08              888.752      2.981     36.367
         INT  0.384E+19            16867.357    103.638    133.388
         TR   0.718E+28             1481.254      4.968     43.682
         TOT                       18348.6114   108.6057   177.0694   740.8586

       T/K    H(0)-H(T)+PV         H(T)/Eh          T*S/Eh         G(T)/Eh
   ------------------------------------------------------------------------
    298.15    0.292404E-01    0.494393E+00    0.841314E-01    0.410261E+00
   ------------------------------------------------------------------------

         :::::::::::::::::::::::::::::::::::::::::::::::::::::
         ::                  THERMODYNAMIC                  ::
         :::::::::::::::::::::::::::::::::::::::::::::::::::::
         :: total free energy         -77.485529919837 Eh   ::
         ::.................................................::
         :: total energy              -77.895791334627 Eh   ::
         :: zero point energy           0.465152447780 Eh   ::
         :: G(RRHO) w/o ZPVE           -0.054891032990 Eh   ::
         :: G(RRHO) contrib.            0.410261414790 Eh   ::
         :::::::::::::::::::::::::::::::::::::::::::::::::::::

           -------------------------------------------------
          | TOTAL ENERGY              -77.895791334627 Eh   |
          | TOTAL ENTHALPY            -77.401398513384 Eh   |
          | TOTAL FREE ENERGY         -77.485529919837 Eh   |
          | GRADIENT NORM               0.000063982456 Eh/α |
          | HOMO-LUMO GAP               0.212125640336 eV   |
           -------------------------------------------------

 * finished run on 2025/08/22 at 09:53:10.826
