   * xtb version 6.7.1 (edcfbbe) compiled by 'albert@albert-system' on 2024-07-22

   ID    Z sym.   atoms
    1    6 C      1-20, 22-28
    2    7 N      21, 29
    3    1 H      30-57

          program call               : xtb data2507/toluene/CzBN/CzBN.xyz --gfn 2 --gbsa toluene --ohess vtight --parallel 40 --molden --ceasefiles --namespace data2507/toluene/CzBN/CzBN_toluene_S0_preOpt
      * Solvation model:               GBSA
        Solvent                        toluene
        Solvent mass                       9.2140E+01 g/mol
          :  Hamiltonian                  GFN2-xTB          :
 * total energy  :   -77.9851671 Eh     change       -0.1059263E-08 Eh
 * total energy  :   -77.9944256 Eh     change       -0.9258535E-02 Eh
 * total energy  :   -77.9947052 Eh     change       -0.2796076E-03 Eh
 * total energy  :   -77.9967658 Eh     change       -0.2060588E-02 Eh
 * total energy  :   -77.9971943 Eh     change       -0.4285195E-03 Eh
 * total energy  :   -77.9973555 Eh     change       -0.1611741E-03 Eh
 * total energy  :   -77.9974298 Eh     change       -0.7429800E-04 Eh
 * total energy  :   -77.9974586 Eh     change       -0.2884758E-04 Eh
 * total energy  :   -77.9975061 Eh     change       -0.4740514E-04 Eh
 * total energy  :   -77.9975195 Eh     change       -0.1339997E-04 Eh
 * total energy  :   -77.9975759 Eh     change       -0.7367522E-06 Eh
 * total energy  :   -77.9975763 Eh     change       -0.4353368E-06 Eh
 * total energy  :   -77.9975764 Eh     change       -0.1035913E-06 Eh
 * total energy  :   -77.9975767 Eh     change       -0.3128212E-06 Eh
 * total energy  :   -77.9975769 Eh     change       -0.2198673E-06 Eh
 * total energy  :   -77.9975771 Eh     change       -0.1336984E-06 Eh
 * total energy  :   -77.9975772 Eh     change       -0.1633188E-06 Eh
 * total energy  :   -77.9975774 Eh     change       -0.1231545E-06 Eh
 * total energy  :   -77.9975774 Eh     change       -0.6903346E-07 Eh
   *** GEOMETRY OPTIMIZATION CONVERGED AFTER 28 ITERATIONS ***

 final structure:
================
57
 xtb: 6.7.1 (edcfbbe)
C           -5.60619576839164       -1.30659448373404        0.10547297114978
C           -4.18068578081028       -1.86701815047571        0.08620418009656
C           -4.03615834397703       -2.75582790580819       -1.15844009578167
C           -3.98500281025061       -2.71250451280461        1.35364847257144
C           -3.11516801141574       -0.77924013175433        0.04312461849009
C           -3.43204506920921        0.58167864679000        0.02767679269838
C           -2.46693863686382        1.57256754019277       -0.02151147176093
C           -1.13808402903310        1.18972327316386       -0.06578211100543
C           -0.78781678931026       -0.17620820397955       -0.02629498124404
C           -1.77531495945309       -1.14712547849730        0.02394138129074
C            0.65003001830923       -0.23200408154448       -0.04126716779273
C            1.55522066120070       -1.28490599768121       -0.04907683877581
C            2.91511099483359       -1.02402080311619       -0.10418104647279
C            3.96474101664517       -2.12712266421109       -0.10215615519666
C            3.34786181484993       -3.52682190307893       -0.01806748872174
C            4.78855052780260       -2.04643073888912       -1.39617794703697
C            4.88463323373929       -1.93902989946514        1.11343687283783
C            3.33591201986430        0.31038844872130       -0.17363128106192
C            2.45823040824761        1.37588307495043       -0.16798671830648
C            1.10383155106375        1.10143762474178       -0.07559707928345
N            0.01477766054072        1.95886851576428       -0.08805289431605
C            0.06412677024021        3.35069397358483       -0.12241720722994
C           -0.66167666971919        4.05703193841801       -1.07864140219543
C           -0.60450582987342        5.43704385938637       -1.12765775203337
C            0.18528275818418        6.14185357428276       -0.22882064408198
C            0.90368869091907        5.46264501922668        0.73420930772541
C            0.84183357051513        4.06855896464532        0.80411016660283
C            1.51536454743234        3.41277682390608        1.85691175177351
N            2.04173816445756        2.92463750634458        2.75313215831342
H           -5.80911412772234       -0.71836844218336       -0.78670002418265
H           -6.31688897720375       -2.13044826370291        0.13221255126749
H           -5.77415926761786       -0.69107506847009        0.98643590045291
H           -3.06172767310710       -3.23519223409740       -1.19222167618231
H           -4.15401826003423       -2.16010174050226       -2.06170143572291
H           -4.79813354567510       -3.53265170786436       -1.15496554019460
H           -3.01222180908951       -3.19627767610664        1.36208936079627
H           -4.06032000431597       -2.08529342004003        2.24005407958159
H           -4.74952322433319       -3.48475446737374        1.41091126313280
H           -4.46251055754670        0.89469359373312        0.05801084178706
H           -2.75455420920187        2.61361854844273       -0.01523175746980
H           -1.48365869614700       -2.18548838079596        0.05180821519115
H            1.17463619699671       -2.29204564557325       -0.01710972680493
H            4.14142427410004       -4.27151539515774       -0.00946856532987
H            2.70989019702071       -3.72640754501562       -0.87614289874810
H            2.76801800105695       -3.64354781262494        0.89471675144339
H            5.31194032704314       -1.09755767640545       -1.47519332444543
H            4.13913458137238       -2.15083287969352       -2.26342747667946
H            5.52713706904570       -2.84516320462201       -1.41930888844506
H            5.62955800346543       -2.73159898906265        1.14620256251186
H            4.30317831907893       -1.97155720446074        2.03290740724073
H            5.40361854875648       -0.98523254730270        1.07555682356600
H            4.39030103335104        0.53149677618156       -0.23736711510055
H            2.83028215858600        2.38785990152124       -0.23715284560872
H           -1.25397885551023        3.50594590170772       -1.79341270212876
H           -1.16873469174295        5.96702648033221       -1.87995543259156
H            0.23636133706225        7.21837912280368       -0.27774180776713
H            1.51272214177606        5.99515514725358        1.45009006917674

          :  Hamiltonian                  GFN2-xTB          :
         :: gradient norm              0.000044654835 Eh/a0 ::
         :: HOMO-LUMO gap              2.245450797370 eV    ::
         :: SCC energy               -79.403503652201 Eh    ::
         :: -> dispersion             -0.068524389085 Eh    ::
         :: -> Gsolv                  -0.033634648794 Eh    ::
         :: repulsion energy           1.405926223582 Eh    ::

    * Orbital Energies and Occupations

         #    Occupation            Energy/Eh            Energy/eV
      -------------------------------------------------------------
         1        2.0000           -0.6830604             -18.5870
       ...           ...                  ...                  ...
        61        2.0000           -0.4332680             -11.7898
        62        2.0000           -0.4322147             -11.7612
        63        2.0000           -0.4282855             -11.6542
        64        2.0000           -0.4272672             -11.6265
        65        2.0000           -0.4212105             -11.4617
        66        2.0000           -0.4188085             -11.3964
        67        2.0000           -0.4172794             -11.3548
        68        2.0000           -0.4170221             -11.3477
        69        2.0000           -0.4096797             -11.1480
        70        2.0000           -0.4080673             -11.1041
        71        2.0000           -0.3970818             -10.8051
        72        2.0000           -0.3758231             -10.2267
        73        2.0000           -0.3616067              -9.8398 (HOMO)
        74                         -0.2790878              -7.5944 (LUMO)
        75                         -0.2499273              -6.8009
        76                         -0.2413589              -6.5677
        77                         -0.2199022              -5.9838
        78                         -0.2148792              -5.8472
        79                         -0.1918308              -5.2200
        80                         -0.1848151              -5.0291
        81                         -0.1785718              -4.8592
        82                         -0.1001386              -2.7249
        83                         -0.0880024              -2.3947
        84                         -0.0602443              -1.6393
       ...                                ...                  ...
       144                          1.1552338              31.4355
      -------------------------------------------------------------
                  HL-Gap            0.0825188 Eh            2.2455 eV

     #   Z          covCN         q      C6AA      α(0)
     1   6 C        3.761    -0.107    22.594     6.776
     2   6 C        3.902     0.025    20.097     6.372
     3   6 C        3.761    -0.105    22.553     6.770
     4   6 C        3.761    -0.105    22.549     6.769
     5   6 C        2.972    -0.001    28.041     8.686
     6   6 C        2.929    -0.044    29.102     8.847
     7   6 C        2.909    -0.056    29.384     8.889
     8   6 C        3.071     0.044    26.951     8.512
     9   6 C        3.064    -0.019    28.407     8.740
    10   6 C        2.920    -0.040    28.996     8.830
    11   6 C        3.065    -0.020    28.433     8.744
    12   6 C        2.918    -0.045    29.106     8.847
    13   6 C        2.972    -0.000    28.026     8.684
    14   6 C        3.902     0.025    20.096     6.372
    15   6 C        3.761    -0.107    22.595     6.776
    16   6 C        3.761    -0.105    22.555     6.770
    17   6 C        3.761    -0.105    22.548     6.769
    18   6 C        2.931    -0.039    28.958     8.825
    19   6 C        2.908    -0.051    29.266     8.871
    20   6 C        3.072     0.045    26.908     8.505
    21   7 N        2.800    -0.056    22.318     7.016
    22   6 C        2.914     0.076    26.308     8.411
    23   6 C        2.921    -0.040    28.998     8.831
    24   6 C        2.918    -0.019    28.487     8.752
    25   6 C        2.917    -0.029    28.732     8.790
    26   6 C        2.928    -0.019    28.485     8.753
    27   6 C        2.974    -0.000    28.025     8.684
    28   6 C        1.912     0.125    28.039     8.552
    29   7 N        0.911    -0.277    27.151     7.536
    30   1 H        0.925     0.036     2.504     2.474
    31   1 H        0.925     0.038     2.481     2.463
    32   1 H        0.925     0.035     2.512     2.479
    33   1 H        0.925     0.037     2.495     2.470
    34   1 H        0.925     0.033     2.550     2.497
    35   1 H        0.925     0.038     2.469     2.457
    36   1 H        0.925     0.036     2.499     2.472
    37   1 H        0.925     0.032     2.562     2.503
    38   1 H        0.925     0.038     2.469     2.457
    39   1 H        0.926     0.040     2.444     2.445
    40   1 H        0.926     0.026     2.640     2.541
    41   1 H        0.926     0.034     2.533     2.489
    42   1 H        0.926     0.041     2.430     2.438
    43   1 H        0.925     0.038     2.475     2.460
    44   1 H        0.925     0.036     2.498     2.472
    45   1 H        0.925     0.036     2.501     2.473
    46   1 H        0.925     0.035     2.510     2.477
    47   1 H        0.925     0.033     2.545     2.495
    48   1 H        0.925     0.039     2.458     2.452
    49   1 H        0.925     0.039     2.460     2.453
    50   1 H        0.925     0.033     2.549     2.497
    51   1 H        0.925     0.035     2.512     2.478
    52   1 H        0.926     0.032     2.558     2.501
    53   1 H        0.926     0.016     2.796     2.615
    54   1 H        0.926     0.054     2.267     2.354
    55   1 H        0.926     0.056     2.252     2.347
    56   1 H        0.926     0.053     2.279     2.361
    57   1 H        0.926     0.047     2.359     2.402

molecular dipole:
                 x           y           z       tot (Debye)
 q only:       -0.799       0.354      -1.181
   full:       -0.924       0.700      -1.445       4.707

 projected vibrational frequencies (cm⁻¹)
eigval :       -0.00    -0.00    -0.00    -0.00     0.00     0.00
eigval :       24.18    29.49    32.31    38.85    47.87    69.67
eigval :       78.69    80.21   107.44   121.46   139.48   159.75
eigval :      176.04   180.19   194.08   208.07   216.01   219.06
eigval :      228.01   239.79   249.01   266.16   303.24   307.93
eigval :      317.18   323.58   330.57   346.20   355.02   356.73
eigval :      362.68   379.02   398.27   409.37   438.27   443.08
eigval :      451.90   458.37   464.64   468.63   501.49   519.08
eigval :      543.69   557.01   574.51   579.85   586.62   625.69
eigval :      635.90   640.28   686.00   686.99   704.77   719.15
eigval :      725.99   774.20   779.40   818.60   820.40   831.20
eigval :      869.99   871.80   880.26   886.25   907.85   911.47
eigval :      915.68   916.84   924.49   930.24   939.64   958.37
eigval :      958.75   961.07   961.71   962.58   962.95  1031.11
eigval :     1034.48  1034.83  1035.36  1038.52  1085.57  1092.54
eigval :     1125.24  1129.47  1149.54  1175.37  1178.07  1206.85
eigval :     1219.51  1225.11  1225.63  1227.97  1231.07  1233.66
eigval :     1241.68  1247.09  1257.89  1283.18  1297.95  1304.24
eigval :     1309.17  1345.07  1358.32  1365.28  1398.85  1400.71
eigval :     1402.80  1402.99  1410.40  1424.98  1426.42  1426.51
eigval :     1439.55  1461.09  1472.37  1481.35  1488.24  1488.29
eigval :     1491.93  1492.15  1498.70  1499.99  1501.69  1502.17
eigval :     1510.66  1511.35  1517.37  1517.59  1551.46  1571.45
eigval :     1579.08  1584.47  1604.29  1616.33  2356.90  3018.32
eigval :     3019.57  3019.62  3020.55  3022.87  3023.61  3024.54
eigval :     3025.29  3026.59  3027.19  3030.21  3030.60  3034.96
eigval :     3035.33  3044.37  3045.52  3047.66  3048.71  3068.53
eigval :     3076.91  3085.04  3088.44  3090.92  3091.63  3097.77
eigval :     3104.96  3116.86  3118.40

   temp. (K)  partition function   enthalpy   heat capacity  entropy
                                   cal/mol     cal/K/mol   cal/K/mol   J/K/mol
 298.15  VIB  0.688E+11            15620.289     98.921     94.749
         ROT  0.197E+08              888.752      2.981     36.359
         INT  0.135E+19            16509.042    101.902    131.108
         TR   0.718E+28             1481.254      4.968     43.682
         TOT                       17990.2956   106.8705   174.7894   731.3187

       T/K    H(0)-H(T)+PV         H(T)/Eh          T*S/Eh         G(T)/Eh
   ------------------------------------------------------------------------
    298.15    0.286694E-01    0.498560E+00    0.830481E-01    0.415512E+00
   ------------------------------------------------------------------------

         :::::::::::::::::::::::::::::::::::::::::::::::::::::
         ::                  THERMODYNAMIC                  ::
         :::::::::::::::::::::::::::::::::::::::::::::::::::::
         :: total free energy         -77.582065340488 Eh   ::
         ::.................................................::
         :: total energy              -77.997577430580 Eh   ::
         :: zero point energy           0.469890798499 Eh   ::
         :: G(RRHO) w/o ZPVE           -0.054378708407 Eh   ::
         :: G(RRHO) contrib.            0.415512090092 Eh   ::
         :::::::::::::::::::::::::::::::::::::::::::::::::::::

           -------------------------------------------------
          | TOTAL ENERGY              -77.997577430580 Eh   |
          | TOTAL ENTHALPY            -77.499017271159 Eh   |
          | TOTAL FREE ENERGY         -77.582065340488 Eh   |
          | GRADIENT NORM               0.000044572218 Eh/α |
          | HOMO-LUMO GAP               2.245451284243 eV   |
           -------------------------------------------------

 * finished run on 2025/08/22 at 09:48:18.737
