   * xtb version 6.7.1 (edcfbbe) compiled by 'albert@albert-system' on 2024-07-22

   ID    Z sym.   atoms
    1    6 C      1-20, 22-28
    2    7 N      21, 29
    3    1 H      30-57

          program call               : xtb data2507/toluene/CzBN/CzBN_toluene_S0_finalOpt.xtbopt.xyz --gfn 2 --uhf 2 --gbsa toluene --ohess vtight --parallel 40 --molden --ceasefiles --namespace data2507/toluene/CzBN/CzBN_toluene_T1_preOpt
      * Solvation model:               GBSA
        Solvent                        toluene
        Solvent mass                       9.2140E+01 g/mol
          :  Hamiltonian                  GFN2-xTB          :
 * total energy  :   -77.8910770 Eh     change       -0.9114643E-08 Eh
 * total energy  :   -77.8944591 Eh     change       -0.3382101E-02 Eh
 * total energy  :   -77.8954366 Eh     change       -0.9774984E-03 Eh
 * total energy  :   -77.8955825 Eh     change       -0.1459061E-03 Eh
 * total energy  :   -77.8956769 Eh     change       -0.9444288E-04 Eh
 * total energy  :   -77.8957127 Eh     change       -0.3574754E-04 Eh
 * total energy  :   -77.8957415 Eh     change       -0.2879644E-04 Eh
 * total energy  :   -77.8957552 Eh     change       -0.1373655E-04 Eh
 * total energy  :   -77.8957647 Eh     change       -0.9456018E-05 Eh
 * total energy  :   -77.8957693 Eh     change       -0.4655609E-05 Eh
 * total energy  :   -77.8957836 Eh     change       -0.2180329E-05 Eh
 * total energy  :   -77.8957849 Eh     change       -0.1338208E-05 Eh
 * total energy  :   -77.8957859 Eh     change       -0.9712200E-06 Eh
 * total energy  :   -77.8957868 Eh     change       -0.9302988E-06 Eh
 * total energy  :   -77.8957876 Eh     change       -0.7332571E-06 Eh
 * total energy  :   -77.8957880 Eh     change       -0.4200345E-06 Eh
 * total energy  :   -77.8957882 Eh     change       -0.1796508E-06 Eh
 * total energy  :   -77.8957882 Eh     change        0.4042718E-08 Eh
 * total energy  :   -77.8957882 Eh     change       -0.8143037E-07 Eh
   *** GEOMETRY OPTIMIZATION CONVERGED AFTER 23 ITERATIONS ***

 final structure:
================
57
 xtb: 6.7.1 (edcfbbe)
C           -5.62129216226204       -1.00009179987277       -1.03303208562330
C           -4.75520025224695       -1.36840772516659        0.18239846312800
C           -4.59596842518629       -2.89151454527777        0.21157597056333
C           -5.46572971329892       -0.93700245931359        1.47547885346449
C           -3.42726087053009       -0.63991673788698        0.07946312148699
C           -3.42244737523548        0.76384714895908        0.04499071869560
C           -2.25702858177701        1.50307051252323       -0.05995817979245
C           -1.05362541936492        0.81802485495030       -0.14315283840398
C           -1.02649791162638       -0.60012144087698       -0.06968320243671
C           -2.20821973706653       -1.31645535112033        0.03032032509521
C            0.35855661619792       -0.98144965643565       -0.11222491852289
C            1.00770941010615       -2.20394713179873       -0.10157063901177
C            2.39813801732672       -2.25142576270141       -0.21158196162220
C            3.16800234262086       -3.55903287102183       -0.19460164022443
C            3.93646231803705       -3.70859206952742       -1.51760860225239
C            4.15811615739869       -3.53462548749982        0.98097434393319
C            2.26004927175088       -4.78146829415989       -0.02891560896024
C            3.10589293614213       -1.04672441490171       -0.35478298454868
C            2.48299064091966        0.18707006466657       -0.36442957144825
C            1.10384619434275        0.22470067321846       -0.21316436421398
N            0.23936636120859        1.29862754706009       -0.22768682825049
C            0.59146638365036        2.63028243055016       -0.32300878656264
C           -0.06444381596027        3.47490014547725       -1.21167246766118
C            0.27128058093084        4.80688270666095       -1.32268697045927
C            1.29023830271772        5.34378029208949       -0.49042624537025
C            1.93972851245826        4.55592986337009        0.41205117798214
C            1.62557956057991        3.17782629651414        0.55472644909193
C            2.15236186142050        2.45199060890938        1.59807741220214
N            2.63495667969078        1.85351958192366        2.47519280936111
H           -5.11627495121912       -1.28249970955913       -1.95462412917709
H           -6.57102081630969       -1.52796166190617       -0.98390031380315
H           -5.82621670512313        0.06600693337615       -1.06853072418018
H           -4.01711289221323       -3.20865699127118        1.07591061764887
H           -4.11746339193581       -3.25384933217028       -0.69529475857099
H           -5.57806285248278       -3.35480172745023        0.27936455931043
H           -4.84635106864770       -1.16681214214304        2.34017161166213
H           -5.67563021276716        0.12867703393710        1.48022521591715
H           -6.40878285540783       -1.46990399941593        1.57469011882076
H           -4.35497653873399        1.30064407687561        0.10958008182474
H           -2.28967709284315        2.58178704743940       -0.06148810675178
H           -2.16200327737549       -2.39075538504571        0.07623895167804
H            0.42284670768741       -3.10337537376428       -0.01392376430037
H            4.47899865497023       -4.65123309268900       -1.52468929751078
H            4.65209587252873       -2.90341670815412       -1.65605619185885
H            3.24497056897935       -3.70058553987142       -2.35770520427609
H            3.62409670124178       -3.40385967095740        1.92002543403600
H            4.87398771346951       -2.72353701232151        0.88377103140604
H            4.70768252131177       -4.47243553692144        1.02203424337661
H            2.86977902254127       -5.68234321424470       -0.01295992121471
H            1.56034418842680       -4.86616371649795       -0.85708013920414
H            1.70805361371723       -4.73479875503310        0.90687101006626
H            4.17777206683182       -1.06895115641199       -0.46587703094461
H            3.05939277071149        1.09047381090433       -0.49061280370046
H           -0.80200568795983        3.04578259419073       -1.87552167131722
H           -0.20911967237094        5.43411967159937       -2.05551225074743
H            1.55015581620444        6.38785314296674       -0.58326535579585
H            2.70417051882097        4.96552595458758        1.05822667787745

          :  Hamiltonian                  GFN2-xTB          :
         :: gradient norm              0.000080648409 Eh/a0 ::
         :: HOMO-LUMO gap              0.211140123964 eV    ::
         :: SCC energy               -79.278237732002 Eh    ::
         :: -> dispersion             -0.068184359635 Eh    ::
         :: -> Gsolv                  -0.038569913763 Eh    ::
         :: repulsion energy           1.382449499548 Eh    ::

    * Orbital Energies and Occupations

         #    Occupation            Energy/Eh            Energy/eV
      -------------------------------------------------------------
         1        2.0000           -0.6936744             -18.8758
       ...           ...                  ...                  ...
        62        2.0000           -0.4303440             -11.7103
        63        2.0000           -0.4281523             -11.6506
        64        2.0000           -0.4266509             -11.6098
        65        2.0000           -0.4235396             -11.5251
        66        2.0000           -0.4199622             -11.4278
        67        2.0000           -0.4172722             -11.3546
        68        2.0000           -0.4114326             -11.1956
        69        2.0000           -0.4106510             -11.1744
        70        2.0000           -0.3987526             -10.8506
        71        2.0000           -0.3935039             -10.7078
        72        1.9999           -0.3876236             -10.5478
        73        1.0001           -0.3705182             -10.0823
        74        0.9834           -0.2630460              -7.1578 (HOMO)
        75        0.0166           -0.2552871              -6.9467 (LUMO)
        76                         -0.2357878              -6.4161
        77                         -0.2295015              -6.2451
        78                         -0.2038126              -5.5460
        79                         -0.1988498              -5.4110
        80                         -0.1858298              -5.0567
        81                         -0.1517447              -4.1292
        82                         -0.1089229              -2.9639
        83                         -0.0765053              -2.0818
        84                         -0.0734978              -2.0000
        85                          0.0056811               0.1546
       ...                                ...                  ...
       144                          1.1543075              31.4103
      -------------------------------------------------------------
                  HL-Gap            0.0077588 Eh            0.2111 eV

     #   Z          covCN         q      C6AA      α(0)
     1   6 C        3.761    -0.108    22.604     6.778
     2   6 C        3.903     0.028    20.043     6.364
     3   6 C        3.761    -0.112    22.682     6.789
     4   6 C        3.761    -0.107    22.598     6.777
     5   6 C        2.972     0.021    27.534     8.607
     6   6 C        2.926    -0.043    29.075     8.843
     7   6 C        2.906    -0.036    28.884     8.812
     8   6 C        3.074     0.040    27.034     8.525
     9   6 C        3.056    -0.013    28.279     8.721
    10   6 C        2.914    -0.037    28.930     8.820
    11   6 C        3.058    -0.012    28.265     8.719
    12   6 C        2.914    -0.038    28.937     8.821
    13   6 C        2.972     0.023    27.486     8.600
    14   6 C        3.903     0.029    20.038     6.363
    15   6 C        3.761    -0.108    22.607     6.778
    16   6 C        3.762    -0.107    22.589     6.775
    17   6 C        3.761    -0.112    22.691     6.791
    18   6 C        2.927    -0.040    29.006     8.832
    19   6 C        2.906    -0.028    28.703     8.785
    20   6 C        3.072     0.044    26.939     8.510
    21   7 N        2.797     0.018    20.944     6.797
    22   6 C        2.909     0.033    27.269     8.563
    23   6 C        2.912    -0.039    28.969     8.826
    24   6 C        2.912    -0.060    29.485     8.904
    25   6 C        2.910    -0.031    28.780     8.797
    26   6 C        2.917    -0.034    28.858     8.809
    27   6 C        2.960    -0.028    28.701     8.787
    28   6 C        1.908     0.092    28.817     8.670
    29   7 N        0.911    -0.377    29.738     7.887
    30   1 H        0.925     0.037     2.485     2.465
    31   1 H        0.925     0.045     2.379     2.412
    32   1 H        0.925     0.041     2.439     2.442
    33   1 H        0.925     0.040     2.445     2.445
    34   1 H        0.925     0.041     2.437     2.441
    35   1 H        0.925     0.043     2.413     2.429
    36   1 H        0.925     0.036     2.498     2.472
    37   1 H        0.925     0.040     2.445     2.445
    38   1 H        0.925     0.045     2.378     2.411
    39   1 H        0.926     0.046     2.367     2.406
    40   1 H        0.926     0.044     2.399     2.422
    41   1 H        0.926     0.059     2.210     2.325
    42   1 H        0.926     0.061     2.187     2.313
    43   1 H        0.925     0.047     2.361     2.403
    44   1 H        0.925     0.040     2.445     2.445
    45   1 H        0.925     0.038     2.474     2.460
    46   1 H        0.925     0.037     2.494     2.469
    47   1 H        0.925     0.040     2.453     2.449
    48   1 H        0.925     0.046     2.365     2.405
    49   1 H        0.925     0.044     2.399     2.422
    50   1 H        0.925     0.042     2.424     2.435
    51   1 H        0.925     0.041     2.436     2.441
    52   1 H        0.926     0.045     2.377     2.411
    53   1 H        0.926     0.036     2.497     2.471
    54   1 H        0.926     0.035     2.516     2.481
    55   1 H        0.926     0.026     2.637     2.539
    56   1 H        0.926     0.028     2.621     2.532
    57   1 H        0.925     0.020     2.738     2.588

molecular dipole:
                 x           y           z       tot (Debye)
 q only:       -1.943      -2.355      -1.566
   full:       -1.984      -1.826      -1.817       8.265

 projected vibrational frequencies (cm⁻¹)
eigval :       -0.00    -0.00    -0.00    -0.00    -0.00     0.00
eigval :       20.58    22.70    27.59    32.59    46.71    65.92
eigval :       78.64    82.01   102.94   116.70   134.78   152.43
eigval :      168.95   184.23   194.35   206.16   210.85   219.63
eigval :      223.43   230.12   245.19   253.13   278.26   314.50
eigval :      320.36   324.31   331.40   334.10   347.70   349.18
eigval :      352.00   380.43   385.03   393.24   405.81   425.68
eigval :      431.94   439.92   452.86   464.02   470.77   499.76
eigval :      515.42   550.82   568.31   571.12   591.21   601.75
eigval :      619.09   628.95   637.81   686.65   695.12   705.83
eigval :      706.18   716.23   757.59   804.97   810.78   814.54
eigval :      827.35   845.76   850.10   868.10   880.23   885.35
eigval :      890.14   899.14   908.45   919.60   927.95   957.72
eigval :      958.41   961.38   961.81   961.94   963.77  1023.84
eigval :     1030.49  1031.50  1032.27  1034.29  1037.11  1078.68
eigval :     1093.32  1114.77  1121.81  1130.89  1152.52  1190.38
eigval :     1199.91  1205.24  1213.04  1216.49  1217.56  1223.02
eigval :     1226.12  1246.69  1250.17  1253.33  1277.01  1284.79
eigval :     1300.26  1305.15  1322.16  1353.75  1370.55  1388.84
eigval :     1398.53  1399.69  1401.20  1402.06  1412.25  1423.15
eigval :     1424.59  1425.27  1437.40  1448.05  1468.36  1483.54
eigval :     1484.98  1487.19  1488.46  1489.64  1494.38  1496.94
eigval :     1497.40  1498.45  1509.74  1510.90  1513.32  1514.78
eigval :     1520.47  1535.63  1546.66  1561.56  2170.15  3024.99
eigval :     3025.17  3025.24  3025.67  3028.43  3028.65  3028.83
eigval :     3029.47  3032.11  3032.51  3034.87  3034.99  3039.94
eigval :     3040.16  3048.73  3049.71  3052.07  3052.92  3062.18
eigval :     3068.79  3081.54  3090.13  3090.44  3104.22  3107.39
eigval :     3108.02  3125.99  3129.30

   temp. (K)  partition function   enthalpy   heat capacity  entropy
                                   cal/mol     cal/K/mol   cal/K/mol   J/K/mol
 298.15  VIB  0.238E+12            15999.890    100.641     97.251
         ROT  0.198E+08              888.752      2.981     36.367
         INT  0.472E+19            16888.642    103.622    133.618
         TR   0.718E+28             1481.254      4.968     43.682
         TOT                       18369.8959   108.5898   177.2992   741.8199

       T/K    H(0)-H(T)+PV         H(T)/Eh          T*S/Eh         G(T)/Eh
   ------------------------------------------------------------------------
    298.15    0.292743E-01    0.494348E+00    0.842406E-01    0.410107E+00
   ------------------------------------------------------------------------

         :::::::::::::::::::::::::::::::::::::::::::::::::::::
         ::                  THERMODYNAMIC                  ::
         :::::::::::::::::::::::::::::::::::::::::::::::::::::
         :: total free energy         -77.485681083190 Eh   ::
         ::.................................................::
         :: total energy              -77.895788230798 Eh   ::
         :: zero point energy           0.465073436967 Eh   ::
         :: G(RRHO) w/o ZPVE           -0.054966289359 Eh   ::
         :: G(RRHO) contrib.            0.410107147608 Eh   ::
         :::::::::::::::::::::::::::::::::::::::::::::::::::::

           -------------------------------------------------
          | TOTAL ENERGY              -77.895788230798 Eh   |
          | TOTAL ENTHALPY            -77.401440501327 Eh   |
          | TOTAL FREE ENERGY         -77.485681083190 Eh   |
          | GRADIENT NORM               0.000081420212 Eh/α |
          | HOMO-LUMO GAP               0.211127895388 eV   |
           -------------------------------------------------

 * finished run on 2025/08/22 at 09:50:33.339
