   * xtb version 6.7.1 (edcfbbe) compiled by 'albert@albert-system' on 2024-07-22

   ID    Z sym.   atoms
    1    6 C      1-10, 12-36, 38-43, 45-50
    2    7 N      11, 44
    3    5 B      37
    4    1 H      51-85

          program call               : xtb data2507/gas/B-dpa-SpiroAC/B-dpa-SpiroAC_gas_T1_crest.xyz --gfn 2 --spinpol --tblite --uhf 2 --ohess vtight --parallel 40 --molden --ceasefiles --namespace data2507/gas/B-dpa-SpiroAC/B-dpa-SpiroAC_gas_T1_finalOpt
 * total energy  :  -125.5902291 Eh     change        0.5502905E-07 Eh
 * total energy  :  -125.5902340 Eh     change       -0.4920150E-05 Eh
 * total energy  :  -125.5902362 Eh     change       -0.2218647E-05 Eh
 * total energy  :  -125.5902371 Eh     change       -0.8478249E-06 Eh
 * total energy  :  -125.5902383 Eh     change       -0.1231691E-05 Eh
 * total energy  :  -125.5902396 Eh     change       -0.1275039E-05 Eh
 * total energy  :  -125.5902410 Eh     change       -0.1459116E-05 Eh
 * total energy  :  -125.5902428 Eh     change       -0.1751278E-05 Eh
 * total energy  :  -125.5902443 Eh     change       -0.1509341E-05 Eh
 * total energy  :  -125.5902460 Eh     change       -0.1733140E-05 Eh
 * total energy  :  -125.5902476 Eh     change       -0.1602561E-05 Eh
 * total energy  :  -125.5902486 Eh     change       -0.9720518E-06 Eh
 * total energy  :  -125.5902491 Eh     change       -0.5215845E-06 Eh
 * total energy  :  -125.5902495 Eh     change       -0.3877357E-06 Eh
 * total energy  :  -125.5902498 Eh     change       -0.2735507E-06 Eh
 * total energy  :  -125.5902499 Eh     change       -0.1316747E-06 Eh
 * total energy  :  -125.5902499 Eh     change       -0.3262743E-07 Eh
   *** GEOMETRY OPTIMIZATION CONVERGED AFTER 17 ITERATIONS ***

 final structure:
================
85
 xtb: 6.7.1 (edcfbbe)
C            3.72166515636816        4.31769836827439       -0.36603160189458
C            2.26071572780161        3.92722824641326       -0.12651157289405
C            1.78406276122187        4.62170269207041        1.15810973803993
C            1.43023738148507        4.42111876075296       -1.32007484037836
C            2.07324907264203        2.42691353028660        0.02359661471995
C            3.13153001712060        1.51834665596096       -0.06508060089832
C            2.92120122642375        0.14013524563941        0.04370756274768
C            1.62578047278187       -0.38065319968319        0.21544379358004
C            0.58595867692821        0.54765253999112        0.39208186611940
C            0.79969843334744        1.92065417498791        0.25988148921805
N           -0.70042336336404        0.06595050848856        0.63860606247286
C           -1.57643074407207        0.79765999748393        1.41757089599322
C           -1.10448188501013        1.64390813634278        2.43299997456130
C           -1.98512112752839        2.37691727327036        3.19455061060851
C           -3.35360110820071        2.27798943623657        2.97260938089782
C           -3.83057370174084        1.41318094455268        2.00014408687338
C           -2.96220713020724        0.66034832997082        1.23074703908432
C           -3.45321582000798       -0.25264178716501        0.13935580167848
C           -4.85881244053868       -0.74320387065233        0.39686708293085
C           -5.31035253005115       -1.52415316809759        1.43865687179011
C           -6.65815937642933       -1.85602853306249        1.48288838330017
C           -7.53147473235213       -1.40917733660369        0.50187609457967
C           -7.08231690722684       -0.62235409930629       -0.54602617938880
C           -5.73783152786052       -0.28897596724627       -0.59688533729607
C           -4.98393766771119        0.50333207954569       -1.55317571308286
C           -5.38422121574429        1.16238363650750       -2.70442230689490
C           -4.43421745906519        1.85224792784880       -3.43952227640398
C           -3.10783416014822        1.88049209705815       -3.03738302154884
C           -2.69874390215284        1.21954670100556       -1.88576436439866
C           -3.64146244518263        0.53793645550000       -1.14904260129404
C           -2.47027417835865       -1.37795047692782       -0.08507505450046
C           -2.90496092354044       -2.59077048070462       -0.60313403977901
C           -1.98152216261307       -3.58529564787290       -0.89836364485215
C           -0.63787824867205       -3.37881826187954       -0.67622793100761
C           -0.14195370754701       -2.18457799365320       -0.13092236882322
C           -1.10646352269143       -1.16851230478443        0.13324408638195
B            1.34178560963163       -1.86412430111433        0.11252537211644
C            2.59392493863755       -2.75030194039806        0.12344811110744
C            2.59219967874268       -4.14755283960421        0.26057308953686
C            3.75043460642495       -4.89393521751904        0.31043392115059
C            4.98443660291519       -4.26007192055391        0.23984341631993
C            5.03954163880141       -2.88210853684668        0.12862359012567
C            3.87041159018908       -2.12049339274924        0.06231205618135
N            3.98540398308768       -0.73778062176758       -0.04243395441005
C            5.28694213388320       -0.18202342646320       -0.18362489149066
C            5.92753129502070       -0.22777953382202       -1.41697395525686
C            7.18564037504270        0.32803780400978       -1.55986861701237
C            7.80849579872089        0.93153579245991       -0.47911278288734
C            7.17024381797822        0.97718748627347        0.75001080891692
C            5.91253587599954        0.42291122631485        0.90134741785379
H            4.10059709399082        3.87633471486705       -1.28516550461329
H            4.35258747526011        4.00699614225224        0.46392277100968
H            3.79662141021912        5.39936169120848       -0.45782754930103
H            1.92529841802688        5.69747241519612        1.07792648246319
H            0.73065742455922        4.43087997549591        1.34530206295258
H            2.35387508592228        4.26253190242961        2.01289307239393
H            1.56777444517157        5.49181461831208       -1.45573801873574
H            0.37049034983867        4.23201131750056       -1.17143703010222
H            1.74344686522091        3.91445490123866       -2.23069426450331
H            4.12675628949443        1.88090197985964       -0.25526347300841
H           -0.04927113429831        2.58660173535016        0.30424687894343
H           -0.04357546190519        1.69237532064341        2.62760831040741
H           -1.60854371734576        3.02323065430470        3.97333223236207
H           -4.04406988488743        2.86035961582353        3.56252646488753
H           -4.89408999119366        1.32518318914243        1.83504599790548
H           -4.62943732114487       -1.87198887339823        2.20196002332685
H           -7.03057057748143       -2.46937378254697        2.29016018420364
H           -8.57602934498393       -1.67985584112164        0.55680228671325
H           -7.76591557858568       -0.27698269858133       -1.30738934444269
H           -6.41590887336720        1.13849516894796       -3.02269311203929
H           -4.72890061326358        2.37305159051177       -4.33910229452059
H           -2.38142830743078        2.42100640645524       -3.62648604431824
H           -1.66055196516155        1.24145342949898       -1.58870859266479
H           -3.95555720372220       -2.74812503371862       -0.79144203353058
H           -2.32619470738124       -4.52331704888897       -1.30996338348820
H            0.06419924793692       -4.15265742644767       -0.94350147551852
H            1.64193598270698       -4.64905479862945        0.35739420522285
H            3.70167186069114       -5.96853140025734        0.41577376601369
H            5.89987383116517       -4.83069984308881        0.28388235912870
H            6.00579255952228       -2.40086273906878        0.09853744361713
H            5.43251304108217       -0.70168928398006       -2.25154116869888
H            7.68057629453483        0.29220046441550       -2.51880824009819
H            8.79042977105535        1.36482259746171       -0.59416983021438
H            7.65488427538300        1.44404281679363        1.59450831461773
H            5.40572705439217        0.45169483955161        1.85476011663478

 projected vibrational frequencies (cm⁻¹)
eigval :       -0.00    -0.00    -0.00     0.00     0.00     0.00
eigval :       12.63    18.86    20.18    30.24    34.36    39.21
eigval :       47.49    50.99    56.82    71.37    74.69    80.85
eigval :       91.58   103.46   115.84   132.39   134.81   142.76
eigval :      151.90   178.04   189.41   190.46   203.45   213.63
eigval :      218.27   225.84   231.35   240.43   244.82   259.74
eigval :      265.89   282.07   284.26   291.33   307.09   324.10
eigval :      338.11   340.22   361.70   369.08   373.41   384.44
eigval :      387.50   398.49   412.17   414.80   418.51   430.48
eigval :      437.37   438.85   446.04   459.08   470.31   474.81
eigval :      479.18   492.68   497.64   501.93   506.30   515.63
eigval :      535.73   544.49   549.64   567.72   578.31   586.59
eigval :      588.51   590.50   596.89   601.04   611.59   615.64
eigval :      635.29   639.02   654.53   661.87   671.65   674.53
eigval :      687.13   695.73   697.65   706.64   725.07   743.29
eigval :      751.96   755.22   764.77   768.63   770.83   778.13
eigval :      780.52   783.83   803.73   849.70   860.73   863.74
eigval :      865.15   874.31   875.15   877.24   880.88   883.22
eigval :      884.54   890.38   896.92   897.67   902.44   906.94
eigval :      907.46   909.61   909.68   914.66   916.59   919.86
eigval :      924.40   925.78   927.96   929.46   930.04   957.93
eigval :      961.66   962.79   975.37   985.70  1001.99  1015.73
eigval :     1034.72  1034.77  1067.12  1074.56  1077.34  1081.38
eigval :     1093.01  1096.22  1100.42  1113.97  1118.54  1123.86
eigval :     1140.12  1144.14  1148.17  1172.01  1174.33  1178.19
eigval :     1179.13  1179.24  1179.80  1184.48  1186.13  1194.66
eigval :     1198.78  1206.41  1210.02  1225.07  1227.76  1229.17
eigval :     1235.05  1246.30  1247.57  1254.50  1259.25  1261.85
eigval :     1263.71  1271.82  1273.65  1276.84  1283.29  1284.34
eigval :     1295.66  1311.09  1317.02  1322.39  1327.28  1333.05
eigval :     1336.18  1350.18  1364.39  1366.76  1394.22  1400.38
eigval :     1405.64  1406.03  1409.58  1414.37  1422.88  1427.04
eigval :     1428.10  1428.86  1431.94  1452.34  1453.25  1462.04
eigval :     1466.57  1467.84  1478.22  1492.15  1493.64  1494.83
eigval :     1503.51  1505.62  1508.08  1514.76  1516.27  1518.39
eigval :     1520.82  1532.58  1550.31  1554.03  1565.45  1575.31
eigval :     1579.19  1583.64  1591.60  1600.73  3021.47  3022.80
eigval :     3024.33  3028.74  3029.83  3032.85  3037.26  3043.36
eigval :     3046.58  3066.71  3068.92  3071.98  3072.51  3076.78
eigval :     3078.71  3078.77  3079.22  3080.43  3080.58  3082.72
eigval :     3084.01  3086.77  3086.80  3089.96  3090.90  3091.16
eigval :     3091.94  3092.85  3094.24  3095.84  3098.14  3100.48
eigval :     3101.12  3103.96  3132.29

   temp. (K)  partition function   enthalpy   heat capacity  entropy
                                   cal/mol     cal/K/mol   cal/K/mol   J/K/mol
 298.15  VIB  0.772E+17            23422.901    152.520    142.592
         ROT  0.672E+08              888.752      2.981     38.799
         INT  0.519E+25            24311.653    155.501    181.391
         TR   0.156E+29             1481.254      4.968     45.224
         TOT                       25792.9072   160.4687   226.6154   948.1589

       T/K    H(0)-H(T)+PV         H(T)/Eh          T*S/Eh         G(T)/Eh
   ------------------------------------------------------------------------
    298.15    0.411036E-01    0.706745E+00    0.107672E+00    0.599072E+00
   ------------------------------------------------------------------------

         :::::::::::::::::::::::::::::::::::::::::::::::::::::
         ::                  THERMODYNAMIC                  ::
         :::::::::::::::::::::::::::::::::::::::::::::::::::::
         :: total free energy        -124.991177683182 Eh   ::
         ::.................................................::
         :: total energy             -125.590249935288 Eh   ::
         :: zero point energy           0.665640936962 Eh   ::
         :: G(RRHO) w/o ZPVE           -0.066568684856 Eh   ::
         :: G(RRHO) contrib.            0.599072252106 Eh   ::
         :::::::::::::::::::::::::::::::::::::::::::::::::::::

           -------------------------------------------------
          | TOTAL ENERGY             -125.590249935288 Eh   |
          | TOTAL ENTHALPY           -124.883505384333 Eh   |
          | TOTAL FREE ENERGY        -124.991177683182 Eh   |
          | GRADIENT NORM               0.000095934818 Eh/α |
           -------------------------------------------------

 * finished run on 2025/09/08 at 23:31:12.467
