   * xtb version 6.7.1 (edcfbbe) compiled by 'albert@albert-system' on 2024-07-22

   ID    Z sym.   atoms
    1    6 C      1-10, 12-36, 38-43, 45-50
    2    7 N      11, 44
    3    5 B      37
    4    1 H      51-85

          program call               : xtb data2507/gas/B-dpa-SpiroAC/B-dpa-SpiroAC_gas_S0_crest.xyz --gfn 2 --ohess vtight --parallel 40 --molden --ceasefiles --namespace data2507/gas/B-dpa-SpiroAC/B-dpa-SpiroAC_gas_S0_finalOpt
          :  Hamiltonian                  GFN2-xTB          :
 * total energy  :  -125.6751050 Eh     change       -0.3764001E-08 Eh
 * total energy  :  -125.6751058 Eh     change       -0.8367156E-06 Eh
 * total energy  :  -125.6751065 Eh     change       -0.6383883E-06 Eh
 * total energy  :  -125.6751078 Eh     change       -0.1341364E-05 Eh
 * total energy  :  -125.6751083 Eh     change       -0.4885820E-06 Eh
 * total energy  :  -125.6751087 Eh     change       -0.3926402E-06 Eh
 * total energy  :  -125.6751091 Eh     change       -0.4386407E-06 Eh
 * total energy  :  -125.6751095 Eh     change       -0.3911584E-06 Eh
 * total energy  :  -125.6751098 Eh     change       -0.3202263E-06 Eh
 * total energy  :  -125.6751101 Eh     change       -0.2668256E-06 Eh
 * total energy  :  -125.6751103 Eh     change       -0.1698755E-06 Eh
 * total energy  :  -125.6751104 Eh     change       -0.1021867E-06 Eh
 * total energy  :  -125.6751105 Eh     change       -0.8632482E-07 Eh
   *** GEOMETRY OPTIMIZATION CONVERGED AFTER 13 ITERATIONS ***

 final structure:
================
85
 xtb: 6.7.1 (edcfbbe)
C            1.46650373499658        4.47850406836337       -1.07884994811168
C            2.29552224585852        3.92862993400951        0.09039573339009
C            3.75806328975858        4.32089481745822       -0.13709711757877
C            1.82828918259688        4.56853822387028        1.40560563222408
C            2.09381804395337        2.42329967629062        0.17393213612473
C            3.14229221227770        1.52585940944516        0.04938087832399
C            2.91666048624992        0.14816473006091        0.09577081816425
C            1.61517511060239       -0.35307545860548        0.27118462708647
C            0.57061323131776        0.56845286822390        0.46030966099557
C            0.80812883926341        1.93420755749348        0.38381531265004
N           -0.71489758929627        0.08638037152407        0.67645940995048
C           -1.62906013362476        0.80535979425671        1.45404426710982
C           -1.19335592290615        1.59738958620014        2.51626374636198
C           -2.10118169215223        2.29389502667427        3.28765250362379
C           -3.45768819454508        2.19713885519734        3.02431557355508
C           -3.89918471620120        1.37369968384673        2.00491200340423
C           -2.99824134153301        0.66525064778557        1.22494616676748
C           -3.45312077778238       -0.23904263903224        0.10602593664849
C           -4.87389893544959       -0.71422242862852        0.29063307937812
C           -5.39093685207172       -1.48613128633714        1.30965388970643
C           -6.74126155752690       -1.80661104039522        1.28003092874648
C           -7.55424791368200       -1.36022937296611        0.24864037500735
C           -7.03954190773502       -0.58401364605968       -0.77730601778402
C           -5.69255527260491       -0.26136322953544       -0.75298586500569
C           -4.87917683208873        0.52054976090792       -1.67051317029912
C           -5.21364317806498        1.17795352407779       -2.84241455747716
C           -4.22082357738823        1.85888980145349       -3.52811643501029
C           -2.91889345562200        1.88032634328565       -3.05318579038646
C           -2.57657525676864        1.22225901220999       -1.87908011868992
C           -3.56130428160536        0.54593580590091       -1.19220729303694
C           -2.46912722494336       -1.37888040004088       -0.05288470341009
C           -2.88463191262706       -2.60165564400932       -0.54506475924944
C           -1.96488024010085       -3.60899865780137       -0.79598345389321
C           -0.62760192248552       -3.39079056180270       -0.54927524714136
C           -0.15877914221723       -2.18011295241147       -0.03064614646918
C           -1.10872884061759       -1.16277589633574        0.20193688871772
B            1.33158857414792       -1.83968736912538        0.20085966471573
C            2.58318569647838       -2.73192632502738        0.25942997799327
C            2.56762400282523       -4.11498586173990        0.47867303691563
C            3.71496915267480       -4.87468199444354        0.49173059208644
C            4.94112107394140       -4.25594265684959        0.27869664184016
C            5.00765715489901       -2.89470246670133        0.09279481987738
C            3.84461849470197       -2.11098685399669        0.10138139746706
N            3.96441524498679       -0.73982041882823       -0.04364683803634
C            5.25476747651900       -0.19705758420486       -0.31721691502317
C            5.67772111735529       -0.05952174263355       -1.63244150203110
C            6.92331403236912        0.48008497075055       -1.90166163825984
C            7.74568206783734        0.88377027205434       -0.86312637393256
C            7.32317970757123        0.74673766651480        0.44907392416306
C            6.07971111230319        0.20730120498480        0.72541264863438
H            0.40601205325425        4.28902304739705       -0.93771265170836
H            1.77634940118445        4.01003397635636       -2.01087063191789
H            1.61079832977373        5.55329990257361       -1.16771858601218
H            3.83734794527351        5.40492330334725       -0.19139076006634
H            4.38839918358591        3.97908114410371        0.68082907242169
H            4.13433281948824        3.90940597872062       -1.07105510145735
H            1.98235922886271        5.64516067498095        1.37405169225126
H            2.39510507126756        4.16371794720877        2.24179407579352
H            0.77314505443410        4.38161704813546        1.58561139073328
H            4.14669638138505        1.88441541594781       -0.09234625636580
H           -0.02372906751222        2.61575080716290        0.47176890977498
H           -0.13815157292339        1.65623242801119        2.73664489988791
H           -1.74763534871605        2.90922996258540        4.10169224291967
H           -4.16930919705731        2.75096844475458        3.61742318286791
H           -4.95673085242806        1.28107166029103        1.80723762295588
H           -4.75697099005991       -1.83398158675921        2.11249565036156
H           -7.16394597550659       -2.41094563559013        2.06927871970933
H           -8.60245378731152       -1.62211890277568        0.24616323270374
H           -7.67621950670041       -0.23887218713760       -1.57843325475683
H           -6.22730432724685        1.16100235123567       -3.21468262729809
H           -4.46307308454904        2.37846194996775       -4.44392341413781
H           -2.15833372302321        2.41548513444653       -3.60291490304801
H           -1.55720205546673        1.24435961799687       -1.52453471326879
H           -3.93039290886870       -2.76101526312616       -0.76291060275330
H           -2.30148705904841       -4.55253943583539       -1.19984789017378
H            0.08721517946847       -4.16385535375073       -0.78584912848136
H            1.61684569433015       -4.59179651174260        0.66376123332154
H            3.66789608525547       -5.93989564669762        0.66412323384586
H            5.85046203345400       -4.83957124997750        0.27320304019252
H            5.97195811677999       -2.42870265040509       -0.04643498541264
H            5.02644774365410       -0.37721304525729       -2.43318786200017
H            7.25183373885030        0.58636939777462       -2.92478774791412
H            8.71655110870480        1.30539351644539       -1.07593578546970
H            7.96382923042168        1.06083686931187        1.25964568224380
H            5.73814541314542        0.09559541497094        1.74396358735379

          :  Hamiltonian                  GFN2-xTB          :
         :: gradient norm              0.000055788119 Eh/a0 ::
         :: HOMO-LUMO gap              2.233279929623 eV    ::
         :: SCC energy              -128.004062446348 Eh    ::
         :: -> dispersion             -0.130321201980 Eh    ::
         :: repulsion energy           2.328951990014 Eh    ::

    * Orbital Energies and Occupations

         #    Occupation            Energy/Eh            Energy/eV
      -------------------------------------------------------------
         1        2.0000           -0.6680586             -18.1788
       ...           ...                  ...                  ...
       106        2.0000           -0.4042528             -11.0003
       107        2.0000           -0.4014751             -10.9247
       108        2.0000           -0.3982029             -10.8357
       109        2.0000           -0.3936132             -10.7108
       110        2.0000           -0.3930679             -10.6959
       111        2.0000           -0.3917783             -10.6608
       112        2.0000           -0.3874094             -10.5419
       113        2.0000           -0.3847909             -10.4707
       114        2.0000           -0.3782354             -10.2923
       115        2.0000           -0.3754965             -10.2178
       116        2.0000           -0.3740035             -10.1772
       117        2.0000           -0.3581167              -9.7449
       118        2.0000           -0.3391282              -9.2281 (HOMO)
       119                         -0.2570568              -6.9949 (LUMO)
       120                         -0.2479983              -6.7484
       121                         -0.2375717              -6.4647
       122                         -0.2369150              -6.4468
       123                         -0.2245500              -6.1103
       124                         -0.2227641              -6.0617
       125                         -0.2203342              -5.9956
       126                         -0.2164269              -5.8893
       127                         -0.2133547              -5.8057
       128                         -0.2118538              -5.7648
       129                         -0.2075766              -5.6484
       ...                                ...                  ...
       235                          0.7339109              19.9707
      -------------------------------------------------------------
                  HL-Gap            0.0820714 Eh            2.2333 eV

     #   Z          covCN         q      C6AA      α(0)
     1   6 C        3.762    -0.104    22.533     6.767
     2   6 C        3.904     0.026    20.088     6.371
     3   6 C        3.761    -0.105    22.558     6.771
     4   6 C        3.762    -0.104    22.532     6.767
     5   6 C        2.973     0.009    27.808     8.650
     6   6 C        2.923    -0.079    29.975     8.978
     7   6 C        2.926     0.058    26.690     8.472
     8   6 C        2.901    -0.109    30.757     9.093
     9   6 C        2.924     0.057    26.719     8.477
    10   6 C        2.925    -0.071    29.758     8.946
    11   7 N        2.757    -0.048    22.165     6.992
    12   6 C        2.935     0.058    26.707     8.475
    13   6 C        2.923    -0.049    29.224     8.865
    14   6 C        2.919    -0.034    28.846     8.807
    15   6 C        2.919    -0.039    28.975     8.827
    16   6 C        2.923    -0.036    28.901     8.816
    17   6 C        2.987    -0.003    28.094     8.694
    18   6 C        3.951     0.012    20.302     6.402
    19   6 C        3.055     0.003    27.911     8.664
    20   6 C        2.914    -0.031    28.785     8.798
    21   6 C        2.922    -0.033    28.812     8.802
    22   6 C        2.921    -0.033    28.823     8.804
    23   6 C        2.914    -0.034    28.858     8.809
    24   6 C        3.035     0.001    27.969     8.674
    25   6 C        3.036     0.001    27.978     8.676
    26   6 C        2.915    -0.034    28.846     8.807
    27   6 C        2.921    -0.033    28.827     8.805
    28   6 C        2.923    -0.033    28.814     8.803
    29   6 C        2.914    -0.035    28.867     8.810
    30   6 C        3.056     0.004    27.891     8.661
    31   6 C        2.981    -0.008    28.209     8.712
    32   6 C        2.924    -0.036    28.894     8.815
    33   6 C        2.914    -0.042    29.037     8.836
    34   6 C        2.923    -0.036    28.899     8.816
    35   6 C        2.888    -0.083    30.080     8.992
    36   6 C        2.939     0.052    26.838     8.496
    37   5 B        2.726     0.194    18.467     7.200
    38   6 C        2.888    -0.084    30.090     8.993
    39   6 C        2.923    -0.032    28.806     8.801
    40   6 C        2.914    -0.043    29.063     8.840
    41   6 C        2.920    -0.029    28.717     8.788
    42   6 C        2.920    -0.056    29.397     8.891
    43   6 C        2.925     0.059    26.676     8.470
    44   7 N        2.755    -0.054    22.289     7.012
    45   6 C        2.933     0.071    26.414     8.429
    46   6 C        2.922    -0.037    28.917     8.818
    47   6 C        2.920    -0.027    28.685     8.783
    48   6 C        2.920    -0.030    28.759     8.794
    49   6 C        2.920    -0.028    28.697     8.785
    50   6 C        2.921    -0.037    28.908     8.817
    51   1 H        0.925     0.037     2.488     2.467
    52   1 H        0.925     0.033     2.549     2.497
    53   1 H        0.925     0.036     2.506     2.476
    54   1 H        0.925     0.035     2.514     2.480
    55   1 H        0.925     0.034     2.535     2.490
    56   1 H        0.925     0.034     2.535     2.490
    57   1 H        0.925     0.036     2.509     2.477
    58   1 H        0.925     0.032     2.558     2.501
    59   1 H        0.925     0.037     2.484     2.464
    60   1 H        0.926     0.027     2.628     2.535
    61   1 H        0.926     0.026     2.645     2.543
    62   1 H        0.926     0.038     2.479     2.462
    63   1 H        0.926     0.031     2.568     2.506
    64   1 H        0.926     0.030     2.582     2.513
    65   1 H        0.926     0.032     2.553     2.499
    66   1 H        0.926     0.028     2.617     2.530
    67   1 H        0.926     0.029     2.599     2.521
    68   1 H        0.926     0.029     2.607     2.525
    69   1 H        0.926     0.029     2.594     2.519
    70   1 H        0.926     0.030     2.582     2.513
    71   1 H        0.926     0.029     2.604     2.523
    72   1 H        0.926     0.029     2.601     2.522
    73   1 H        0.926     0.031     2.576     2.510
    74   1 H        0.926     0.026     2.640     2.541
    75   1 H        0.926     0.023     2.681     2.561
    76   1 H        0.926     0.032     2.555     2.499
    77   1 H        0.926     0.031     2.568     2.506
    78   1 H        0.926     0.022     2.710     2.575
    79   1 H        0.926     0.023     2.686     2.563
    80   1 H        0.926     0.019     2.754     2.595
    81   1 H        0.926     0.042     2.428     2.437
    82   1 H        0.926     0.038     2.470     2.458
    83   1 H        0.926     0.037     2.484     2.465
    84   1 H        0.926     0.038     2.473     2.459
    85   1 H        0.926     0.042     2.421     2.433

molecular dipole:
                 x           y           z       tot (Debye)
 q only:        0.835       0.616      -0.016
   full:        0.867       0.708      -0.054       2.848

 projected vibrational frequencies (cm⁻¹)
eigval :       -0.00    -0.00     0.00     0.00     0.00     0.00
eigval :       13.86    18.89    22.49    27.30    35.62    39.76
eigval :       47.00    50.93    55.85    72.70    76.28    83.32
eigval :       94.15   103.52   121.48   132.57   136.81   145.99
eigval :      153.35   178.47   189.19   197.16   204.83   216.00
eigval :      219.42   225.61   233.40   241.65   244.26   262.31
eigval :      267.21   283.86   285.30   297.38   308.90   324.76
eigval :      339.21   340.62   363.47   371.86   373.87   387.90
eigval :      392.49   405.16   413.02   417.92   419.38   435.99
eigval :      440.33   445.90   447.91   463.59   480.02   483.09
eigval :      489.25   500.80   502.92   505.97   512.20   520.91
eigval :      539.60   551.92   565.06   576.17   586.19   589.64
eigval :      593.13   596.46   604.32   615.50   618.35   633.76
eigval :      639.91   644.51   658.93   676.12   680.52   685.81
eigval :      695.72   703.71   710.10   716.56   728.87   747.84
eigval :      756.49   769.48   771.04   771.72   782.57   785.45
eigval :      786.26   798.97   824.63   867.31   869.62   872.33
eigval :      877.36   877.96   880.19   887.68   890.90   895.99
eigval :      901.24   901.80   904.83   909.12   910.82   911.98
eigval :      916.11   916.86   922.10   925.31   927.06   928.48
eigval :      929.60   930.23   931.34   933.66   938.59   960.45
eigval :      962.83   963.62   980.66   989.87  1005.61  1020.17
eigval :     1035.73  1035.88  1074.03  1075.81  1078.57  1083.57
eigval :     1101.68  1102.64  1108.26  1113.09  1125.04  1132.14
eigval :     1145.00  1148.97  1155.42  1175.60  1179.42  1180.63
eigval :     1182.95  1184.26  1185.94  1187.23  1189.17  1201.21
eigval :     1205.28  1215.41  1221.10  1227.77  1234.07  1237.53
eigval :     1242.97  1251.05  1254.49  1262.29  1266.27  1270.21
eigval :     1273.50  1281.73  1286.43  1292.58  1302.02  1305.10
eigval :     1309.26  1313.78  1326.38  1326.91  1332.56  1336.57
eigval :     1348.13  1366.64  1374.52  1402.03  1404.64  1406.33
eigval :     1421.57  1427.77  1429.00  1430.32  1432.21  1433.29
eigval :     1439.30  1452.15  1454.00  1462.84  1465.13  1472.98
eigval :     1475.72  1479.98  1492.99  1495.59  1502.71  1506.26
eigval :     1515.65  1521.30  1539.16  1551.33  1556.01  1576.96
eigval :     1583.32  1583.66  1584.96  1587.01  1594.48  1594.97
eigval :     1595.65  1597.26  1602.74  1605.00  3020.37  3022.18
eigval :     3024.71  3028.54  3029.69  3033.34  3036.70  3045.32
eigval :     3048.91  3069.31  3071.80  3072.40  3073.94  3076.56
eigval :     3078.03  3078.76  3079.49  3079.70  3082.02  3084.20
eigval :     3085.58  3087.37  3088.32  3088.63  3089.83  3090.98
eigval :     3091.61  3092.88  3093.75  3093.97  3097.47  3097.88
eigval :     3099.06  3099.36  3135.83

   temp. (K)  partition function   enthalpy   heat capacity  entropy
                                   cal/mol     cal/K/mol   cal/K/mol   J/K/mol
 298.15  VIB  0.478E+17            23180.916    150.948    140.998
         ROT  0.670E+08              888.752      2.981     38.793
         INT  0.320E+25            24069.669    153.929    179.791
         TR   0.156E+29             1481.254      4.968     45.224
         TOT                       25550.9228   158.8969   225.0150   941.4628

       T/K    H(0)-H(T)+PV         H(T)/Eh          T*S/Eh         G(T)/Eh
   ------------------------------------------------------------------------
    298.15    0.407180E-01    0.710508E+00    0.106912E+00    0.603596E+00
   ------------------------------------------------------------------------

         :::::::::::::::::::::::::::::::::::::::::::::::::::::
         ::                  THERMODYNAMIC                  ::
         :::::::::::::::::::::::::::::::::::::::::::::::::::::
         :: total free energy        -125.071514036080 Eh   ::
         ::.................................................::
         :: total energy             -125.675110456334 Eh   ::
         :: zero point energy           0.669790320040 Eh   ::
         :: G(RRHO) w/o ZPVE           -0.066193899785 Eh   ::
         :: G(RRHO) contrib.            0.603596420255 Eh   ::
         :::::::::::::::::::::::::::::::::::::::::::::::::::::

           -------------------------------------------------
          | TOTAL ENERGY             -125.675110456334 Eh   |
          | TOTAL ENTHALPY           -124.964602149058 Eh   |
          | TOTAL FREE ENERGY        -125.071514036080 Eh   |
          | GRADIENT NORM               0.000055755945 Eh/α |
          | HOMO-LUMO GAP               2.233277291932 eV   |
           -------------------------------------------------

 * finished run on 2025/09/08 at 23:24:28.596
