   * xtb version 6.7.1 (edcfbbe) compiled by 'albert@albert-system' on 2024-07-22

   ID    Z sym.   atoms
    1    6 C      1-10, 12-36, 38-43, 45-50
    2    7 N      11, 44
    3    5 B      37
    4    1 H      51-85

          program call               : xtb data2507/gas/B-dpa-SpiroAC/B-dpa-SpiroAC.xyz --gfn 2 --ohess vtight --parallel 40 --molden --ceasefiles --namespace data2507/gas/B-dpa-SpiroAC/B-dpa-SpiroAC_gas_S0_preOpt
          :  Hamiltonian                  GFN2-xTB          :
 * total energy  :  -125.5562676 Eh     change       -0.8584067E-08 Eh
 * total energy  :  -125.6062882 Eh     change       -0.5002067E-01 Eh
 * total energy  :  -125.6268665 Eh     change       -0.2057829E-01 Eh
 * total energy  :  -125.6365707 Eh     change       -0.9704145E-02 Eh
 * total energy  :  -125.6430461 Eh     change       -0.6475402E-02 Eh
 * total energy  :  -125.6480995 Eh     change       -0.5053433E-02 Eh
 * total energy  :  -125.6523227 Eh     change       -0.4223174E-02 Eh
 * total energy  :  -125.6557600 Eh     change       -0.3437331E-02 Eh
 * total energy  :  -125.6584401 Eh     change       -0.2680113E-02 Eh
 * total energy  :  -125.6605538 Eh     change       -0.2113664E-02 Eh
 * total energy  :  -125.6751092 Eh     change       -0.1708755E-06 Eh
 * total energy  :  -125.6751093 Eh     change       -0.1480997E-06 Eh
 * total energy  :  -125.6751095 Eh     change       -0.1315989E-06 Eh
 * total energy  :  -125.6751096 Eh     change       -0.1277485E-06 Eh
 * total energy  :  -125.6751097 Eh     change       -0.1396676E-06 Eh
 * total energy  :  -125.6751099 Eh     change       -0.1616934E-06 Eh
 * total energy  :  -125.6751100 Eh     change       -0.1653705E-06 Eh
 * total energy  :  -125.6751102 Eh     change       -0.1503877E-06 Eh
 * total energy  :  -125.6751102 Eh     change       -0.1099806E-08 Eh
   *** GEOMETRY OPTIMIZATION CONVERGED AFTER 122 ITERATIONS ***

 final structure:
================
85
 xtb: 6.7.1 (edcfbbe)
C            1.64588579962357        3.68710972721607       -1.95576735748869
C            2.45898992169483        3.31775001245894       -0.70707317521708
C            3.94363116017767        3.49878457878212       -1.03528851038723
C            2.10466422634748        4.26933056495872        0.44463674019453
C            2.11402226698565        1.89434841700594       -0.29648424855457
C            3.06468405169379        0.88791884264916       -0.23688409631592
C            2.70685220973547       -0.41739999752385        0.10844208147387
C            1.36906505572714       -0.73295241020107        0.40276756189333
C            0.42720409391161        0.31055498787177        0.40248354297985
C            0.79469478787346        1.59670478223105        0.03064690362823
N           -0.89117039264774        0.02096770998159        0.73378447973582
C           -1.70209722390628        0.97905263086831        1.35153401733400
C           -1.15315783093853        1.92911487409821        2.21265702837278
C           -1.96012061777143        2.86374825853846        2.82874840014976
C           -3.32809498093122        2.85425306275826        2.61110101426635
C           -3.88437123778152        1.88323365425702        1.79879724834017
C           -3.08571940444774        0.93592079311524        1.17694720569616
C           -3.66691916643839       -0.13283851860749        0.28441247055062
C           -5.11957565712588       -0.40930056988733        0.58752740906052
C           -5.67171550005097       -0.89187991670091        1.75535651751973
C           -7.04703231337839       -1.07043619360704        1.81512245814052
C           -7.84986971460492       -0.76968188608469        0.72472049075739
C           -7.29988299481284       -0.28403907110732       -0.45072186130767
C           -5.92785278881087       -0.10423353702406       -0.51612568574332
C           -5.07621736723715        0.37868198968149       -1.59147093634706
C           -5.38757327014630        0.80588950251429       -2.87129450351827
C           -4.35873301159764        1.22088862146950       -3.70125668900079
C           -3.04435210739631        1.20686447391289       -3.26164702663120
C           -2.72516728526834        0.77871091699405       -1.97963408854321
C           -3.74547678167602        0.36766830212677       -1.14964919391851
C           -2.80537923910066       -1.37578153487360        0.35825132922457
C           -3.35583036946591       -2.62512642046515        0.14326219938456
C           -2.54872547176345       -3.75223792365802        0.10027036414437
C           -1.18874337611111       -3.62644905080053        0.27752516651804
C           -0.58550497413792       -2.38881874158175        0.52019340250260
C           -1.42222591441325       -1.25264004165545        0.54274779618026
B            0.93821562096772       -2.16334787859659        0.65521176194277
C            2.09711164049943       -3.14765940146950        0.88785754369581
C            1.95264041415964       -4.44428328921941        1.39684242768520
C            3.01938352472685       -5.29844277001063        1.55863224665310
C            4.29292421436110       -4.86828579522512        1.20546431972277
C            4.48707672120787       -3.59104084072780        0.73332744211070
C            3.40769721979906       -2.70757280488200        0.58709563344397
N            3.65714924383091       -1.41782463835641        0.15141411974053
C            4.98595774128495       -1.07996827670415       -0.24171442351938
C            5.38356390628341       -1.27154513540733       -1.55806466289705
C            6.66763633178472       -0.93040607101275       -1.94537626135859
C            7.55371029189617       -0.39771778222417       -1.02402401350302
C            7.15655350535315       -0.20651515133987        0.28933312177488
C            5.87487902837333       -0.54620845091421        0.68354615654433
H            0.57774155507129        3.64200217499027       -1.76215844677987
H            1.87515934881389        3.00100284379739       -2.76867510244363
H            1.89061556099638        4.69746768889931       -2.27699229018766
H            4.12631756973911        4.53156086612632       -1.32572102864231
H            4.56688016922126        3.27803730007846       -0.17158128662148
H            4.24378101350041        2.85917227222580       -1.86232569423431
H            2.66033452381791        3.99765270748878        1.34006679889426
H            1.04379010732116        4.23416249712377        0.67699236350275
H            2.36060718565420        5.29257858328539        0.17759383094448
H            4.09391563359089        1.10260165624912       -0.46503558635704
H            0.03719626583439        2.36345902923006       -0.01954941951140
H           -0.09008463670397        1.92388886052549        2.40062516751366
H           -1.51903833143916        3.59801459596908        3.48646676824665
H           -3.96027007095124        3.59213758538005        3.08097862594279
H           -4.95228130486905        1.86067404943080        1.64030300108535
H           -5.04568287894268       -1.12641440359252        2.60420209193540
H           -7.49743882116801       -1.44825203137228        2.72131402468622
H           -8.91800320526544       -0.91674768578937        0.79396222601077
H           -7.92880112159069       -0.05147748416971       -1.29728349561429
H           -6.41102212703295        0.81610684017975       -3.21601059511657
H           -4.58250539929896        1.55852364757383       -4.70288955727383
H           -2.25580613658703        1.53278603271808       -3.92423018880788
H           -1.69621279110292        0.76922638984227       -1.65328600819946
H           -4.41917293183701       -2.71783615453573       -0.02161245441065
H           -2.99021524301773       -4.71965274210823       -0.08914333838179
H           -0.56199832097122       -4.50166981200626        0.20175275520175
H            0.96611404550042       -4.77066061795209        1.68979432183213
H            2.87327669449477       -6.29277883750156        1.95431717563266
H            5.13972897085118       -5.53053510999499        1.31454803359684
H            5.48757159154459       -3.26670072155408        0.48789357243496
H            4.68267032515263       -1.68673429611973       -2.26703681324668
H            6.97637788993122       -1.08003297430037       -2.96923964609381
H            8.55452973657114       -0.13133682946778       -1.32905438148301
H            7.84685866952563        0.20839432119435        1.00867022761201
H            5.55238647731527       -0.40148584538961        1.70415848135188

          :  Hamiltonian                  GFN2-xTB          :
         :: gradient norm              0.000023835628 Eh/a0 ::
         :: HOMO-LUMO gap              2.232649480211 eV    ::
         :: SCC energy              -128.004069256791 Eh    ::
         :: -> dispersion             -0.130321343322 Eh    ::
         :: repulsion energy           2.328959057762 Eh    ::

    * Orbital Energies and Occupations

         #    Occupation            Energy/Eh            Energy/eV
      -------------------------------------------------------------
         1        2.0000           -0.6680721             -18.1792
       ...           ...                  ...                  ...
       106        2.0000           -0.4042651             -11.0006
       107        2.0000           -0.4014834             -10.9249
       108        2.0000           -0.3982073             -10.8358
       109        2.0000           -0.3936145             -10.7108
       110        2.0000           -0.3930636             -10.6958
       111        2.0000           -0.3917779             -10.6608
       112        2.0000           -0.3874071             -10.5419
       113        2.0000           -0.3847902             -10.4707
       114        2.0000           -0.3782458             -10.2926
       115        2.0000           -0.3754940             -10.2177
       116        2.0000           -0.3740096             -10.1773
       117        2.0000           -0.3581128              -9.7447
       118        2.0000           -0.3391189              -9.2279 (HOMO)
       119                         -0.2570706              -6.9952 (LUMO)
       120                         -0.2479984              -6.7484
       121                         -0.2375745              -6.4647
       122                         -0.2369201              -6.4469
       123                         -0.2245543              -6.1104
       124                         -0.2227606              -6.0616
       125                         -0.2203271              -5.9954
       126                         -0.2164247              -5.8892
       127                         -0.2133480              -5.8055
       128                         -0.2118525              -5.7648
       129                         -0.2075841              -5.6487
       ...                                ...                  ...
       235                          0.7339140              19.9708
      -------------------------------------------------------------
                  HL-Gap            0.0820483 Eh            2.2326 eV

     #   Z          covCN         q      C6AA      α(0)
     1   6 C        3.762    -0.104    22.533     6.767
     2   6 C        3.904     0.026    20.088     6.371
     3   6 C        3.761    -0.105    22.558     6.771
     4   6 C        3.762    -0.104    22.532     6.767
     5   6 C        2.973     0.009    27.808     8.650
     6   6 C        2.923    -0.079    29.975     8.978
     7   6 C        2.926     0.058    26.690     8.472
     8   6 C        2.901    -0.109    30.756     9.093
     9   6 C        2.924     0.057    26.719     8.477
    10   6 C        2.925    -0.070    29.757     8.946
    11   7 N        2.757    -0.048    22.166     6.992
    12   6 C        2.935     0.058    26.707     8.475
    13   6 C        2.923    -0.049    29.225     8.865
    14   6 C        2.919    -0.034    28.846     8.807
    15   6 C        2.919    -0.039    28.975     8.827
    16   6 C        2.923    -0.036    28.901     8.816
    17   6 C        2.987    -0.003    28.094     8.694
    18   6 C        3.951     0.012    20.302     6.402
    19   6 C        3.055     0.003    27.911     8.664
    20   6 C        2.914    -0.031    28.785     8.798
    21   6 C        2.922    -0.033    28.812     8.802
    22   6 C        2.921    -0.033    28.822     8.804
    23   6 C        2.914    -0.034    28.858     8.809
    24   6 C        3.035     0.001    27.969     8.674
    25   6 C        3.036     0.001    27.978     8.676
    26   6 C        2.915    -0.034    28.846     8.807
    27   6 C        2.921    -0.033    28.827     8.805
    28   6 C        2.923    -0.033    28.814     8.803
    29   6 C        2.914    -0.035    28.866     8.810
    30   6 C        3.056     0.004    27.891     8.661
    31   6 C        2.981    -0.008    28.209     8.712
    32   6 C        2.924    -0.036    28.893     8.815
    33   6 C        2.914    -0.042    29.037     8.836
    34   6 C        2.923    -0.036    28.899     8.816
    35   6 C        2.888    -0.083    30.080     8.992
    36   6 C        2.939     0.052    26.838     8.496
    37   5 B        2.726     0.194    18.467     7.200
    38   6 C        2.888    -0.084    30.090     8.993
    39   6 C        2.923    -0.032    28.806     8.801
    40   6 C        2.914    -0.043    29.063     8.840
    41   6 C        2.920    -0.029    28.717     8.788
    42   6 C        2.920    -0.056    29.397     8.891
    43   6 C        2.925     0.059    26.676     8.470
    44   7 N        2.755    -0.054    22.288     7.012
    45   6 C        2.933     0.071    26.414     8.429
    46   6 C        2.922    -0.037    28.917     8.818
    47   6 C        2.920    -0.027    28.685     8.783
    48   6 C        2.920    -0.030    28.759     8.794
    49   6 C        2.920    -0.028    28.697     8.785
    50   6 C        2.921    -0.036    28.908     8.817
    51   1 H        0.925     0.037     2.488     2.467
    52   1 H        0.925     0.033     2.549     2.497
    53   1 H        0.925     0.036     2.506     2.476
    54   1 H        0.925     0.035     2.514     2.480
    55   1 H        0.925     0.034     2.535     2.490
    56   1 H        0.925     0.034     2.535     2.490
    57   1 H        0.925     0.032     2.557     2.501
    58   1 H        0.925     0.037     2.483     2.464
    59   1 H        0.925     0.036     2.509     2.477
    60   1 H        0.926     0.027     2.628     2.535
    61   1 H        0.926     0.026     2.645     2.543
    62   1 H        0.926     0.038     2.479     2.462
    63   1 H        0.926     0.031     2.568     2.506
    64   1 H        0.926     0.030     2.582     2.513
    65   1 H        0.926     0.032     2.553     2.499
    66   1 H        0.926     0.028     2.617     2.530
    67   1 H        0.926     0.029     2.599     2.521
    68   1 H        0.926     0.029     2.607     2.525
    69   1 H        0.926     0.029     2.594     2.519
    70   1 H        0.926     0.030     2.582     2.513
    71   1 H        0.926     0.029     2.604     2.523
    72   1 H        0.926     0.029     2.601     2.522
    73   1 H        0.926     0.031     2.576     2.510
    74   1 H        0.926     0.026     2.640     2.541
    75   1 H        0.926     0.023     2.681     2.561
    76   1 H        0.926     0.032     2.555     2.499
    77   1 H        0.926     0.031     2.568     2.506
    78   1 H        0.926     0.022     2.710     2.574
    79   1 H        0.926     0.023     2.686     2.563
    80   1 H        0.926     0.019     2.754     2.595
    81   1 H        0.926     0.042     2.428     2.437
    82   1 H        0.926     0.038     2.470     2.458
    83   1 H        0.926     0.037     2.484     2.465
    84   1 H        0.926     0.038     2.473     2.459
    85   1 H        0.926     0.042     2.421     2.433

molecular dipole:
                 x           y           z       tot (Debye)
 q only:        0.892       0.509      -0.156
   full:        0.931       0.588      -0.214       2.850

 projected vibrational frequencies (cm⁻¹)
eigval :       -0.00    -0.00    -0.00     0.00     0.00     0.00
eigval :       13.87    18.92    22.43    27.41    35.61    39.73
eigval :       46.98    50.94    55.85    72.73    76.21    83.29
eigval :       94.13   103.61   121.43   132.57   136.79   145.93
eigval :      153.32   178.44   189.19   197.20   204.84   215.95
eigval :      219.44   225.59   233.35   241.67   244.30   262.28
eigval :      267.20   283.80   285.32   297.38   308.94   324.73
eigval :      339.17   340.70   363.54   371.87   373.88   387.93
eigval :      392.55   405.16   413.04   417.85   419.32   435.95
eigval :      440.34   445.83   447.89   463.58   480.00   483.05
eigval :      489.24   500.82   502.93   506.03   512.21   520.90
eigval :      539.62   551.93   565.06   576.18   586.15   589.64
eigval :      593.15   596.41   604.26   615.50   618.39   633.73
eigval :      639.94   644.55   658.94   676.13   680.52   685.79
eigval :      695.77   703.68   710.11   716.55   728.89   747.82
eigval :      756.50   769.53   771.02   771.72   782.55   785.51
eigval :      786.29   799.02   824.59   867.33   869.60   872.33
eigval :      877.36   877.99   880.21   887.69   890.89   895.98
eigval :      901.25   901.80   904.84   909.14   910.82   911.99
eigval :      916.11   916.83   922.12   925.32   927.09   928.50
eigval :      929.59   930.23   931.31   933.66   938.58   960.44
eigval :      962.84   963.60   980.68   989.86  1005.66  1020.20
eigval :     1035.71  1035.89  1074.02  1075.81  1078.57  1083.58
eigval :     1101.60  1102.66  1108.24  1113.10  1125.04  1132.18
eigval :     1144.98  1148.95  1155.38  1175.58  1179.37  1180.64
eigval :     1182.95  1184.25  1185.95  1187.24  1189.15  1201.23
eigval :     1205.27  1215.44  1221.13  1227.77  1234.10  1237.46
eigval :     1242.91  1251.04  1254.52  1262.32  1266.25  1270.19
eigval :     1273.51  1281.72  1286.41  1292.51  1301.94  1305.09
eigval :     1309.27  1313.79  1326.38  1326.90  1332.59  1336.62
eigval :     1348.16  1366.60  1374.52  1402.04  1404.65  1406.33
eigval :     1421.59  1427.77  1429.03  1430.33  1432.10  1433.28
eigval :     1439.35  1452.04  1453.93  1462.78  1465.16  1472.96
eigval :     1475.78  1480.02  1492.99  1495.60  1502.69  1506.28
eigval :     1515.66  1521.29  1539.17  1551.36  1556.04  1576.97
eigval :     1583.30  1583.69  1584.97  1587.01  1594.46  1594.99
eigval :     1595.64  1597.26  1602.75  1605.01  3020.35  3022.13
eigval :     3024.69  3028.52  3029.68  3033.35  3036.71  3045.34
eigval :     3048.96  3069.30  3071.81  3072.41  3073.93  3076.58
eigval :     3078.05  3078.76  3079.49  3079.70  3082.03  3084.21
eigval :     3085.59  3087.36  3088.29  3088.62  3089.83  3090.91
eigval :     3091.62  3092.92  3093.76  3093.99  3097.35  3097.87
eigval :     3099.09  3099.36  3135.95

   temp. (K)  partition function   enthalpy   heat capacity  entropy
                                   cal/mol     cal/K/mol   cal/K/mol   J/K/mol
 298.15  VIB  0.477E+17            23181.092    150.947    140.999
         ROT  0.670E+08              888.752      2.981     38.793
         INT  0.320E+25            24069.844    153.928    179.792
         TR   0.156E+29             1481.254      4.968     45.224
         TOT                       25551.0981   158.8965   225.0159   941.4664

       T/K    H(0)-H(T)+PV         H(T)/Eh          T*S/Eh         G(T)/Eh
   ------------------------------------------------------------------------
    298.15    0.407183E-01    0.710508E+00    0.106912E+00    0.603596E+00
   ------------------------------------------------------------------------

         :::::::::::::::::::::::::::::::::::::::::::::::::::::
         ::                  THERMODYNAMIC                  ::
         :::::::::::::::::::::::::::::::::::::::::::::::::::::
         :: total free energy        -125.071514550952 Eh   ::
         ::.................................................::
         :: total energy             -125.675110199029 Eh   ::
         :: zero point energy           0.669789682304 Eh   ::
         :: G(RRHO) w/o ZPVE           -0.066194034226 Eh   ::
         :: G(RRHO) contrib.            0.603595648078 Eh   ::
         :::::::::::::::::::::::::::::::::::::::::::::::::::::

           -------------------------------------------------
          | TOTAL ENERGY             -125.675110199029 Eh   |
          | TOTAL ENTHALPY           -124.964602250134 Eh   |
          | TOTAL FREE ENERGY        -125.071514550952 Eh   |
          | GRADIENT NORM               0.000023835327 Eh/α |
          | HOMO-LUMO GAP               2.232649077916 eV   |
           -------------------------------------------------

 * finished run on 2025/09/08 at 23:19:59.905
