   * xtb version 6.7.1 (edcfbbe) compiled by 'albert@albert-system' on 2024-07-22

   ID    Z sym.   atoms
    1    6 C      1-10, 12-36, 38-43, 45-50
    2    7 N      11, 44
    3    5 B      37
    4    1 H      51-85

          program call               : xtb data2507/gas/B-dpa-SpiroAC/B-dpa-SpiroAC_gas_S0_finalOpt.xtbopt.xyz --gfn 2 --spinpol --tblite --uhf 2 --ohess vtight --parallel 40 --molden --ceasefiles --namespace data2507/gas/B-dpa-SpiroAC/B-dpa-SpiroAC_gas_T1_preOpt
 * total energy  :  -125.5882843 Eh     change       -0.2477904E-07 Eh
 * total energy  :  -125.5894083 Eh     change       -0.1124011E-02 Eh
 * total energy  :  -125.5897418 Eh     change       -0.3335228E-03 Eh
 * total energy  :  -125.5897922 Eh     change       -0.5036740E-04 Eh
 * total energy  :  -125.5898396 Eh     change       -0.4733975E-04 Eh
 * total energy  :  -125.5898680 Eh     change       -0.2847443E-04 Eh
 * total energy  :  -125.5898993 Eh     change       -0.3128081E-04 Eh
 * total energy  :  -125.5899246 Eh     change       -0.2533608E-04 Eh
 * total energy  :  -125.5899484 Eh     change       -0.2378103E-04 Eh
 * total energy  :  -125.5899623 Eh     change       -0.1389658E-04 Eh
 * total energy  :  -125.5902246 Eh     change       -0.2227047E-05 Eh
 * total energy  :  -125.5902266 Eh     change       -0.2089134E-05 Eh
 * total energy  :  -125.5902291 Eh     change       -0.2427594E-05 Eh
 * total energy  :  -125.5902313 Eh     change       -0.2247271E-05 Eh
 * total energy  :  -125.5902328 Eh     change       -0.1502929E-05 Eh
 * total energy  :  -125.5902337 Eh     change       -0.8885007E-06 Eh
 * total energy  :  -125.5902344 Eh     change       -0.7114350E-06 Eh
 * total energy  :  -125.5902344 Eh     change        0.5229244E-07 Eh
 * total energy  :  -125.5902344 Eh     change       -0.6022873E-07 Eh
   *** GEOMETRY OPTIMIZATION CONVERGED AFTER 45 ITERATIONS ***

 final structure:
================
85
 xtb: 6.7.1 (edcfbbe)
C            1.43474263205464        4.44776553441909       -1.16691072418487
C            2.26904045692802        3.91827381823379        0.00858659714502
C            3.73004951845799        4.31096052993974       -0.22670468469560
C            1.79989804672758        4.57766884947327        1.31431591186613
C            2.07767913215294        2.41498796828205        0.11864826080830
C            3.13359519656337        1.50608140947410        0.00904323421712
C            2.91956703418309        0.12614557846487        0.08528034174518
C            1.62278367531697       -0.39510350022253        0.24543608766252
C            0.58428269437484        0.53142686080307        0.43803704978509
C            0.80218865362767        1.90663004474470        0.33865240405369
N           -0.70562475687894        0.04851966079689        0.66227838745994
C           -1.58950099881791        0.76959033816310        1.44245335026565
C           -1.12856395402138        1.59230632819096        2.48195701137463
C           -2.01665933995146        2.31747754164885        3.24238860536778
C           -3.38184693980669        2.23357111296505        2.99522340181671
C           -3.84868194654545        1.39056755764970        1.99895363747104
C           -2.97287415759548        0.64566398719060        1.23031640508857
C           -3.45128129640845       -0.24336976035875        0.11396432547010
C           -4.86499854790719       -0.72754309622582        0.33605926233952
C           -5.34236588308055       -1.52213451879899        1.35579769892184
C           -6.69277567623089       -1.84604206884652        1.36743912224766
C           -7.54322783058626       -1.37812036572634        0.37622096107978
C           -7.06816218786164       -0.57731793986964       -0.64942323733455
C           -5.72096130406236       -0.25163557873752       -0.66761236314214
C           -4.94326073533650        0.55165402695405       -1.59518801146331
C           -5.31659761616590        1.23264942345403       -2.74271670808921
C           -4.34820243757636        1.92938772391819       -3.44665246513344
C           -3.03010589728353        1.94293872488926       -3.01749556183734
C           -2.64791180641447        1.25968355606616       -1.86966772106227
C           -3.60898033854527        0.57101522251528       -1.16381395464217
C           -2.47250140586725       -1.37189763123098       -0.11327060657773
C           -2.90656556399291       -2.57408336550744       -0.65597347792995
C           -1.98426598470208       -3.56871592228693       -0.95463390494694
C           -0.64230708261419       -3.37175606148736       -0.71461104104998
C           -0.14715852950413       -2.18835660669784       -0.14529538923690
C           -1.11073236427013       -1.17354596679063        0.12693020291290
B            1.33563947496853       -1.87593709431727        0.11272466403681
C            2.58575978334556       -2.76499241818529        0.11124742221308
C            2.58159043586481       -4.16430904484781        0.22551580862057
C            3.73860836729232       -4.91328828277973        0.26335092719946
C            4.97377996352417       -4.28048112673457        0.20352458741467
C            5.03121094173373       -2.90103535499953        0.11432012299995
C            3.86327228346394       -2.13665827225996        0.06007233044081
N            3.98098011140523       -0.75268816836377       -0.02339695796508
C            5.28187182160013       -0.20055888605579       -0.18288673825217
C            5.89710725449220       -0.23799578999858       -1.42936486851577
C            7.15436885188844        0.31374265648050       -1.59323696777230
C            7.80173386463970        0.90505393592338       -0.52017127692604
C            7.18905109041279        0.94204609878459        0.72214194104229
C            5.93230472132473        0.39155773458765        0.89453331169182
H            0.37461457758101        4.26172160573767       -1.01718127396420
H            1.73962180212806        3.96291848059972       -2.09211693189489
H            1.57824268372745        5.52073388177122       -1.27566167972373
H            3.80768896851595        5.39447998596295       -0.28978830210565
H            4.36371563688688        3.97658812172275        0.59184977995654
H            4.10366198774855        3.89313648870452       -1.15895051858444
H            1.93924633814207        5.65539546015883        1.26199385925678
H            2.37570943923748        4.19657847735076        2.15550112891305
H            0.74796470382602        4.38014323313096        1.50308664100200
H            4.12983273734476        1.87073978161996       -0.17145804685509
H           -0.04505299272619        2.57378772746794        0.39499655630724
H           -0.07070834405147        1.62883940992538        2.69509934177288
H           -1.64875465624109        2.94606250250101        4.03962183787576
H           -4.07786939967555        2.81064951440238        3.58382354402729
H           -4.90984674933143        1.31379985839965        1.81423845734422
H           -4.67914333267508       -1.88675613448261        2.12681138882850
H           -7.08519345366812       -2.46991963728302        2.15696345752876
H           -8.59027483357919       -1.64308266219317        0.40556622245943
H           -7.73405469953665       -0.21530742938109       -1.41869904083180
H           -6.34177339492499        1.22022650803166       -3.08197382276381
H           -4.62180597950439        2.46730661873770       -4.34282007411204
H           -2.28897804394590        2.48948619100763       -3.58219073972259
H           -1.61573768875219        1.27063053703663       -1.55190483979081
H           -3.95533587043923       -2.72314464412477       -0.86039104068836
H           -2.32843131791892       -4.49878909135522       -1.38431605987750
H            0.05936070969950       -4.14425789699282       -0.98670890771879
H            1.63047865706148       -4.66583303423368        0.31357671881351
H            3.68805089260757       -5.98938582052312        0.35096024406675
H            5.88818270387637       -4.85334823778925        0.23904541263485
H            5.99814595801626       -2.42063488112312        0.09250867060207
H            5.38292518247993       -0.70242044095324       -2.25767814742520
H            7.62921566882341        0.28463001197487       -2.56253398427792
H            8.78282973150746        1.33560138371046       -0.65155876965397
H            7.69302082227544        1.39920461448588        1.56062760355880
H            5.44566642704115        0.41352159476491        1.85858299469494

 projected vibrational frequencies (cm⁻¹)
eigval :       -0.00    -0.00    -0.00     0.00     0.00     0.00
eigval :       12.76    18.91    20.40    30.83    34.20    39.25
eigval :       47.81    51.13    57.16    71.79    74.76    80.98
eigval :       91.87   103.60   116.03   132.51   135.00   143.09
eigval :      151.98   177.97   189.12   190.24   203.59   213.59
eigval :      218.62   226.15   231.45   240.31   244.98   259.99
eigval :      265.97   282.45   284.30   291.36   307.20   323.75
eigval :      338.16   340.12   361.70   368.85   373.53   384.43
eigval :      387.70   398.54   412.34   414.84   418.76   430.60
eigval :      437.89   439.15   446.26   459.23   470.32   475.11
eigval :      479.50   492.78   497.34   501.93   506.33   515.77
eigval :      535.71   544.54   549.63   567.60   578.39   586.51
eigval :      588.59   590.49   596.97   601.02   611.57   615.57
eigval :      635.29   638.80   654.55   661.93   671.72   674.65
eigval :      687.45   695.95   697.81   706.66   725.02   743.39
eigval :      752.43   755.18   764.57   769.03   771.09   778.10
eigval :      780.61   783.91   804.00   850.17   860.74   863.79
eigval :      865.39   874.41   875.51   877.32   881.13   883.38
eigval :      884.95   890.48   897.02   897.94   902.55   907.07
eigval :      907.54   909.76   909.93   914.79   916.69   920.40
eigval :      924.40   925.94   928.28   929.55   930.36   958.15
eigval :      961.62   963.04   975.61   985.84  1002.10  1015.81
eigval :     1034.82  1035.05  1067.05  1074.90  1077.52  1082.12
eigval :     1093.12  1096.14  1100.74  1114.23  1118.72  1123.74
eigval :     1140.57  1144.47  1148.06  1172.08  1174.63  1178.32
eigval :     1179.36  1179.58  1180.07  1184.76  1186.49  1194.66
eigval :     1198.86  1206.47  1209.45  1225.20  1227.86  1229.48
eigval :     1234.48  1246.53  1247.40  1254.36  1259.39  1262.03
eigval :     1263.93  1272.05  1273.81  1276.74  1283.48  1284.25
eigval :     1295.84  1311.22  1317.07  1322.45  1327.34  1333.04
eigval :     1336.19  1350.33  1364.57  1366.82  1394.34  1400.28
eigval :     1405.98  1406.42  1409.55  1414.32  1422.92  1427.15
eigval :     1428.58  1429.23  1432.16  1452.39  1453.16  1462.06
eigval :     1466.65  1468.00  1478.28  1492.59  1493.81  1495.11
eigval :     1503.63  1505.75  1508.30  1515.29  1516.18  1518.21
eigval :     1521.12  1532.93  1550.17  1553.99  1565.57  1575.46
eigval :     1579.23  1583.60  1591.62  1600.75  3021.63  3022.85
eigval :     3024.46  3028.74  3030.08  3032.97  3037.60  3043.40
eigval :     3046.66  3066.84  3068.73  3071.79  3072.50  3076.83
eigval :     3078.39  3078.78  3079.08  3080.41  3080.89  3082.50
eigval :     3083.98  3086.46  3086.83  3089.80  3090.31  3091.17
eigval :     3091.55  3092.27  3094.01  3095.82  3097.31  3100.11
eigval :     3100.63  3104.07  3132.48

   temp. (K)  partition function   enthalpy   heat capacity  entropy
                                   cal/mol     cal/K/mol   cal/K/mol   J/K/mol
 298.15  VIB  0.720E+17            23414.716    152.522    142.510
         ROT  0.672E+08              888.752      2.981     38.797
         INT  0.484E+25            24303.468    155.503    181.307
         TR   0.156E+29             1481.254      4.968     45.224
         TOT                       25784.7221   160.4715   226.5310   947.8058

       T/K    H(0)-H(T)+PV         H(T)/Eh          T*S/Eh         G(T)/Eh
   ------------------------------------------------------------------------
    298.15    0.410906E-01    0.706783E+00    0.107632E+00    0.599151E+00
   ------------------------------------------------------------------------

         :::::::::::::::::::::::::::::::::::::::::::::::::::::
         ::                  THERMODYNAMIC                  ::
         :::::::::::::::::::::::::::::::::::::::::::::::::::::
         :: total free energy        -124.991083778165 Eh   ::
         ::.................................................::
         :: total energy             -125.590234436284 Eh   ::
         :: zero point energy           0.665692287970 Eh   ::
         :: G(RRHO) w/o ZPVE           -0.066541629851 Eh   ::
         :: G(RRHO) contrib.            0.599150658119 Eh   ::
         :::::::::::::::::::::::::::::::::::::::::::::::::::::

           -------------------------------------------------
          | TOTAL ENERGY             -125.590234436284 Eh   |
          | TOTAL ENTHALPY           -124.883451578095 Eh   |
          | TOTAL FREE ENERGY        -124.991083778165 Eh   |
          | GRADIENT NORM               0.000094361269 Eh/α |
           -------------------------------------------------

 * finished run on 2025/09/08 at 23:24:39.446
