   * xtb version 6.7.1 (edcfbbe) compiled by 'albert@albert-system' on 2024-07-22

   ID    Z sym.   atoms
    1    7 N      1, 21, 29, 35, 50
    2    6 C      2-20, 22-28, 30-34, 36-49, 51-58
    3    1 H      59-91

          program call               : xtb data2507/toluene/TPM2CN/TPM2CN_toluene_S0_finalOpt.xtbopt.xyz --gfn 2 --uhf 2 --gbsa toluene --ohess vtight --parallel 40 --molden --ceasefiles --namespace data2507/toluene/TPM2CN/TPM2CN_toluene_T1_preOpt
      * Solvation model:               GBSA
        Solvent                        toluene
        Solvent mass                       9.2140E+01 g/mol
          :  Hamiltonian                  GFN2-xTB          :
 * total energy  :  -144.9027944 Eh     change       -0.5248438E-08 Eh
 * total energy  :  -144.9064959 Eh     change       -0.3701551E-02 Eh
 * total energy  :  -144.9079491 Eh     change       -0.1453193E-02 Eh
 * total energy  :  -144.9082160 Eh     change       -0.2669543E-03 Eh
 * total energy  :  -144.9083868 Eh     change       -0.1707414E-03 Eh
 * total energy  :  -144.9086882 Eh     change       -0.3013742E-03 Eh
 * total energy  :  -144.9088566 Eh     change       -0.1684247E-03 Eh
 * total energy  :  -144.9090247 Eh     change       -0.1681215E-03 Eh
 * total energy  :  -144.9091774 Eh     change       -0.1526461E-03 Eh
 * total energy  :  -144.9093213 Eh     change       -0.1439068E-03 Eh
 * total energy  :  -144.9101063 Eh     change       -0.5633241E-06 Eh
 * total energy  :  -144.9101068 Eh     change       -0.5140867E-06 Eh
 * total energy  :  -144.9101073 Eh     change       -0.4486758E-06 Eh
 * total energy  :  -144.9101077 Eh     change       -0.4690507E-06 Eh
 * total energy  :  -144.9101082 Eh     change       -0.4573359E-06 Eh
 * total energy  :  -144.9101086 Eh     change       -0.3988941E-06 Eh
 * total energy  :  -144.9101090 Eh     change       -0.3672526E-06 Eh
 * total energy  :  -144.9101093 Eh     change       -0.3534334E-06 Eh
 * total energy  :  -144.9101093 Eh     change       -0.1097078E-10 Eh
   *** GEOMETRY OPTIMIZATION CONVERGED AFTER 94 ITERATIONS ***

 final structure:
================
91
 xtb: 6.7.1 (edcfbbe)
N           -9.63411054882754       -6.85218322679477       -0.11192112957345
C           -8.67387986564826       -6.21898327208633       -0.07142246934140
C           -7.49967794952430       -5.44789713097440       -0.02242423587351
C           -7.48873703332769       -4.21832921188394        0.64833862447521
C           -6.33714249213750       -3.46643283373092        0.68664988220286
C           -5.16031587111967       -3.91092700700014        0.06989850738998
C           -3.93901061213553       -3.10980279802033        0.11064374755048
C           -2.68496049926827       -3.72306458828050        0.21979588826246
C           -1.54498510070726       -2.95975499688981        0.23826596698859
C           -1.61692237968166       -1.56250262308512        0.14419766323479
C           -2.87090488744260       -0.90989942725224        0.06168564114140
C           -4.00540299171799       -1.71517025013689        0.03666248586197
C           -2.93526526532018        0.55205751108091        0.00598027509338
C           -4.14249402852807        1.22003973342143        0.05111047303411
C           -4.26120495641132        2.62350099659288        0.02312778315853
C           -5.55031608429601        3.26770376823534        0.07027803185783
C           -5.69941364098034        4.57347030199739        0.58471728435022
C           -6.92149406977543        5.19053179807012        0.63780002298840
C           -8.07065212909621        4.53282397881708        0.16422431665384
C           -9.31915472217332        5.16127806407603        0.21047806125966
N          -10.34778044907059        5.68287725355923        0.24878391433506
C           -7.94120651354664        3.23370658240035       -0.35767356496654
C           -6.71554162571879        2.62250370585436       -0.39679222786304
C           -3.06210058926500        3.36906472866468       -0.04416752705734
C           -1.85102440375655        2.75040949632661       -0.09471367625488
C           -1.72869305442532        1.33491735115011       -0.07164990746164
C           -0.51252162681313        0.65265390347773       -0.07667753364681
C           -0.44584016134811       -0.76749770435251        0.09568235435792
N            0.82340113525394       -1.17088941800862        0.16811064248640
C            1.58348356195404       -0.09004301389930        0.01605552446494
C            3.00212893736410       -0.17521985177655       -0.01602195633839
C            3.85977144607029        0.80479941519578       -0.55912431308750
C            5.21893243342223        0.63653265288799       -0.54633296627007
C            5.80474066127566       -0.51939816317836        0.00012393089221
N            7.17628514401018       -0.67082150967364        0.02691272265443
C            8.01417483553150        0.44899138326221        0.13145696196505
C            9.20654155077281        0.50322309595464       -0.59200960101317
C           10.03300584694996        1.60468415158829       -0.48173643752457
C            9.68567445234952        2.66228312535195        0.34503744741818
C            8.50329258666967        2.61064896482332        1.06751319891299
C            7.67044750751030        1.51325139504816        0.96710135732318
C            7.75721239792644       -1.94548813086501       -0.04983874900046
C            8.87450700977843       -2.25376141494253        0.72756488613750
C            9.45050883560448       -3.50655159789324        0.64418360785673
C            8.92436030860647       -4.46466694823129       -0.20898661351451
C            7.81543910596100       -4.16124009719374       -0.98408200481408
C            7.23271093168074       -2.91087848305703       -0.91086548034699
C            4.95360340677117       -1.51987036903370        0.50910488556428
C            3.59765545564461       -1.35206636676327        0.49716857171431
N            0.80141093526171        1.06037973832778       -0.13766357679042
C            1.29003564102854        2.37851145996905       -0.24728325615148
C            1.96593567595490        2.95509828866156        0.82405198051340
C            2.46198203596707        4.24116049646059        0.70831282223417
C            2.28616843130066        4.95428100679287       -0.46690119469173
C            1.61135162381862        4.37960782986748       -1.53306639663456
C            1.11334242075550        3.09341690426362       -1.42987637034940
C           -5.18321655363779       -5.14582002259677       -0.59143707395941
C           -6.33007912769154       -5.90350319761777       -0.64453558683884
H           -8.38925350492767       -3.87151680716436        1.13498758682728
H           -6.33587342300829       -2.53131497974464        1.22679656711169
H           -2.61876468674536       -4.79661378914476        0.31205553715554
H           -0.56770922801208       -3.41047978449384        0.31734641900782
H           -4.98066698703266       -1.27135231650373       -0.07909046704555
H           -5.05200762678327        0.65342903405661        0.15938978795683
H           -4.83894781339936        5.08992544765896        0.98217687577430
H           -7.01824618271867        6.18557783807673        1.04951601699109
H           -8.82010674579390        2.72844046836421       -0.73366175805963
H           -6.64131339976852        1.63808933942078       -0.83378097126422
H           -3.10391817231342        4.44666817386962       -0.08694507167307
H           -0.95641795070386        3.34920149479090       -0.14286421092410
H            3.44996321596577        1.68162174700201       -1.03172744454653
H            5.85291316876124        1.38853058331555       -0.99154397761260
H            9.47086382061265       -0.31497221080493       -1.24519638102731
H           10.95033390693684        1.64080383790863       -1.04996838203069
H           10.33363721753079        3.52152742311288        0.42726239889415
H            8.23218635772477        3.42645764286211        1.72072750269439
H            6.75838586194202        1.46376645228628        1.54327362465915
H            9.27633598673092       -1.51112301797380        1.40061767767623
H           10.31094732041372       -3.73876392222735        1.25363682358435
H            9.37692175310237       -5.44255439566182       -0.27063349743872
H            7.40656111413715       -4.90022849489622       -1.65672059541590
H            6.37969253659520       -2.66791658326500       -1.52698237056234
H            5.38319827142768       -2.41198604967586        0.93892655079335
H            2.94524228502324       -2.10797257477035        0.90372808634868
H            2.09585161426369        2.39050488508446        1.73563160962950
H            2.98290133234189        4.68893323064142        1.54100799100851
H            2.67358411959039        5.95799743222822       -0.55288559039624
H            1.47321665360825        4.93234479673764       -2.45015777615225
H            0.58600665822452        2.63516851459657       -2.25414292964354
H           -4.29388182869201       -5.49677401909641       -1.09297314592166
H           -6.34175297155735       -6.84938549366217       -1.16687914685806

          :  Hamiltonian                  GFN2-xTB          :
         :: gradient norm              0.000153763217 Eh/a0 ::
         :: HOMO-LUMO gap              0.185762899723 eV    ::
         :: SCC energy              -147.687302710530 Eh    ::
         :: -> dispersion             -0.129631957414 Eh    ::
         :: -> Gsolv                  -0.076454373808 Eh    ::
         :: repulsion energy           2.777193393350 Eh    ::

    * Orbital Energies and Occupations

         #    Occupation            Energy/Eh            Energy/eV
      -------------------------------------------------------------
         1        2.0000           -0.6950372             -18.9129
       ...           ...                  ...                  ...
       124        2.0000           -0.4186192             -11.3912
       125        2.0000           -0.4172187             -11.3531
       126        2.0000           -0.4160200             -11.3205
       127        2.0000           -0.4121982             -11.2165
       128        2.0000           -0.4111200             -11.1871
       129        2.0000           -0.4088124             -11.1244
       130        2.0000           -0.4025981             -10.9553
       131        2.0000           -0.3946743             -10.7396
       132        2.0000           -0.3889997             -10.5852
       133        2.0000           -0.3862665             -10.5108
       134        1.9998           -0.3757392             -10.2244
       135        1.0002           -0.3591138              -9.7720
       136        0.9732           -0.2847237              -7.7477 (HOMO)
       137        0.0268           -0.2778968              -7.5620 (LUMO)
       138                         -0.2657758              -7.2321
       139                         -0.2503871              -6.8134
       140                         -0.2478648              -6.7447
       141                         -0.2465797              -6.7098
       142                         -0.2433932              -6.6231
       143                         -0.2416433              -6.5754
       144                         -0.2410241              -6.5586
       145                         -0.2360791              -6.4240
       146                         -0.2353642              -6.4046
       147                         -0.2343556              -6.3771
       ...                                ...                  ...
       265                          1.1654100              31.7124
      -------------------------------------------------------------
                  HL-Gap            0.0068269 Eh            0.1858 eV

     #   Z          covCN         q      C6AA      α(0)
     1   7 N        0.911    -0.297    27.636     7.603
     2   6 C        1.912     0.113    28.302     8.592
     3   6 C        2.972     0.006    27.885     8.662
     4   6 C        2.922    -0.022    28.566     8.765
     5   6 C        2.922    -0.032    28.801     8.801
     6   6 C        2.975     0.015    27.675     8.629
     7   6 C        2.973     0.009    27.815     8.651
     8   6 C        2.920    -0.034    28.853     8.809
     9   6 C        2.919    -0.031    28.782     8.798
    10   6 C        2.983    -0.005    28.137     8.701
    11   6 C        2.975     0.000    28.019     8.683
    12   6 C        2.927    -0.042    29.048     8.839
    13   6 C        2.973    -0.003    28.084     8.693
    14   6 C        2.924    -0.042    29.050     8.839
    15   6 C        2.969     0.002    27.971     8.675
    16   6 C        2.971     0.005    27.905     8.665
    17   6 C        2.921    -0.037    28.919     8.819
    18   6 C        2.920    -0.027    28.672     8.781
    19   6 C        2.970    -0.005    28.136     8.701
    20   6 C        1.911     0.108    28.429     8.611
    21   7 N        0.911    -0.321    28.256     7.688
    22   6 C        2.920    -0.027    28.670     8.781
    23   6 C        2.920    -0.037    28.922     8.819
    24   6 C        2.916    -0.038    28.951     8.823
    25   6 C        2.912    -0.041    29.028     8.835
    26   6 C        2.973    -0.018    28.455     8.750
    27   6 C        3.042     0.036    27.153     8.547
    28   6 C        3.177     0.075    25.948     8.318
    29   7 N        1.884    -0.299    28.607     7.929
    30   6 C        3.155     0.131    24.864     8.154
    31   6 C        2.971    -0.004    28.120     8.698
    32   6 C        2.916    -0.036    28.888     8.814
    33   6 C        2.917    -0.042    29.045     8.838
    34   6 C        2.923     0.063    26.583     8.455
    35   7 N        2.752    -0.024    21.714     6.921
    36   6 C        2.927     0.061    26.635     8.464
    37   6 C        2.921    -0.040    28.993     8.830
    38   6 C        2.919    -0.025    28.627     8.774
    39   6 C        2.919    -0.029    28.726     8.789
    40   6 C        2.919    -0.025    28.635     8.775
    41   6 C        2.921    -0.040    29.003     8.831
    42   6 C        2.927     0.061    26.634     8.463
    43   6 C        2.921    -0.040    28.990     8.830
    44   6 C        2.919    -0.025    28.627     8.774
    45   6 C        2.919    -0.029    28.717     8.788
    46   6 C        2.919    -0.025    28.627     8.774
    47   6 C        2.921    -0.040    28.994     8.830
    48   6 C        2.915    -0.042    29.039     8.837
    49   6 C        2.926    -0.027    28.683     8.783
    50   7 N        2.818    -0.064    22.473     7.041
    51   6 C        2.911     0.065    26.546     8.448
    52   6 C        2.921    -0.039    28.968     8.826
    53   6 C        2.919    -0.025    28.637     8.775
    54   6 C        2.919    -0.029    28.736     8.791
    55   6 C        2.919    -0.026    28.659     8.779
    56   6 C        2.920    -0.038    28.950     8.823
    57   6 C        2.922    -0.032    28.802     8.801
    58   6 C        2.922    -0.022    28.566     8.765
    59   1 H        0.926     0.035     2.523     2.484
    60   1 H        0.926     0.041     2.436     2.441
    61   1 H        0.926     0.041     2.436     2.441
    62   1 H        0.926     0.051     2.308     2.376
    63   1 H        0.926     0.038     2.478     2.462
    64   1 H        0.926     0.036     2.501     2.473
    65   1 H        0.926     0.035     2.522     2.483
    66   1 H        0.926     0.026     2.649     2.545
    67   1 H        0.925     0.025     2.661     2.551
    68   1 H        0.926     0.033     2.545     2.495
    69   1 H        0.926     0.031     2.566     2.505
    70   1 H        0.926     0.030     2.579     2.512
    71   1 H        0.926     0.042     2.425     2.435
    72   1 H        0.926     0.049     2.329     2.387
    73   1 H        0.926     0.045     2.383     2.414
    74   1 H        0.926     0.046     2.374     2.409
    75   1 H        0.926     0.044     2.394     2.419
    76   1 H        0.926     0.046     2.375     2.410
    77   1 H        0.926     0.045     2.387     2.416
    78   1 H        0.926     0.045     2.381     2.413
    79   1 H        0.926     0.046     2.372     2.408
    80   1 H        0.926     0.044     2.393     2.419
    81   1 H        0.926     0.046     2.374     2.409
    82   1 H        0.926     0.045     2.379     2.412
    83   1 H        0.926     0.052     2.299     2.371
    84   1 H        0.926     0.061     2.187     2.313
    85   1 H        0.926     0.039     2.459     2.452
    86   1 H        0.926     0.048     2.348     2.396
    87   1 H        0.926     0.047     2.361     2.403
    88   1 H        0.926     0.046     2.372     2.409
    89   1 H        0.926     0.041     2.438     2.442
    90   1 H        0.926     0.045     2.387     2.416
    91   1 H        0.926     0.037     2.496     2.470

molecular dipole:
                 x           y           z       tot (Debye)
 q only:       12.481      -0.149      -0.135
   full:       12.882       0.269      -0.189      32.754

 projected vibrational frequencies (cm⁻¹)
eigval :       -0.00    -0.00    -0.00    -0.00     0.00     0.00
eigval :        6.45     9.39    13.99    17.63    25.04    26.17
eigval :       31.53    34.92    39.29    43.54    49.76    51.36
eigval :       57.05    57.98    67.23    67.70    69.05    78.62
eigval :       99.07   103.13   111.21   115.17   132.75   133.95
eigval :      139.12   147.37   148.92   167.32   183.26   200.97
eigval :      207.86   213.04   231.84   239.10   242.16   249.70
eigval :      262.08   282.63   292.63   308.30   313.66   331.23
eigval :      341.41   363.21   367.56   370.49   373.07   376.00
eigval :      376.83   377.88   384.78   387.72   398.81   406.64
eigval :      410.48   414.87   436.81   438.80   452.91   458.86
eigval :      468.90   475.78   481.21   501.67   510.48   515.38
eigval :      521.19   528.74   535.77   537.45   548.31   566.60
eigval :      580.19   581.90   585.99   588.46   592.13   594.38
eigval :      604.52   606.18   613.51   619.02   621.26   637.02
eigval :      646.02   658.58   661.93   663.75   664.12   673.00
eigval :      675.43   680.29   681.74   689.22   697.18   715.05
eigval :      723.59   742.71   757.55   759.74   764.92   782.12
eigval :      792.36   803.86   805.27   811.94   816.72   833.62
eigval :      837.15   845.01   848.30   853.97   862.35   871.27
eigval :      872.56   872.68   876.14   896.55   898.67   899.98
eigval :      905.18   906.56   907.06   908.12   910.08   913.54
eigval :      915.43   916.39   921.52   924.18   926.85   927.03
eigval :      928.92   929.32   931.67   932.03   932.46   940.25
eigval :      977.33   981.44   990.97   998.49  1001.90  1006.95
eigval :     1022.89  1056.53  1067.13  1076.28  1078.76  1080.13
eigval :     1086.26  1110.31  1116.73  1119.68  1121.35  1132.54
eigval :     1138.21  1141.30  1143.56  1160.54  1170.28  1174.65
eigval :     1176.60  1178.50  1179.31  1180.66  1184.49  1189.97
eigval :     1190.04  1195.59  1211.06  1215.45  1230.28  1239.98
eigval :     1247.36  1254.13  1260.64  1265.05  1268.94  1272.05
eigval :     1272.39  1274.62  1277.93  1287.24  1290.05  1297.67
eigval :     1304.26  1308.85  1309.59  1314.75  1318.51  1321.48
eigval :     1322.74  1324.95  1329.43  1340.29  1352.37  1363.14
eigval :     1388.35  1401.78  1412.32  1416.96  1427.40  1428.68
eigval :     1429.61  1431.75  1434.07  1439.39  1441.77  1453.74
eigval :     1456.23  1456.68  1459.93  1470.33  1474.98  1479.26
eigval :     1483.12  1506.26  1510.50  1513.92  1523.21  1542.98
eigval :     1555.55  1566.77  1569.72  1572.02  1572.70  1578.45
eigval :     1579.84  1582.12  1584.21  1588.65  2291.54  2317.63
eigval :     3067.65  3069.93  3075.41  3077.65  3080.30  3081.69
eigval :     3081.93  3082.70  3082.78  3083.25  3085.03  3085.31
eigval :     3086.62  3088.44  3088.83  3089.29  3090.04  3091.01
eigval :     3092.19  3092.53  3092.90  3093.07  3093.47  3094.39
eigval :     3099.73  3100.86  3101.26  3102.01  3103.95  3114.75
eigval :     3117.54  3121.47  3125.87

   temp. (K)  partition function   enthalpy   heat capacity  entropy
                                   cal/mol     cal/K/mol   cal/K/mol   J/K/mol
 298.15  VIB  0.117E+24            27918.935    170.982    176.802
         ROT  0.217E+09              888.752      2.981     41.125
         INT  0.254E+32            28807.687    173.963    217.927
         TR   0.195E+29             1481.254      4.968     45.663
         TOT                       30288.9412   178.9310   263.5901  1102.8608

       T/K    H(0)-H(T)+PV         H(T)/Eh          T*S/Eh         G(T)/Eh
   ------------------------------------------------------------------------
    298.15    0.482685E-01    0.730692E+00    0.125240E+00    0.605452E+00
   ------------------------------------------------------------------------

         :::::::::::::::::::::::::::::::::::::::::::::::::::::
         ::                  THERMODYNAMIC                  ::
         :::::::::::::::::::::::::::::::::::::::::::::::::::::
         :: total free energy        -144.304657698744 Eh   ::
         ::.................................................::
         :: total energy             -144.910109314954 Eh   ::
         :: zero point energy           0.682423258110 Eh   ::
         :: G(RRHO) w/o ZPVE           -0.076971641900 Eh   ::
         :: G(RRHO) contrib.            0.605451616210 Eh   ::
         :::::::::::::::::::::::::::::::::::::::::::::::::::::

           -------------------------------------------------
          | TOTAL ENERGY             -144.910109314954 Eh   |
          | TOTAL ENTHALPY           -144.179417556591 Eh   |
          | TOTAL FREE ENERGY        -144.304657698744 Eh   |
          | GRADIENT NORM               0.000152631623 Eh/α |
          | HOMO-LUMO GAP               0.185768178576 eV   |
           -------------------------------------------------

 * finished run on 2025/07/20 at 03:58:33.418
