   * xtb version 6.7.1 (edcfbbe) compiled by 'albert@albert-system' on 2024-07-22

   ID    Z sym.   atoms
    1    7 N      1, 21, 29, 35, 50
    2    6 C      2-20, 22-28, 30-34, 36-49, 51-58
    3    1 H      59-91

          program call               : xtb data2507/toluene/TPM2CN/TPM2CN_toluene_T1_crest.xyz --gfn 2 --uhf 2 --gbsa toluene --ohess vtight --parallel 40 --molden --ceasefiles --namespace data2507/toluene/TPM2CN/TPM2CN_toluene_T1_finalOpt
      * Solvation model:               GBSA
        Solvent                        toluene
        Solvent mass                       9.2140E+01 g/mol
          :  Hamiltonian                  GFN2-xTB          :
 * total energy  :  -144.9099323 Eh     change       -0.1433762E-08 Eh
 * total energy  :  -144.9100176 Eh     change       -0.8531781E-04 Eh
 * total energy  :  -144.9100332 Eh     change       -0.1552456E-04 Eh
 * total energy  :  -144.9100527 Eh     change       -0.1955373E-04 Eh
 * total energy  :  -144.9100554 Eh     change       -0.2648763E-05 Eh
 * total energy  :  -144.9100678 Eh     change       -0.1241896E-04 Eh
 * total energy  :  -144.9100816 Eh     change       -0.1382358E-04 Eh
 * total energy  :  -144.9100944 Eh     change       -0.1278499E-04 Eh
 * total energy  :  -144.9101055 Eh     change       -0.1108395E-04 Eh
 * total energy  :  -144.9101143 Eh     change       -0.8793041E-05 Eh
 * total energy  :  -144.9101429 Eh     change       -0.3211601E-06 Eh
 * total energy  :  -144.9101431 Eh     change       -0.2470117E-06 Eh
 * total energy  :  -144.9101434 Eh     change       -0.2352506E-06 Eh
 * total energy  :  -144.9101436 Eh     change       -0.2264435E-06 Eh
 * total energy  :  -144.9101438 Eh     change       -0.1626910E-06 Eh
 * total energy  :  -144.9101439 Eh     change       -0.1315476E-06 Eh
 * total energy  :  -144.9101441 Eh     change       -0.1572897E-06 Eh
 * total energy  :  -144.9101442 Eh     change       -0.1917010E-06 Eh
 * total energy  :  -144.9101443 Eh     change       -0.9406907E-07 Eh
   *** GEOMETRY OPTIMIZATION CONVERGED AFTER 38 ITERATIONS ***

 final structure:
================
91
 xtb: 6.7.1 (edcfbbe)
N           -9.53354287126720       -6.99246629447086        0.11393133389998
C           -8.58458052293796       -6.34120534596987        0.11582247101534
C           -7.42405768369953       -5.54819434028484        0.11811316265069
C           -6.26354501109232       -5.99415707480720       -0.52749072376401
C           -5.12893918394356       -5.21652454444899       -0.51686677005080
C           -5.10931087323554       -3.97134917567281        0.12499716123154
C           -3.89857457098567       -3.15305353575788        0.12827580550264
C           -2.63472932666767       -3.74918277880029        0.21669244527275
C           -1.50529643603588       -2.97023753105689        0.21303627604898
C           -1.59775191792258       -1.57453498371665        0.11633765562701
C           -2.86101947815689       -0.93904550554563        0.04373791921641
C           -3.98480420594465       -1.76016729791278        0.04511209426523
C           -2.94522222861593        0.52150848680790       -0.02238974454911
C           -4.16259106186822        1.17279867878994       -0.01334290370449
C           -4.30015870827350        2.57403268191335       -0.04161519161356
C           -5.60029257823058        3.19824799465619       -0.03447832606365
C           -5.78925263181065        4.49350670302572        0.49217932784032
C           -7.02295034601104        5.08944681348705        0.50996143821453
C           -8.14271488451681        4.42031200984541       -0.01497427077528
C           -9.40332681559315        5.02622298757399       -0.00334926748335
N          -10.44220092757251        5.52831518611034        0.00673905611960
C           -7.97220682029917        3.13235155427307       -0.55231436382037
C           -6.73578169791736        2.54167974272983       -0.55492304900231
C           -3.11114672888120        3.33767944608317       -0.06671679980695
C           -1.89061379601820        2.73613628380144       -0.09013869545523
C           -1.74886622667747        1.32236861373608       -0.07578680143813
C           -0.52273194550679        0.65809137990295       -0.07693419228519
C           -0.43724417629409       -0.76379656100615        0.06836269861630
N            0.83651717649811       -1.15189785982699        0.13338696629419
C            1.58356418135482       -0.05801366829024        0.00593372254034
C            3.00240280289241       -0.12753194470971       -0.02372929994730
C            3.60508776950268       -1.32556050211374        0.43076629031988
C            4.96174791035471       -1.48454560730124        0.44023761430786
C            5.80814612364068       -0.45155981873206       -0.00840486302925
N            7.18064597273948       -0.59566498349012        0.01926704161320
C            7.76720555703782       -1.86076839642175       -0.13489286642709
C            8.87562975767463       -2.21842050953615        0.63382872764207
C            9.45631060898677       -3.46145303996886        0.47255506188646
C            8.94344135789637       -4.36053481791923       -0.45017678311761
C            7.84283854041890       -4.00785954010452       -1.21629193907839
C            7.25547195909122       -2.76666462305767       -1.06534678128243
C            8.01138181876179        0.51909191822510        0.19915499116395
C            9.21478410364745        0.61825316500335       -0.50130487735749
C           10.03491331879168        1.71423196050511       -0.31593008601830
C            9.67046110736475        2.72249441199843        0.56346746577612
C            8.47685299080694        2.62656531858856        1.26260349328487
C            7.65010907313374        1.53401881361860        1.08736043216075
C            5.21669890454312        0.72805718096355       -0.49481807872301
C            3.85638170145113        0.88619221242453       -0.50886347235087
N            0.78569301682027        1.08498098977989       -0.12451550129286
C            1.25522720469847        2.41293268814160       -0.19858206983501
C            1.89549378573938        2.97958520593911        0.89956701854036
C            2.37488507096962        4.27471198342168        0.81958728322502
C            2.21698302517088        5.00662197840441       -0.34657812340440
C            1.57611985835751        4.44235116239517       -1.43888855675133
C            1.09542808915601        3.14714739712645       -1.37155980993642
C           -6.27774363350594       -3.53565676565683        0.76354284630561
C           -7.41705700753128       -4.30701687462937        0.76714490310175
H           -6.27213744454938       -6.94882840769939       -1.03364223382730
H           -4.24726451996188       -5.56102371642164       -1.03606124436135
H           -2.55195226820805       -4.82111297822245        0.31387943855197
H           -0.52100474175282       -3.40722177110498        0.28071677559007
H           -4.96851902805067       -1.33081895180136       -0.05134318992678
H           -5.06793022915102        0.59450743794396        0.06340573436627
H           -4.95205627782408        5.01765465080307        0.92762311404651
H           -7.15116183055254        6.07644095766158        0.93226586178107
H           -8.82778138936312        2.61889297363579       -0.96879488367779
H           -6.62819152310338        1.56552575086954       -1.00356402123555
H           -3.16791804037746        4.41490490008554       -0.10188432792788
H           -1.00338347767032        3.34732566138455       -0.11157116553607
H            2.95619157490811       -2.10619050337600        0.79369960079654
H            5.39608272447207       -2.39565712513786        0.82288579624658
H            9.26673817261742       -1.52218545448895        1.36069834156398
H           10.30986784937047       -3.73277473563146        1.07547423248405
H            9.39973224124143       -5.33096644668956       -0.57241479371302
H            7.44414867038036       -4.70041695490013       -1.94234105334099
H            6.40874603643650       -2.48413745860803       -1.67323944500257
H            9.49275978291070       -0.16070446851099       -1.19547688868148
H           10.96075221253816        1.78537124594474       -0.86680359181306
H           10.31364472719175        3.57766821016453        0.70432089997296
H            8.19202354572746        3.40373508178697        1.95588013019135
H            6.72903947121516        1.45047274982937        1.64489044008182
H            5.84773094938461        1.50797092756053       -0.89394067933395
H            3.44352431800938        1.78437750386545       -0.93612698951999
H            2.01211822144763        2.39972222680833        1.80333882980948
H            2.86877424469569        4.71424007402400        1.67293338232923
H            2.59179954039320        6.01707328806741       -0.40521710923438
H            1.45149901962281        5.01018772343941       -2.34864276563572
H            0.59515348004850        2.69672624149226       -2.21671740964512
H           -6.27906906920120       -2.59177711401631        1.28821264913875
H           -8.31053272223292       -3.96677413042182        1.27107549664226

          :  Hamiltonian                  GFN2-xTB          :
         :: gradient norm              0.000051017019 Eh/a0 ::
         :: HOMO-LUMO gap              0.180757888716 eV    ::
         :: SCC energy              -147.687361297987 Eh    ::
         :: -> dispersion             -0.129575986999 Eh    ::
         :: -> Gsolv                  -0.076396528669 Eh    ::
         :: repulsion energy           2.777216961333 Eh    ::

    * Orbital Energies and Occupations

         #    Occupation            Energy/Eh            Energy/eV
      -------------------------------------------------------------
         1        2.0000           -0.6947921             -18.9063
       ...           ...                  ...                  ...
       124        2.0000           -0.4185841             -11.3903
       125        2.0000           -0.4173439             -11.3565
       126        2.0000           -0.4159413             -11.3183
       127        2.0000           -0.4122609             -11.2182
       128        2.0000           -0.4112031             -11.1894
       129        2.0000           -0.4088580             -11.1256
       130        2.0000           -0.4025178             -10.9531
       131        2.0000           -0.3946666             -10.7394
       132        2.0000           -0.3887839             -10.5793
       133        2.0000           -0.3862928             -10.5116
       134        1.9999           -0.3757601             -10.2250
       135        1.0001           -0.3589994              -9.7689
       136        0.9706           -0.2846263              -7.7451 (HOMO)
       137        0.0294           -0.2779832              -7.5643 (LUMO)
       138                         -0.2657813              -7.2323
       139                         -0.2504099              -6.8140
       140                         -0.2477498              -6.7416
       141                         -0.2465125              -6.7079
       142                         -0.2433617              -6.6222
       143                         -0.2418935              -6.5823
       144                         -0.2410119              -6.5583
       145                         -0.2360329              -6.4228
       146                         -0.2351710              -6.3993
       147                         -0.2343443              -6.3768
       ...                                ...                  ...
       265                          1.1653619              31.7111
      -------------------------------------------------------------
                  HL-Gap            0.0066431 Eh            0.1808 eV

     #   Z          covCN         q      C6AA      α(0)
     1   7 N        0.911    -0.296    27.635     7.603
     2   6 C        1.912     0.113    28.302     8.592
     3   6 C        2.972     0.006    27.884     8.662
     4   6 C        2.922    -0.022    28.566     8.765
     5   6 C        2.922    -0.032    28.802     8.801
     6   6 C        2.975     0.015    27.675     8.629
     7   6 C        2.973     0.009    27.814     8.651
     8   6 C        2.920    -0.034    28.854     8.809
     9   6 C        2.919    -0.031    28.782     8.798
    10   6 C        2.983    -0.005    28.138     8.701
    11   6 C        2.975     0.000    28.018     8.683
    12   6 C        2.927    -0.042    29.049     8.839
    13   6 C        2.973    -0.003    28.085     8.693
    14   6 C        2.925    -0.042    29.048     8.839
    15   6 C        2.970     0.002    27.971     8.675
    16   6 C        2.971     0.005    27.903     8.665
    17   6 C        2.921    -0.037    28.917     8.818
    18   6 C        2.920    -0.027    28.671     8.781
    19   6 C        2.970    -0.005    28.134     8.700
    20   6 C        1.911     0.108    28.428     8.611
    21   7 N        0.911    -0.321    28.249     7.687
    22   6 C        2.920    -0.027    28.669     8.780
    23   6 C        2.920    -0.037    28.922     8.819
    24   6 C        2.916    -0.038    28.951     8.823
    25   6 C        2.912    -0.041    29.027     8.835
    26   6 C        2.973    -0.018    28.458     8.750
    27   6 C        3.042     0.036    27.149     8.546
    28   6 C        3.176     0.075    25.948     8.318
    29   7 N        1.884    -0.299    28.611     7.929
    30   6 C        3.153     0.131    24.877     8.157
    31   6 C        2.970    -0.004    28.123     8.699
    32   6 C        2.926    -0.028    28.690     8.784
    33   6 C        2.915    -0.042    29.036     8.836
    34   6 C        2.924     0.063    26.592     8.457
    35   7 N        2.752    -0.024    21.712     6.920
    36   6 C        2.927     0.061    26.634     8.463
    37   6 C        2.921    -0.040    28.988     8.829
    38   6 C        2.919    -0.025    28.627     8.774
    39   6 C        2.919    -0.029    28.716     8.788
    40   6 C        2.919    -0.025    28.627     8.774
    41   6 C        2.921    -0.040    28.991     8.830
    42   6 C        2.927     0.061    26.633     8.463
    43   6 C        2.921    -0.040    28.997     8.831
    44   6 C        2.919    -0.025    28.628     8.774
    45   6 C        2.919    -0.029    28.728     8.789
    46   6 C        2.919    -0.025    28.636     8.775
    47   6 C        2.921    -0.040    29.006     8.832
    48   6 C        2.917    -0.042    29.042     8.837
    49   6 C        2.916    -0.036    28.900     8.816
    50   7 N        2.818    -0.064    22.485     7.043
    51   6 C        2.911     0.065    26.541     8.448
    52   6 C        2.921    -0.039    28.964     8.826
    53   6 C        2.919    -0.025    28.636     8.775
    54   6 C        2.919    -0.029    28.732     8.790
    55   6 C        2.919    -0.026    28.658     8.779
    56   6 C        2.920    -0.038    28.948     8.823
    57   6 C        2.922    -0.032    28.801     8.801
    58   6 C        2.922    -0.022    28.566     8.765
    59   1 H        0.926     0.037     2.495     2.470
    60   1 H        0.926     0.045     2.386     2.415
    61   1 H        0.926     0.041     2.436     2.440
    62   1 H        0.926     0.051     2.308     2.376
    63   1 H        0.926     0.038     2.477     2.461
    64   1 H        0.926     0.036     2.501     2.473
    65   1 H        0.926     0.035     2.522     2.483
    66   1 H        0.926     0.026     2.648     2.545
    67   1 H        0.925     0.025     2.660     2.550
    68   1 H        0.926     0.033     2.543     2.494
    69   1 H        0.926     0.031     2.567     2.505
    70   1 H        0.926     0.030     2.581     2.512
    71   1 H        0.926     0.061     2.182     2.310
    72   1 H        0.926     0.051     2.304     2.374
    73   1 H        0.926     0.045     2.380     2.412
    74   1 H        0.926     0.046     2.371     2.408
    75   1 H        0.926     0.044     2.392     2.418
    76   1 H        0.926     0.046     2.374     2.409
    77   1 H        0.926     0.045     2.382     2.413
    78   1 H        0.926     0.045     2.384     2.415
    79   1 H        0.926     0.046     2.375     2.410
    80   1 H        0.926     0.044     2.395     2.420
    81   1 H        0.926     0.046     2.376     2.411
    82   1 H        0.926     0.045     2.388     2.416
    83   1 H        0.926     0.049     2.332     2.388
    84   1 H        0.926     0.042     2.425     2.435
    85   1 H        0.926     0.039     2.457     2.451
    86   1 H        0.926     0.048     2.347     2.396
    87   1 H        0.926     0.047     2.360     2.402
    88   1 H        0.926     0.046     2.370     2.408
    89   1 H        0.926     0.041     2.436     2.441
    90   1 H        0.926     0.041     2.434     2.440
    91   1 H        0.926     0.035     2.523     2.484

molecular dipole:
                 x           y           z       tot (Debye)
 q only:       12.446       0.022      -0.082
   full:       12.842       0.452      -0.131      32.664

 projected vibrational frequencies (cm⁻¹)
eigval :       -0.00    -0.00     0.00     0.00     0.00     0.00
eigval :        7.32     8.91    14.15    17.73    24.35    25.62
eigval :       31.14    34.46    41.94    43.09    48.36    49.90
eigval :       56.23    57.37    65.55    67.57    69.76    78.64
eigval :       99.63   103.65   109.79   115.23   132.48   133.84
eigval :      138.67   146.42   148.07   167.23   183.87   200.17
eigval :      206.41   213.10   230.54   238.78   242.06   249.65
eigval :      261.68   281.88   292.55   308.24   313.60   331.44
eigval :      341.18   363.27   366.67   369.38   372.08   375.33
eigval :      375.52   377.50   383.60   387.95   399.31   407.83
eigval :      410.29   414.87   436.40   438.93   452.61   459.10
eigval :      467.68   475.77   479.92   501.68   510.45   514.75
eigval :      521.06   528.58   535.14   537.12   547.77   566.30
eigval :      579.82   581.92   586.12   588.56   592.06   594.32
eigval :      603.73   606.54   613.38   618.90   621.13   637.12
eigval :      645.70   658.55   661.84   663.92   663.93   673.14
eigval :      674.89   680.27   681.52   689.10   696.98   715.15
eigval :      723.52   742.16   755.92   758.37   764.83   782.36
eigval :      792.76   802.78   805.67   812.43   814.61   832.76
eigval :      836.83   845.04   846.34   853.61   861.58   869.91
eigval :      871.42   871.71   875.91   894.57   897.94   900.03
eigval :      905.71   906.47   907.24   907.75   909.63   913.93
eigval :      914.12   916.42   921.44   921.75   926.38   927.73
eigval :      928.18   928.37   928.96   929.22   932.19   940.12
eigval :      977.38   981.44   990.75   998.55  1001.55  1006.58
eigval :     1022.85  1056.81  1067.00  1075.60  1078.14  1079.44
eigval :     1086.36  1110.04  1115.83  1119.46  1121.02  1132.45
eigval :     1139.36  1141.08  1144.12  1159.86  1169.79  1174.48
eigval :     1175.94  1177.37  1178.66  1180.21  1184.11  1189.03
eigval :     1190.08  1195.69  1210.36  1215.22  1229.56  1240.25
eigval :     1247.07  1254.63  1260.44  1265.21  1269.57  1271.20
eigval :     1271.51  1274.21  1277.49  1287.23  1290.02  1297.59
eigval :     1304.77  1308.63  1309.71  1314.81  1318.71  1321.71
eigval :     1322.70  1324.78  1329.60  1340.88  1352.09  1362.87
eigval :     1388.66  1401.53  1412.18  1416.66  1426.96  1428.37
eigval :     1429.63  1431.29  1433.51  1439.18  1441.73  1454.09
eigval :     1455.54  1456.62  1460.20  1470.17  1474.72  1479.17
eigval :     1483.20  1506.59  1509.80  1513.95  1523.48  1542.95
eigval :     1555.32  1566.45  1569.53  1571.87  1573.00  1577.96
eigval :     1579.89  1582.15  1584.19  1588.52  2291.86  2317.41
eigval :     3067.60  3069.78  3075.05  3077.57  3080.72  3081.62
eigval :     3081.81  3082.67  3082.68  3083.26  3084.60  3085.84
eigval :     3086.25  3088.63  3088.70  3089.23  3090.00  3090.72
eigval :     3091.20  3092.30  3092.63  3093.10  3093.47  3094.26
eigval :     3100.61  3100.80  3101.02  3102.22  3105.06  3116.16
eigval :     3118.27  3121.81  3127.28

   temp. (K)  partition function   enthalpy   heat capacity  entropy
                                   cal/mol     cal/K/mol   cal/K/mol   J/K/mol
 298.15  VIB  0.124E+24            27943.492    170.996    176.920
         ROT  0.217E+09              888.752      2.981     41.127
         INT  0.268E+32            28832.244    173.977    218.047
         TR   0.195E+29             1481.254      4.968     45.663
         TOT                       30313.4983   178.9452   263.7096  1103.3610

       T/K    H(0)-H(T)+PV         H(T)/Eh          T*S/Eh         G(T)/Eh
   ------------------------------------------------------------------------
    298.15    0.483076E-01    0.730586E+00    0.125297E+00    0.605289E+00
   ------------------------------------------------------------------------

         :::::::::::::::::::::::::::::::::::::::::::::::::::::
         ::                  THERMODYNAMIC                  ::
         :::::::::::::::::::::::::::::::::::::::::::::::::::::
         :: total free energy        -144.304855472505 Eh   ::
         ::.................................................::
         :: total energy             -144.910144332055 Eh   ::
         :: zero point energy           0.682278169777 Eh   ::
         :: G(RRHO) w/o ZPVE           -0.076989310226 Eh   ::
         :: G(RRHO) contrib.            0.605288859550 Eh   ::
         :::::::::::::::::::::::::::::::::::::::::::::::::::::

           -------------------------------------------------
          | TOTAL ENERGY             -144.910144332055 Eh   |
          | TOTAL ENTHALPY           -144.179558527821 Eh   |
          | TOTAL FREE ENERGY        -144.304855472505 Eh   |
          | GRADIENT NORM               0.000050493287 Eh/α |
          | HOMO-LUMO GAP               0.180767610996 eV   |
           -------------------------------------------------

 * finished run on 2025/07/20 at 04:07:54.249
