   * xtb version 6.7.1 (edcfbbe) compiled by 'albert@albert-system' on 2024-07-22

   ID    Z sym.   atoms
    1    7 N      1, 21, 29, 35, 50
    2    6 C      2-20, 22-28, 30-34, 36-49, 51-58
    3    1 H      59-91

          program call               : xtb data2507/toluene/TPM2CN/TPM2CN_toluene_S0_crest.xyz --gfn 2 --gbsa toluene --ohess vtight --parallel 40 --molden --ceasefiles --namespace data2507/toluene/TPM2CN/TPM2CN_toluene_S0_finalOpt
      * Solvation model:               GBSA
        Solvent                        toluene
        Solvent mass                       9.2140E+01 g/mol
          :  Hamiltonian                  GFN2-xTB          :
 * total energy  :  -144.9859961 Eh     change       -0.2920245E-08 Eh
 * total energy  :  -144.9860357 Eh     change       -0.3959882E-04 Eh
 * total energy  :  -144.9860511 Eh     change       -0.1544916E-04 Eh
 * total energy  :  -144.9860587 Eh     change       -0.7573368E-05 Eh
 * total energy  :  -144.9860645 Eh     change       -0.5848500E-05 Eh
 * total energy  :  -144.9860699 Eh     change       -0.5367120E-05 Eh
 * total energy  :  -144.9860747 Eh     change       -0.4829848E-05 Eh
 * total energy  :  -144.9860786 Eh     change       -0.3837530E-05 Eh
 * total energy  :  -144.9860825 Eh     change       -0.3932171E-05 Eh
 * total energy  :  -144.9860865 Eh     change       -0.4044265E-05 Eh
 * total energy  :  -144.9861339 Eh     change       -0.5386243E-06 Eh
 * total energy  :  -144.9861344 Eh     change       -0.5280165E-06 Eh
 * total energy  :  -144.9861349 Eh     change       -0.4863031E-06 Eh
 * total energy  :  -144.9861354 Eh     change       -0.4654571E-06 Eh
 * total energy  :  -144.9861359 Eh     change       -0.5040204E-06 Eh
 * total energy  :  -144.9861365 Eh     change       -0.6364806E-06 Eh
 * total energy  :  -144.9861373 Eh     change       -0.7792250E-06 Eh
 * total energy  :  -144.9861381 Eh     change       -0.8401658E-06 Eh
 * total energy  :  -144.9861381 Eh     change       -0.3139803E-08 Eh
   *** GEOMETRY OPTIMIZATION CONVERGED AFTER 44 ITERATIONS ***

 final structure:
================
91
 xtb: 6.7.1 (edcfbbe)
N           -9.85701775397296       -6.70660646796605       -0.23013011485403
C           -8.87900872701945       -6.10595061790519       -0.18623131867935
C           -7.67830253333803       -5.36766268432637       -0.13215010005607
C           -7.59797747439015       -4.21877499838885        0.65856417962534
C           -6.42281836649970       -3.49881619943318        0.70298547647494
C           -5.30450509824650       -3.90455452484577       -0.02804756657707
C           -4.05450087052903       -3.13372957028901        0.01909693845628
C           -2.81816527823840       -3.79336159372471        0.08569292842091
C           -1.65671359386710       -3.06719091333749        0.11009880716328
C           -1.68857111472191       -1.66816970340949        0.06409307739792
C           -2.92059090587599       -0.97519220655198        0.01634270117144
C           -4.08679094899962       -1.75009857800161       -0.01022235051177
C           -2.94139500825773        0.47870996711382        0.01227433533847
C           -4.14394086409379        1.19254937327983        0.05305341417225
C           -4.19195836229951        2.57493032692598        0.10049843416729
C           -5.48149186133933        3.27609893401785        0.14400968636437
C           -5.65929511825992        4.38571917895330        0.97263729599467
C           -6.86772257437281        5.04780485509799        1.02011676689027
C           -7.93029819905409        4.61084929916394        0.22527918763408
C           -9.16752070887441        5.28724013464655        0.26640375684397
N          -10.17382024160742        5.83977290799778        0.30019255558152
C           -7.76392702726471        3.50360178358059       -0.61013421782922
C           -6.55176832259959        2.84729692999396       -0.64374111691810
C           -2.98880789348585        3.29145620817397        0.12217823788277
C           -1.79052030061237        2.62853550196127        0.06799692461555
C           -1.73186519469311        1.22821033828744       -0.00367595868094
C           -0.51595812422051        0.49304268461293       -0.05276687110467
C           -0.49333936165457       -0.89936915070232        0.03598267752362
N            0.78893460496967       -1.34974348494619        0.05472821536368
C            1.54714626170052       -0.28328992412023       -0.03780863154406
C            2.99807649129516       -0.33699331689471       -0.05931346889415
C            3.77781200971985        0.51635631188162       -0.84046958897953
C            5.15259046004401        0.42892388604771       -0.81788150360038
C            5.79644706187805       -0.51402433259967       -0.01262905206162
N            7.18669029395806       -0.57988168840557        0.02860239377678
C            7.95201185848042        0.59079256332248       -0.07345211342541
C            9.15651995665958        0.58790152016966       -0.77617949866592
C            9.91487677433448        1.74002765684599       -0.86225657628371
C            9.48362785087422        2.91121873570438       -0.26035574302958
C            8.28469069721761        2.92069201017345        0.43433384344969
C            7.52441882953111        1.77128196308943        0.53429868137080
C            7.83101456775164       -1.81756691513879        0.17839784591596
C            8.96639042062553       -1.92994564156942        0.97984738131383
C            9.60290014401176       -3.14890395382687        1.11681353149490
C            9.11587984158026       -4.27182220582401        0.46730689687409
C            7.98591653110655       -4.16557688774395       -0.32769090004554
C            7.34763769042554       -2.94915357580767       -0.47770287094107
C            5.01439920632358       -1.39114155806409        0.74516400412675
C            3.64086993279056       -1.30608044410317        0.71446187971781
N            0.80553590543231        0.87548695563579       -0.11009983336861
C            1.34485504393631        2.17661773278882       -0.21372237799425
C            2.12628433546694        2.68100589459477        0.81884510386892
C            2.68621639089314        3.94096872586442        0.70051434297489
C            2.46781681660067        4.69701747268743       -0.43940865336635
C            1.68628726164265        4.19315937593451       -1.46724833300364
C            1.12595104050506        2.93302253400375       -1.36139657074438
C           -5.39566796033414       -5.05739533968878       -0.81047872484724
C           -6.56626815139733       -5.78358951550984       -0.86852439673518
H           -8.45849372311625       -3.90486110697035        1.23165014097763
H           -6.36071022924837       -2.62162008352182        1.32963836504706
H           -2.78879447841380       -4.87154087085352        0.13644657815700
H           -0.69165776867759       -3.54812838930075        0.15679202001370
H           -5.05128434631684       -1.27464453415420       -0.08708945712253
H           -5.07957863626492        0.65871246533240        0.08472245408374
H           -4.84649076637428        4.71751470229445        1.60101315493416
H           -7.00288711591066        5.90174633626530        1.66797021487195
H           -8.58677312482612        3.17271292718842       -1.22713561088166
H           -6.42282435009817        2.00334955904330       -1.30486952112761
H           -3.00444114236090        4.37029748658400        0.15997194247696
H           -0.87386928202717        3.19511586504726        0.09334484812357
H            3.31082880201797        1.23581588976310       -1.49521624549747
H            5.74181442291752        1.09039740405175       -1.43549981492560
H            9.49139476927681       -0.32175179643154       -1.25309197950114
H           10.84559933437194        1.72421594426597       -1.41052362574465
H           10.07776669015849        3.80985227374514       -0.33172105826293
H            7.94317526486280        3.82772205892932        0.91163205494246
H            6.59604467943119        1.77840253974735        1.08672779274672
H            9.34292482869114       -1.05740055618595        1.49359702904738
H           10.48072542041058       -3.22337730506502        1.74208602048956
H            9.61378641314067       -5.22321297948396        0.57945601168861
H            7.60255074228001       -5.03448054900275       -0.84250527404571
H            6.47211458605931       -2.86647411224413       -1.10533143310430
H            5.49584385358986       -2.13234150392278        1.36557006761918
H            3.03842489971785       -1.97959205336032        1.30443710255672
H            2.29125948475411        2.08206742200540        1.70243726587698
H            3.29339711246611        4.33167350643692        1.50300188016357
H            2.90661451647717        5.67912202436023       -0.52862203355178
H            1.51536385683687        4.77933973016157       -2.35762707629056
H            0.51875616185347        2.52790554145015       -2.15834014028665
H           -4.54388915291601       -5.37333500579058       -1.39395869239722
H           -6.63405733451090       -6.67089732110096       -1.48114743387664

          :  Hamiltonian                  GFN2-xTB          :
         :: gradient norm              0.000101690138 Eh/a0 ::
         :: HOMO-LUMO gap              1.837325443099 eV    ::
         :: SCC energy              -147.781953403770 Eh    ::
         :: -> dispersion             -0.129999946882 Eh    ::
         :: -> Gsolv                  -0.069651782255 Eh    ::
         :: repulsion energy           2.795815277592 Eh    ::

    * Orbital Energies and Occupations

         #    Occupation            Energy/Eh            Energy/eV
      -------------------------------------------------------------
         1        2.0000           -0.6926058             -18.8468
       ...           ...                  ...                  ...
       123        2.0000           -0.4184184             -11.3857
       124        2.0000           -0.4164015             -11.3309
       125        2.0000           -0.4147177             -11.2850
       126        2.0000           -0.4110659             -11.1857
       127        2.0000           -0.4101381             -11.1604
       128        2.0000           -0.4082817             -11.1099
       129        2.0000           -0.4077361             -11.0951
       130        2.0000           -0.4060787             -11.0500
       131        2.0000           -0.4012349             -10.9182
       132        2.0000           -0.3893606             -10.5950
       133        2.0000           -0.3836243             -10.4389
       134        2.0000           -0.3723325             -10.1317
       135        2.0000           -0.3523691              -9.5885 (HOMO)
       136                         -0.2848487              -7.7511 (LUMO)
       137                         -0.2788715              -7.5885
       138                         -0.2624345              -7.1412
       139                         -0.2554046              -6.9499
       140                         -0.2458999              -6.6913
       141                         -0.2427965              -6.6068
       142                         -0.2426867              -6.6038
       143                         -0.2420597              -6.5868
       144                         -0.2410478              -6.5592
       145                         -0.2330401              -6.3413
       146                         -0.2315961              -6.3021
       ...                                ...                  ...
       265                          1.1593041              31.5463
      -------------------------------------------------------------
                  HL-Gap            0.0675205 Eh            1.8373 eV

     #   Z          covCN         q      C6AA      α(0)
     1   7 N        0.911    -0.278    27.179     7.540
     2   6 C        1.912     0.118    28.197     8.576
     3   6 C        2.973     0.013    27.722     8.637
     4   6 C        2.924    -0.019    28.486     8.753
     5   6 C        2.923    -0.030    28.752     8.793
     6   6 C        2.977     0.023    27.493     8.601
     7   6 C        2.975     0.006    27.884     8.662
     8   6 C        2.921    -0.034    28.852     8.808
     9   6 C        2.919    -0.032    28.802     8.801
    10   6 C        2.985    -0.002    28.063     8.690
    11   6 C        2.977    -0.003    28.095     8.695
    12   6 C        2.927    -0.040    28.985     8.829
    13   6 C        2.978    -0.000    28.027     8.684
    14   6 C        2.928    -0.039    28.960     8.825
    15   6 C        2.974     0.006    27.884     8.662
    16   6 C        2.976     0.022    27.504     8.603
    17   6 C        2.923    -0.029    28.736     8.791
    18   6 C        2.924    -0.019    28.481     8.752
    19   6 C        2.973     0.013    27.713     8.635
    20   6 C        1.912     0.118    28.198     8.576
    21   7 N        0.911    -0.277    27.157     7.537
    22   6 C        2.924    -0.019    28.481     8.752
    23   6 C        2.923    -0.030    28.748     8.793
    24   6 C        2.921    -0.035    28.873     8.812
    25   6 C        2.917    -0.040    29.003     8.831
    26   6 C        2.978    -0.004    28.117     8.698
    27   6 C        3.072     0.022    27.447     8.590
    28   6 C        3.204     0.061    26.074     8.317
    29   7 N        1.893    -0.317    29.070     7.993
    30   6 C        3.190     0.138    24.557     8.083
    31   6 C        2.973    -0.012    28.309     8.727
    32   6 C        2.921    -0.035    28.879     8.813
    33   6 C        2.921    -0.049    29.214     8.864
    34   6 C        2.923     0.068    26.472     8.437
    35   7 N        2.752    -0.073    22.660     7.070
    36   6 C        2.924     0.064    26.562     8.452
    37   6 C        2.922    -0.047    29.165     8.856
    38   6 C        2.919    -0.030    28.737     8.791
    39   6 C        2.919    -0.038    28.951     8.823
    40   6 C        2.919    -0.030    28.745     8.792
    41   6 C        2.922    -0.048    29.184     8.859
    42   6 C        2.924     0.064    26.562     8.452
    43   6 C        2.922    -0.047    29.158     8.855
    44   6 C        2.919    -0.030    28.737     8.791
    45   6 C        2.919    -0.038    28.936     8.821
    46   6 C        2.919    -0.029    28.734     8.790
    47   6 C        2.922    -0.047    29.165     8.856
    48   6 C        2.920    -0.048    29.186     8.859
    49   6 C        2.926    -0.029    28.715     8.788
    50   7 N        2.839    -0.053    22.258     7.007
    51   6 C        2.912     0.066    26.525     8.445
    52   6 C        2.921    -0.038    28.941     8.822
    53   6 C        2.920    -0.025    28.618     8.773
    54   6 C        2.919    -0.028    28.703     8.786
    55   6 C        2.920    -0.026    28.652     8.778
    56   6 C        2.921    -0.037    28.927     8.820
    57   6 C        2.923    -0.029    28.734     8.791
    58   6 C        2.924    -0.019    28.481     8.752
    59   1 H        0.926     0.042     2.422     2.434
    60   1 H        0.926     0.048     2.347     2.396
    61   1 H        0.926     0.039     2.464     2.455
    62   1 H        0.926     0.048     2.340     2.392
    63   1 H        0.926     0.041     2.429     2.437
    64   1 H        0.926     0.043     2.405     2.425
    65   1 H        0.926     0.049     2.336     2.390
    66   1 H        0.926     0.043     2.415     2.430
    67   1 H        0.926     0.042     2.417     2.431
    68   1 H        0.926     0.048     2.341     2.392
    69   1 H        0.926     0.038     2.474     2.459
    70   1 H        0.926     0.034     2.526     2.485
    71   1 H        0.926     0.031     2.567     2.505
    72   1 H        0.926     0.038     2.469     2.457
    73   1 H        0.926     0.033     2.542     2.493
    74   1 H        0.926     0.035     2.518     2.481
    75   1 H        0.926     0.034     2.535     2.490
    76   1 H        0.926     0.035     2.511     2.478
    77   1 H        0.926     0.032     2.554     2.499
    78   1 H        0.926     0.034     2.534     2.489
    79   1 H        0.926     0.035     2.511     2.478
    80   1 H        0.926     0.034     2.531     2.488
    81   1 H        0.926     0.035     2.512     2.478
    82   1 H        0.926     0.033     2.543     2.494
    83   1 H        0.926     0.040     2.444     2.445
    84   1 H        0.926     0.047     2.363     2.404
    85   1 H        0.926     0.038     2.470     2.458
    86   1 H        0.926     0.048     2.351     2.398
    87   1 H        0.926     0.048     2.344     2.394
    88   1 H        0.926     0.048     2.349     2.397
    89   1 H        0.926     0.042     2.423     2.434
    90   1 H        0.926     0.049     2.332     2.388
    91   1 H        0.926     0.042     2.417     2.431

molecular dipole:
                 x           y           z       tot (Debye)
 q only:        4.595       1.299      -0.052
   full:        5.147       1.649      -0.081      13.738

 projected vibrational frequencies (cm⁻¹)
eigval :       -0.00    -0.00     0.00     0.00     0.00     0.00
eigval :        5.82    11.60    12.64    17.27    24.33    29.32
eigval :       34.41    35.90    40.00    41.42    49.98    51.15
eigval :       56.76    59.52    64.19    66.59    74.55    83.34
eigval :       99.26   104.33   107.12   113.41   130.21   133.93
eigval :      143.49   145.47   150.31   171.94   179.81   205.14
eigval :      206.50   207.80   231.58   240.72   246.21   248.81
eigval :      266.77   284.63   305.53   310.02   316.91   330.77
eigval :      347.22   366.07   366.50   368.12   375.42   378.16
eigval :      380.09   381.67   387.71   388.34   406.51   413.44
eigval :      419.71   423.95   447.50   453.09   461.26   472.67
eigval :      480.73   484.13   493.28   498.92   511.09   523.96
eigval :      533.72   534.78   543.17   548.32   567.14   568.17
eigval :      582.21   582.74   587.32   589.29   593.12   598.17
eigval :      604.92   609.38   616.14   630.94   638.10   642.48
eigval :      654.92   661.45   667.63   668.12   677.60   681.99
eigval :      687.86   692.49   695.41   701.98   704.05   721.73
eigval :      733.89   750.46   757.46   761.72   767.85   783.35
eigval :      807.47   811.07   815.08   816.02   834.65   838.98
eigval :      859.75   865.67   865.96   870.95   874.35   875.39
eigval :      875.76   878.10   884.06   892.36   894.87   901.85
eigval :      909.27   913.13   914.49   915.97   918.80   919.45
eigval :      923.08   923.98   926.16   927.24   927.68   928.85
eigval :      928.93   931.24   931.44   931.91   946.99   955.21
eigval :      981.83   995.87  1002.88  1004.19  1008.91  1026.71
eigval :     1039.09  1070.20  1078.33  1081.12  1081.60  1082.71
eigval :     1100.57  1114.04  1119.80  1121.81  1134.19  1134.88
eigval :     1139.04  1140.90  1158.39  1175.86  1177.80  1177.86
eigval :     1179.51  1184.20  1186.74  1187.33  1188.94  1192.86
eigval :     1194.30  1201.60  1214.21  1221.92  1232.31  1238.62
eigval :     1245.12  1263.54  1265.43  1267.34  1273.90  1276.61
eigval :     1277.59  1279.99  1289.88  1298.05  1301.81  1306.15
eigval :     1310.90  1312.54  1312.86  1314.96  1321.10  1323.98
eigval :     1327.81  1331.07  1334.61  1349.42  1374.53  1389.95
eigval :     1390.50  1406.28  1411.49  1413.69  1424.98  1431.32
eigval :     1434.15  1437.08  1440.45  1462.28  1469.23  1471.95
eigval :     1476.36  1481.80  1483.06  1491.78  1516.33  1534.54
eigval :     1542.62  1546.24  1548.97  1557.28  1566.33  1576.35
eigval :     1576.97  1580.10  1580.50  1581.85  1588.74  1591.01
eigval :     1591.36  1592.05  1598.33  1598.91  2358.47  2359.01
eigval :     3072.80  3073.48  3073.90  3074.52  3079.50  3080.15
eigval :     3080.21  3081.42  3081.76  3082.07  3082.79  3083.28
eigval :     3083.84  3084.85  3085.75  3085.88  3086.51  3087.15
eigval :     3087.56  3091.79  3092.09  3092.51  3094.68  3094.73
eigval :     3095.02  3095.44  3099.34  3099.82  3100.69  3101.50
eigval :     3101.59  3112.75  3118.03

   temp. (K)  partition function   enthalpy   heat capacity  entropy
                                   cal/mol     cal/K/mol   cal/K/mol   J/K/mol
 298.15  VIB  0.768E+23            27668.711    169.406    175.424
         ROT  0.215E+09              888.752      2.981     41.110
         INT  0.165E+32            28557.463    172.387    216.534
         TR   0.195E+29             1481.254      4.968     45.663
         TOT                       30038.7174   177.3547   262.1970  1097.0322

       T/K    H(0)-H(T)+PV         H(T)/Eh          T*S/Eh         G(T)/Eh
   ------------------------------------------------------------------------
    298.15    0.478697E-01    0.734316E+00    0.124578E+00    0.609738E+00
   ------------------------------------------------------------------------

         :::::::::::::::::::::::::::::::::::::::::::::::::::::
         ::                  THERMODYNAMIC                  ::
         :::::::::::::::::::::::::::::::::::::::::::::::::::::
         :: total free energy        -144.376399923779 Eh   ::
         ::.................................................::
         :: total energy             -144.986138125886 Eh   ::
         :: zero point energy           0.686446708387 Eh   ::
         :: G(RRHO) w/o ZPVE           -0.076708506280 Eh   ::
         :: G(RRHO) contrib.            0.609738202106 Eh   ::
         :::::::::::::::::::::::::::::::::::::::::::::::::::::

           -------------------------------------------------
          | TOTAL ENERGY             -144.986138125886 Eh   |
          | TOTAL ENTHALPY           -144.251821674330 Eh   |
          | TOTAL FREE ENERGY        -144.376399923779 Eh   |
          | GRADIENT NORM               0.000101648168 Eh/α |
          | HOMO-LUMO GAP               1.837325444710 eV   |
           -------------------------------------------------

 * finished run on 2025/07/20 at 03:58:17.709
