   * xtb version 6.7.1 (edcfbbe) compiled by 'albert@albert-system' on 2024-07-22

   ID    Z sym.   atoms
    1    7 N      1, 21, 29, 35, 50
    2    6 C      2-20, 22-28, 30-34, 36-49, 51-58
    3    1 H      59-91

          program call               : xtb data2507/toluene/TPM2CN/TPM2CN.xyz --gfn 2 --gbsa toluene --ohess vtight --parallel 40 --molden --ceasefiles --namespace data2507/toluene/TPM2CN/TPM2CN_toluene_S0_preOpt
      * Solvation model:               GBSA
        Solvent                        toluene
        Solvent mass                       9.2140E+01 g/mol
          :  Hamiltonian                  GFN2-xTB          :
 * total energy  :  -144.9573220 Eh     change       -0.3290722E-08 Eh
 * total energy  :  -144.9722711 Eh     change       -0.1494908E-01 Eh
 * total energy  :  -144.9774792 Eh     change       -0.5208120E-02 Eh
 * total energy  :  -144.9794914 Eh     change       -0.2012109E-02 Eh
 * total energy  :  -144.9806593 Eh     change       -0.1167967E-02 Eh
 * total energy  :  -144.9807881 Eh     change       -0.1287770E-03 Eh
 * total energy  :  -144.9813554 Eh     change       -0.5673436E-03 Eh
 * total energy  :  -144.9815540 Eh     change       -0.1985486E-03 Eh
 * total energy  :  -144.9819219 Eh     change       -0.3679484E-03 Eh
 * total energy  :  -144.9822356 Eh     change       -0.3136617E-03 Eh
 * total energy  :  -144.9855114 Eh     change       -0.8162277E-06 Eh
 * total energy  :  -144.9855123 Eh     change       -0.9188907E-06 Eh
 * total energy  :  -144.9855133 Eh     change       -0.1018533E-05 Eh
 * total energy  :  -144.9855144 Eh     change       -0.1107092E-05 Eh
 * total energy  :  -144.9855156 Eh     change       -0.1209062E-05 Eh
 * total energy  :  -144.9855169 Eh     change       -0.1316146E-05 Eh
 * total energy  :  -144.9855184 Eh     change       -0.1448833E-05 Eh
 * total energy  :  -144.9855200 Eh     change       -0.1582564E-05 Eh
 * total energy  :  -144.9855200 Eh     change       -0.3730804E-08 Eh
   *** GEOMETRY OPTIMIZATION CONVERGED AFTER 185 ITERATIONS ***

 final structure:
================
91
 xtb: 6.7.1 (edcfbbe)
N          -10.11183464253168       -7.03320914457385       -0.67826700868900
C           -9.16188783194040       -6.38792207938106       -0.65591759857706
C           -7.99478909835237       -5.59621143516381       -0.62724906842578
C           -7.86662333181252       -4.57092220789448        0.31299099226925
C           -6.72042118095498       -3.80523270238460        0.33938825730476
C           -5.67871347414974       -4.03983852572901       -0.56051170631622
C           -4.45271456110639       -3.23137425300345       -0.51293630529875
C           -3.19968050245350       -3.84138417227535       -0.67452872040450
C           -2.05768235480163       -3.08882661519866       -0.59426748546359
C           -2.12692624148354       -1.70995232935555       -0.36210927162275
C           -3.37673088050400       -1.06243159671288       -0.22370051861799
C           -4.52162993227612       -1.86570510840811       -0.29599697107629
C           -3.43499531470173        0.37643452966100       -0.02092813717598
C           -4.65549935474354        1.05815264521806        0.03231742927414
C           -4.73968775915251        2.43124946709813        0.18553483852366
C           -6.04721360670576        3.09804588181284        0.23223006842873
C           -6.24865386815787        4.31539063391681       -0.42136271442910
C           -7.47490142142137        4.94465925860610       -0.38521177089809
C           -8.53312371236072        4.36355843836328        0.31783336633344
C           -9.78897015411112        5.00460213541882        0.36132676890637
N          -10.81013805500729        5.52900925308068        0.39738528899528
C           -8.34311573075064        3.14775001275762        0.97913791622754
C           -7.11290507533529        2.52717311636260        0.93115346370538
C           -3.55554986231859        3.17330054847310        0.27877031980902
C           -2.34051620105085        2.54025241128487        0.24360192488271
C           -2.24530466544409        1.14643212432554        0.11027182720568
C           -1.01058830211335        0.44333343943859        0.05851195623174
C           -0.95221567061752       -0.92116247062305       -0.22712313879793
N            0.34101256065739       -1.33107043037109       -0.30619985602530
C            1.07188639743506       -0.26973219827645       -0.06036555066582
C            2.52421539827183       -0.29847114393343       -0.03516757447483
C            3.18709306561187       -1.13897801937900       -0.93275287453213
C            4.56128326373931       -1.21806400766944       -0.94504811079614
C            5.32280544687688       -0.46430070074429       -0.04728217430872
N            6.71445351486445       -0.53910592682829       -0.05685263492988
C            7.40333244168318       -0.68107201438806       -1.26997575859368
C            8.53513578545797       -1.49158178741317       -1.35116172152127
C            9.21727754399868       -1.61616148241101       -2.54650874887402
C            8.78013415153987       -0.94593204895431       -3.67776932755906
C            7.65325227506099       -0.14307917429985       -3.60334935095426
C            6.96973679353329       -0.00527503445453       -2.41042097837429
C            7.43127395163904       -0.48352099460661        1.14730576459269
C            8.64604596805273        0.19770896457640        1.21592910508389
C            9.35561463007638        0.23710461403791        2.40114788998841
C            8.86458458733044       -0.39085827505383        3.53456149401515
C            7.65502724527111       -1.06417622447167        3.47277876962383
C            6.94267510133292       -1.11678826554727        2.28991241989860
C            4.65983279909682        0.35829646088793        0.86647132115003
C            3.28373991463839        0.43832944585155        0.87343423594038
N            0.30088729765228        0.84699449623046        0.17468535898743
C            0.80299290549028        2.13428461591265        0.46734224233202
C            0.57317623034930        2.70379349970569        1.71643530506897
C            1.08889067690807        3.95484095753333        2.00266082556641
C            1.83561398636325        4.63466132964386        1.05319402233247
C            2.06750831404092        4.06289966649537       -0.18698797282422
C            1.55360941051012        2.81286409772913       -0.48491250001662
C           -5.81946047834074       -5.06643038408989       -1.49637626377773
C           -6.96161988028221       -5.83785699576033       -1.53614550245844
H           -8.66637889265000       -4.38948460515385        1.01641091810198
H           -6.61733780482329       -3.02928012380815        1.08309103542435
H           -3.13931817453874       -4.90837456191756       -0.82837068480730
H           -1.07989509645910       -3.53487382987628       -0.69308066374285
H           -5.50016611870451       -1.42363556588036       -0.19996278025376
H           -5.57642451047811        0.51118567066994       -0.08651971732823
H           -5.43977828094522        4.76079432703648       -0.98071891156523
H           -7.62745194544709        5.88329871046262       -0.89790030200900
H           -9.16253967054990        2.70467373583630        1.52635715598196
H           -6.96664379980470        1.59717264926961        1.45977218858132
H           -3.59903241922358        4.24523001749914        0.39961292100566
H           -1.43896168897233        3.12749039660168        0.30844791973594
H            2.59938311755479       -1.73253283322156       -1.61598666773120
H            5.05956954324115       -1.87171653904882       -1.64559264602641
H            8.87307904575891       -2.02229819168100       -0.47303301723902
H           10.09208065115003       -2.24812580447758       -2.59617374717897
H            9.31413483497067       -1.04805581461912       -4.61054093396396
H            7.30841472523124        0.38781970100834       -4.47878678748324
H            6.09738772415627        0.62939472551900       -2.35206309111388
H            9.02770298839107        0.69374444274135        0.33540738035300
H           10.29537298522854        0.76843022846172        2.44117489512851
H            9.42097441137535       -0.35692164476049        4.45919910966991
H            7.26716975047258       -1.56193808925420        4.34971582043160
H            6.00558249734948       -1.65237131642150        2.24133708225622
H            5.23428722826737        0.93703563471544        1.57448311758615
H            2.80053354516698        1.06925812358952        1.60346989124572
H           -0.00866909084289        2.16303862132822        2.44918351086920
H            0.90942701897274        4.39669244045522        2.97118842291698
H            2.23758046605040        5.60999101466526        1.28162881981659
H            2.64881234859690        4.59073730649336       -0.92772149609060
H            1.72901677127224        2.35651375202380       -1.44800311022065
H           -5.03043833849907       -5.24854239284738       -2.21041349069145
H           -7.06646733375383       -6.62884848043706       -2.26453599786946

          :  Hamiltonian                  GFN2-xTB          :
         :: gradient norm              0.000081502872 Eh/a0 ::
         :: HOMO-LUMO gap              1.836218472781 eV    ::
         :: SCC energy              -147.781121299967 Eh    ::
         :: -> dispersion             -0.129499116558 Eh    ::
         :: -> Gsolv                  -0.069680477122 Eh    ::
         :: repulsion energy           2.795601327335 Eh    ::

    * Orbital Energies and Occupations

         #    Occupation            Energy/Eh            Energy/eV
      -------------------------------------------------------------
         1        2.0000           -0.6928395             -18.8531
       ...           ...                  ...                  ...
       123        2.0000           -0.4204920             -11.4422
       124        2.0000           -0.4160809             -11.3221
       125        2.0000           -0.4148740             -11.2893
       126        2.0000           -0.4114459             -11.1960
       127        2.0000           -0.4100585             -11.1583
       128        2.0000           -0.4077362             -11.0951
       129        2.0000           -0.4074832             -11.0882
       130        2.0000           -0.4060948             -11.0504
       131        2.0000           -0.4013448             -10.9211
       132        2.0000           -0.3894407             -10.5972
       133        2.0000           -0.3837703             -10.4429
       134        2.0000           -0.3719212             -10.1205
       135        2.0000           -0.3525412              -9.5931 (HOMO)
       136                         -0.2850614              -7.7569 (LUMO)
       137                         -0.2788984              -7.5892
       138                         -0.2624523              -7.1417
       139                         -0.2553722              -6.9490
       140                         -0.2459033              -6.6914
       141                         -0.2428935              -6.6095
       142                         -0.2426649              -6.6032
       143                         -0.2423120              -6.5936
       144                         -0.2410206              -6.5585
       145                         -0.2328577              -6.3364
       146                         -0.2318110              -6.3079
       ...                                ...                  ...
       265                          1.1591497              31.5421
      -------------------------------------------------------------
                  HL-Gap            0.0674798 Eh            1.8362 eV

     #   Z          covCN         q      C6AA      α(0)
     1   7 N        0.911    -0.278    27.180     7.540
     2   6 C        1.912     0.118    28.197     8.576
     3   6 C        2.973     0.013    27.724     8.637
     4   6 C        2.924    -0.019    28.488     8.753
     5   6 C        2.923    -0.030    28.755     8.794
     6   6 C        2.976     0.023    27.495     8.601
     7   6 C        2.974     0.006    27.882     8.661
     8   6 C        2.921    -0.034    28.851     8.808
     9   6 C        2.919    -0.032    28.802     8.801
    10   6 C        2.985    -0.002    28.061     8.689
    11   6 C        2.977    -0.003    28.094     8.694
    12   6 C        2.927    -0.040    28.985     8.829
    13   6 C        2.978    -0.000    28.025     8.684
    14   6 C        2.928    -0.039    28.960     8.825
    15   6 C        2.974     0.006    27.882     8.661
    16   6 C        2.976     0.022    27.505     8.603
    17   6 C        2.923    -0.029    28.736     8.791
    18   6 C        2.924    -0.019    28.480     8.752
    19   6 C        2.973     0.013    27.714     8.635
    20   6 C        1.912     0.118    28.198     8.576
    21   7 N        0.911    -0.277    27.157     7.537
    22   6 C        2.924    -0.019    28.482     8.752
    23   6 C        2.923    -0.030    28.749     8.793
    24   6 C        2.921    -0.035    28.872     8.811
    25   6 C        2.917    -0.040    29.003     8.831
    26   6 C        2.978    -0.004    28.115     8.698
    27   6 C        3.072     0.022    27.448     8.590
    28   6 C        3.204     0.061    26.075     8.318
    29   7 N        1.894    -0.317    29.062     7.992
    30   6 C        3.189     0.138    24.562     8.084
    31   6 C        2.973    -0.011    28.295     8.725
    32   6 C        2.926    -0.029    28.716     8.788
    33   6 C        2.920    -0.047    29.162     8.856
    34   6 C        2.923     0.068    26.470     8.437
    35   7 N        2.752    -0.074    22.677     7.073
    36   6 C        2.924     0.064    26.558     8.451
    37   6 C        2.922    -0.047    29.164     8.856
    38   6 C        2.919    -0.029    28.736     8.791
    39   6 C        2.919    -0.038    28.948     8.823
    40   6 C        2.919    -0.030    28.741     8.791
    41   6 C        2.922    -0.048    29.183     8.859
    42   6 C        2.924     0.064    26.558     8.451
    43   6 C        2.922    -0.047    29.167     8.856
    44   6 C        2.919    -0.030    28.740     8.791
    45   6 C        2.919    -0.038    28.948     8.823
    46   6 C        2.919    -0.030    28.741     8.791
    47   6 C        2.922    -0.047    29.179     8.858
    48   6 C        2.921    -0.049    29.210     8.863
    49   6 C        2.921    -0.035    28.877     8.812
    50   7 N        2.840    -0.053    22.252     7.006
    51   6 C        2.912     0.066    26.527     8.446
    52   6 C        2.921    -0.037    28.925     8.820
    53   6 C        2.920    -0.026    28.650     8.778
    54   6 C        2.919    -0.028    28.703     8.786
    55   6 C        2.920    -0.025    28.619     8.773
    56   6 C        2.921    -0.038    28.939     8.822
    57   6 C        2.923    -0.029    28.734     8.791
    58   6 C        2.924    -0.019    28.481     8.752
    59   1 H        0.926     0.042     2.421     2.433
    60   1 H        0.926     0.048     2.344     2.394
    61   1 H        0.926     0.039     2.463     2.454
    62   1 H        0.926     0.048     2.340     2.392
    63   1 H        0.926     0.042     2.427     2.436
    64   1 H        0.926     0.044     2.402     2.423
    65   1 H        0.926     0.049     2.337     2.391
    66   1 H        0.926     0.042     2.416     2.431
    67   1 H        0.926     0.042     2.416     2.431
    68   1 H        0.926     0.048     2.339     2.392
    69   1 H        0.926     0.038     2.472     2.459
    70   1 H        0.926     0.034     2.526     2.485
    71   1 H        0.926     0.047     2.358     2.401
    72   1 H        0.926     0.041     2.442     2.444
    73   1 H        0.926     0.033     2.541     2.493
    74   1 H        0.926     0.035     2.517     2.481
    75   1 H        0.926     0.033     2.538     2.491
    76   1 H        0.926     0.035     2.518     2.482
    77   1 H        0.926     0.032     2.557     2.501
    78   1 H        0.926     0.034     2.534     2.490
    79   1 H        0.926     0.035     2.513     2.479
    80   1 H        0.926     0.034     2.537     2.491
    81   1 H        0.926     0.035     2.523     2.484
    82   1 H        0.926     0.032     2.558     2.501
    83   1 H        0.926     0.038     2.469     2.457
    84   1 H        0.926     0.032     2.561     2.503
    85   1 H        0.926     0.042     2.420     2.433
    86   1 H        0.926     0.048     2.347     2.395
    87   1 H        0.926     0.048     2.345     2.395
    88   1 H        0.926     0.048     2.349     2.397
    89   1 H        0.926     0.039     2.465     2.455
    90   1 H        0.926     0.049     2.332     2.388
    91   1 H        0.926     0.042     2.418     2.432

molecular dipole:
                 x           y           z       tot (Debye)
 q only:        4.487       1.435       0.241
   full:        5.029       1.798       0.313      13.599

 projected vibrational frequencies (cm⁻¹)
eigval :       -0.00    -0.00    -0.00    -0.00     0.00     0.00
eigval :        7.18    10.28    12.63    17.96    21.60    26.41
eigval :       29.84    35.53    37.90    43.34    47.49    54.18
eigval :       55.60    58.87    62.20    66.55    76.04    88.43
eigval :       90.09   105.07   108.22   118.45   127.66   131.85
eigval :      139.74   146.51   152.16   170.56   182.04   198.21
eigval :      203.98   208.23   233.84   239.01   242.10   253.57
eigval :      273.72   283.58   303.90   309.20   310.69   335.14
eigval :      351.60   363.19   365.03   365.42   373.42   375.31
eigval :      378.86   381.25   387.14   395.75   400.36   411.60
eigval :      419.17   430.03   449.91   450.38   463.51   469.08
eigval :      480.34   485.18   491.44   499.37   510.62   525.42
eigval :      533.40   534.18   542.36   546.17   566.39   568.75
eigval :      582.36   582.74   587.60   589.62   593.58   597.07
eigval :      604.71   610.48   616.20   629.39   638.18   643.36
eigval :      653.90   660.82   667.46   668.03   677.67   682.00
eigval :      686.40   694.97   696.41   699.05   705.05   721.62
eigval :      735.50   750.36   757.07   761.51   768.16   783.84
eigval :      805.53   808.63   814.59   816.96   832.33   837.84
eigval :      857.13   864.15   867.21   868.05   873.99   874.92
eigval :      875.19   875.71   883.96   891.99   894.79   903.13
eigval :      909.24   913.20   913.72   914.64   916.60   917.97
eigval :      921.32   925.17   926.12   926.99   927.59   928.57
eigval :      928.62   929.93   930.56   932.98   947.05   955.15
eigval :      981.88   995.63  1002.86  1004.12  1008.52  1027.08
eigval :     1038.87  1070.04  1077.61  1080.51  1081.83  1082.92
eigval :     1100.09  1113.78  1120.64  1123.12  1131.87  1134.79
eigval :     1137.57  1140.43  1157.04  1177.16  1178.24  1179.39
eigval :     1180.83  1184.02  1184.94  1187.09  1188.13  1194.03
eigval :     1194.98  1200.72  1214.98  1221.51  1232.21  1238.64
eigval :     1244.18  1263.58  1265.42  1267.83  1272.84  1276.91
eigval :     1277.49  1279.98  1289.49  1297.77  1301.87  1306.91
eigval :     1310.63  1312.43  1312.71  1315.16  1320.96  1324.01
eigval :     1327.55  1330.83  1334.38  1349.71  1374.74  1389.94
eigval :     1390.55  1406.26  1411.28  1412.91  1424.83  1430.97
eigval :     1434.17  1436.53  1440.58  1461.79  1469.39  1472.07
eigval :     1476.09  1481.71  1483.06  1491.65  1516.17  1534.35
eigval :     1542.28  1546.13  1548.95  1557.45  1566.34  1576.19
eigval :     1576.89  1579.99  1580.41  1581.70  1589.42  1591.00
eigval :     1591.12  1592.03  1598.34  1599.14  2358.18  2358.78
eigval :     3072.39  3073.28  3073.75  3074.48  3078.93  3079.35
eigval :     3080.39  3081.34  3081.79  3082.32  3082.53  3082.77
eigval :     3083.32  3084.52  3085.38  3086.01  3086.16  3086.59
eigval :     3088.25  3091.79  3092.53  3092.79  3094.45  3094.47
eigval :     3094.86  3095.04  3097.40  3099.26  3100.19  3101.65
eigval :     3102.03  3112.37  3118.48

   temp. (K)  partition function   enthalpy   heat capacity  entropy
                                   cal/mol     cal/K/mol   cal/K/mol   J/K/mol
 298.15  VIB  0.104E+24            27702.706    169.312    175.629
         ROT  0.217E+09              888.752      2.981     41.124
         INT  0.226E+32            28591.459    172.292    216.753
         TR   0.195E+29             1481.254      4.968     45.663
         TOT                       30072.7127   177.2606   262.4155  1097.9467

       T/K    H(0)-H(T)+PV         H(T)/Eh          T*S/Eh         G(T)/Eh
   ------------------------------------------------------------------------
    298.15    0.479239E-01    0.734212E+00    0.124682E+00    0.609530E+00
   ------------------------------------------------------------------------

         :::::::::::::::::::::::::::::::::::::::::::::::::::::
         ::                  THERMODYNAMIC                  ::
         :::::::::::::::::::::::::::::::::::::::::::::::::::::
         :: total free energy        -144.375989918253 Eh   ::
         ::.................................................::
         :: total energy             -144.985519968040 Eh   ::
         :: zero point energy           0.686288226487 Eh   ::
         :: G(RRHO) w/o ZPVE           -0.076758176701 Eh   ::
         :: G(RRHO) contrib.            0.609530049786 Eh   ::
         :::::::::::::::::::::::::::::::::::::::::::::::::::::

           -------------------------------------------------
          | TOTAL ENERGY             -144.985519968040 Eh   |
          | TOTAL ENTHALPY           -144.251307823412 Eh   |
          | TOTAL FREE ENERGY        -144.375989918253 Eh   |
          | GRADIENT NORM               0.000081459866 Eh/α |
          | HOMO-LUMO GAP               1.836218450521 eV   |
           -------------------------------------------------

 * finished run on 2025/07/20 at 03:49:38.291
