   * xtb version 6.7.1 (edcfbbe) compiled by 'albert@albert-system' on 2024-07-22

   ID    Z sym.   atoms
    1    9 F      1, 52
    2    6 C      2-4, 6-10, 12-17, 19-31, 33-38, 40-47, 49-51
    3    7 N      5, 11, 32, 48
    4    8 O      18, 39
    5    1 H      53-78

          program call               : xtb data2507/gas/DFDBQPXZ/DFDBQPXZ_gas_T1_crest.xyz --gfn 2 --spinpol --tblite --uhf 2 --ohess vtight --parallel 40 --molden --ceasefiles --namespace data2507/gas/DFDBQPXZ/DFDBQPXZ_gas_T1_finalOpt
 * total energy  :  -136.7833927 Eh     change       -0.3735659E-07 Eh
 * total energy  :  -136.7834176 Eh     change       -0.2486101E-04 Eh
 * total energy  :  -136.7834242 Eh     change       -0.6678325E-05 Eh
 * total energy  :  -136.7834266 Eh     change       -0.2408611E-05 Eh
 * total energy  :  -136.7834303 Eh     change       -0.3622296E-05 Eh
 * total energy  :  -136.7834341 Eh     change       -0.3787098E-05 Eh
 * total energy  :  -136.7834377 Eh     change       -0.3609731E-05 Eh
 * total energy  :  -136.7834400 Eh     change       -0.2314941E-05 Eh
 * total energy  :  -136.7834414 Eh     change       -0.1382601E-05 Eh
 * total energy  :  -136.7834424 Eh     change       -0.1049068E-05 Eh
 * total energy  :  -136.7834510 Eh     change       -0.4510040E-06 Eh
 * total energy  :  -136.7834512 Eh     change       -0.1553785E-06 Eh
 * total energy  :  -136.7834513 Eh     change       -0.1535417E-06 Eh
 * total energy  :  -136.7834518 Eh     change       -0.4380181E-06 Eh
 * total energy  :  -136.7834519 Eh     change       -0.1142540E-06 Eh
 * total energy  :  -136.7834520 Eh     change       -0.1418673E-06 Eh
 * total energy  :  -136.7834522 Eh     change       -0.1959682E-06 Eh
 * total energy  :  -136.7834522 Eh     change        0.3402278E-08 Eh
 * total energy  :  -136.7834522 Eh     change       -0.8058009E-08 Eh
   *** GEOMETRY OPTIMIZATION CONVERGED AFTER 45 ITERATIONS ***

 final structure:
================
78
 xtb: 6.7.1 (edcfbbe)
F           -9.03273805631830       -1.35377795620533       -0.24959109323396
C           -7.86963038961827       -0.68375330907435       -0.12502438928788
C           -6.67627844947128       -1.37999496410930       -0.24966504815755
C           -5.46207016132710       -0.71433110756148       -0.12316355488476
N           -4.29062295060505       -1.35437193439908       -0.19403697638275
C           -3.13757710132469       -0.70297973085974       -0.07107769735160
C           -1.89468381773402       -1.47129893898221       -0.05938845116618
C           -0.88415234459740       -1.18358925744844        0.86224404901549
C            0.31674551371501       -1.85559933642100        0.81327302426513
C            0.53039530731632       -2.83587033705988       -0.15253893525656
N            1.79745442028831       -3.46093505464815       -0.23880116267402
C            1.96531303565461       -4.80100581014520        0.09631664791794
C            0.90136600454851       -5.60709668675178        0.48512802440711
C            1.10665841061082       -6.93807985771581        0.80923229111070
C            2.37559062682220       -7.48325418898912        0.75823199914897
C            3.45087887096309       -6.68667799656885        0.39583528799494
C            3.25386035322044       -5.35625282496411        0.07324732052259
O            4.36481874916678       -4.61836552027201       -0.24656448697451
C            4.17797857093102       -3.30806464962797       -0.59970636744202
C            5.29940890089026       -2.58062734575782       -0.95604471764849
C            5.17667091999590       -1.25806657407609       -1.35317856574027
C            3.92602701784321       -0.67359216431399       -1.40817928203526
C            2.79953970420577       -1.39339508648583       -1.04608484939320
C            2.90810501596833       -2.71149979650124       -0.61603131690085
C           -0.49369455943850       -3.17602798297484       -1.02981146428941
C           -1.69860495560223       -2.50412659390713       -0.97612363680249
C           -3.13756399123023        0.69949128720214        0.06671232805592
C           -1.89518287557990        1.46834091394391        0.05440977672496
C           -1.70167922718081        2.50451332778701        0.96806352263090
C           -0.49734964594576        3.17736866954603        1.02200453016273
C            0.52887842109744        2.83453070915780        0.14834409374626
N            1.79573937803721        3.46023812008523        0.23587719102074
C            1.96559351902926        4.79687158141139       -0.11117402198974
C            0.90375197711816        5.59878908404085       -0.51399467979426
C            1.11090090674272        6.92646614864796       -0.85031036245830
C            2.37952483308046        7.47217071768804       -0.79745950562842
C            3.45275302412304        6.67956496080923       -0.42037708232673
C            3.25389751666553        5.35248643038776       -0.08549431679283
O            4.36276309707323        4.61797940097504        0.24925631932030
C            4.17369237101587        3.31103048511261        0.61371885677897
C            5.29269615614890        2.58714555048347        0.98450767515905
C            5.16734597491830        1.26811641201482        1.39257458366577
C            3.91653814374193        0.68365052658946        1.44356123834416
C            2.79240274299744        1.39998980904927        1.06746441461934
C            2.90382485321119        2.71439584071554        0.62703655948319
C            0.31791012903777        1.85122063779885       -0.81484717396623
C           -0.88264303288891        1.17860705057879       -0.86444088724317
N           -4.29091751403932        1.35049833656809        0.19135271936379
C           -5.46212831913472        0.71002640387209        0.12225865949457
C           -6.67646791340455        1.37510198845028        0.25115069792401
C           -7.86969387461514        0.67826296177396        0.12885313434138
F           -9.03287246551708        1.34770388379362        0.25577562509580
H           -6.68897823963910       -2.44114951139471       -0.43383159429934
H           -1.04900302268160       -0.43429257855477        1.62169084215445
H            1.10250985041626       -1.62773779295209        1.51862238894640
H           -0.08999394885286       -5.18605594424973        0.54101113911961
H            0.26487429658602       -7.54456083011640        1.10501803730257
H            2.53739040253783       -8.51997796852896        1.00675356279256
H            4.45506849632406       -7.07770100095925        0.36289897108227
H            6.25898764782992       -3.07086615338595       -0.92053017916663
H            6.05547126877593       -0.69609795791957       -1.62563659266183
H            3.82013794526986        0.34965731919398       -1.73310058929962
H            1.82566770267631       -0.93265991661375       -1.09570807211511
H           -0.33218838351703       -3.95247388127109       -1.76303974874659
H           -2.49211596206928       -2.75107656945458       -1.66429394206619
H           -2.49690754511546        2.75330144998787        1.65356306148792
H           -0.33789218218826        3.95674854482171        1.75255880959464
H           -0.08721889610694        5.17692983025092       -0.57095131188285
H            0.27086116895978        7.52991010693401       -1.15705701857259
H            2.54274934691608        8.50630567077771       -1.05564650197468
H            4.45662600384380        7.07120087493240       -0.38521136565209
H            6.25244821408161        3.07721089029540        0.95136067175018
H            6.04432571870662        0.70891977089493        1.67636599659308
H            3.80864263240578       -0.33687487505325        1.77630047096246
H            1.81825694435221        0.93948428656344        1.11396818232366
H            1.10535768194216        1.62154197899302       -1.51773480448394
H           -1.04553795830108        0.42728816946185       -1.62227962406654
H           -6.68937037665293        2.43624077928807        0.43538085688771

 projected vibrational frequencies (cm⁻¹)
eigval :       -0.00    -0.00    -0.00     0.00     0.00     0.00
eigval :       10.69    10.76    19.82    24.76    25.68    32.98
eigval :       42.94    43.16    51.76    53.71    65.79    75.31
eigval :       76.31    86.50   110.78   114.64   122.68   124.22
eigval :      130.96   143.78   182.19   189.23   199.39   202.63
eigval :      236.92   241.50   242.70   245.37   251.43   251.74
eigval :      260.11   276.90   277.38   294.19   314.46   337.20
eigval :      347.78   365.00   374.08   378.57   382.68   387.03
eigval :      393.79   401.75   408.26   412.30   415.30   425.41
eigval :      428.61   430.29   435.39   449.84   450.10   460.78
eigval :      486.30   506.45   506.73   506.95   514.93   521.34
eigval :      524.10   525.90   548.47   562.10   565.99   576.15
eigval :      583.78   588.16   589.12   596.65   605.28   617.27
eigval :      617.96   634.83   648.04   662.69   662.89   664.42
eigval :      664.77   669.38   675.82   683.43   692.45   698.54
eigval :      729.97   730.99   758.21   776.13   777.70   778.85
eigval :      778.93   800.97   801.97   803.97   808.28   815.55
eigval :      817.98   855.09   855.65   861.42   864.76   865.10
eigval :      867.08   870.61   871.35   877.07   897.05   897.81
eigval :      898.24   899.68   899.75   913.49   913.69   914.69
eigval :      915.33   916.66   917.19   918.62   921.42   921.58
eigval :      927.47   928.07   958.74  1009.71  1024.77  1087.65
eigval :     1087.72  1089.47  1089.74  1099.38  1103.32  1110.46
eigval :     1110.65  1120.92  1122.20  1130.10  1131.06  1168.96
eigval :     1170.95  1175.17  1175.42  1176.29  1177.26  1181.35
eigval :     1182.03  1189.12  1192.76  1204.04  1204.34  1216.97
eigval :     1223.85  1229.30  1240.83  1241.26  1254.29  1258.33
eigval :     1259.80  1260.44  1262.23  1269.18  1299.34  1304.63
eigval :     1311.89  1312.26  1313.02  1313.95  1317.10  1318.46
eigval :     1332.71  1334.89  1347.45  1351.94  1382.04  1397.35
eigval :     1404.85  1405.20  1415.19  1422.98  1423.13  1443.00
eigval :     1443.12  1467.73  1468.16  1470.91  1476.49  1486.57
eigval :     1488.40  1494.43  1535.95  1538.87  1546.27  1547.44
eigval :     1563.81  1564.04  1573.36  1573.38  1580.81  1583.03
eigval :     1584.01  1585.33  1594.58  1596.05  3080.96  3081.72
eigval :     3086.01  3086.12  3092.16  3092.49  3094.18  3094.20
eigval :     3094.44  3094.72  3102.60  3102.94  3102.98  3103.39
eigval :     3103.59  3104.07  3107.84  3109.43  3109.53  3109.91
eigval :     3115.07  3115.29  3115.33  3115.89  3123.79  3123.91

   temp. (K)  partition function   enthalpy   heat capacity  entropy
                                   cal/mol     cal/K/mol   cal/K/mol   J/K/mol
 298.15  VIB  0.139E+19            23691.948    150.594    146.094
         ROT  0.570E+08              888.752      2.981     38.471
         INT  0.794E+26            24580.700    153.575    184.565
         TR   0.172E+29             1481.254      4.968     45.414
         TOT                       26061.9539   158.5430   229.9793   962.2335

       T/K    H(0)-H(T)+PV         H(T)/Eh          T*S/Eh         G(T)/Eh
   ------------------------------------------------------------------------
    298.15    0.415324E-01    0.608690E+00    0.109271E+00    0.499420E+00
   ------------------------------------------------------------------------

         :::::::::::::::::::::::::::::::::::::::::::::::::::::
         ::                  THERMODYNAMIC                  ::
         :::::::::::::::::::::::::::::::::::::::::::::::::::::
         :: total free energy        -136.284032618262 Eh   ::
         ::.................................................::
         :: total energy             -136.783452229026 Eh   ::
         :: zero point energy           0.567157838309 Eh   ::
         :: G(RRHO) w/o ZPVE           -0.067738227546 Eh   ::
         :: G(RRHO) contrib.            0.499419610764 Eh   ::
         :::::::::::::::::::::::::::::::::::::::::::::::::::::

           -------------------------------------------------
          | TOTAL ENERGY             -136.783452229026 Eh   |
          | TOTAL ENTHALPY           -136.174762023514 Eh   |
          | TOTAL FREE ENERGY        -136.284032618262 Eh   |
          | GRADIENT NORM               0.000149629680 Eh/α |
           -------------------------------------------------

 * finished run on 2025/09/13 at 22:31:26.553
