   * xtb version 6.7.1 (edcfbbe) compiled by 'albert@albert-system' on 2024-07-22

   ID    Z sym.   atoms
    1    9 F      1, 52
    2    6 C      2-4, 6-10, 12-17, 19-31, 33-38, 40-47, 49-51
    3    7 N      5, 11, 32, 48
    4    8 O      18, 39
    5    1 H      53-78

          program call               : xtb data2507/gas/DFDBQPXZ/DFDBQPXZ.xyz --gfn 2 --ohess vtight --parallel 40 --molden --ceasefiles --namespace data2507/gas/DFDBQPXZ/DFDBQPXZ_gas_S0_preOpt
          :  Hamiltonian                  GFN2-xTB          :
 * total energy  :  -136.8030780 Eh     change       -0.6557769E-08 Eh
 * total energy  :  -136.8178185 Eh     change       -0.1474048E-01 Eh
 * total energy  :  -136.8232507 Eh     change       -0.5432280E-02 Eh
 * total energy  :  -136.8250149 Eh     change       -0.1764191E-02 Eh
 * total energy  :  -136.8266011 Eh     change       -0.1586125E-02 Eh
 * total energy  :  -136.8274256 Eh     change       -0.8245797E-03 Eh
 * total energy  :  -136.8280222 Eh     change       -0.5965928E-03 Eh
 * total energy  :  -136.8286470 Eh     change       -0.6247908E-03 Eh
 * total energy  :  -136.8293381 Eh     change       -0.6910714E-03 Eh
 * total energy  :  -136.8299215 Eh     change       -0.5833781E-03 Eh
 * total energy  :  -136.8311272 Eh     change       -0.6665851E-06 Eh
 * total energy  :  -136.8311279 Eh     change       -0.7541671E-06 Eh
 * total energy  :  -136.8311288 Eh     change       -0.8507005E-06 Eh
 * total energy  :  -136.8311297 Eh     change       -0.9076029E-06 Eh
 * total energy  :  -136.8311306 Eh     change       -0.8955778E-06 Eh
 * total energy  :  -136.8311314 Eh     change       -0.8343796E-06 Eh
 * total energy  :  -136.8311322 Eh     change       -0.7732460E-06 Eh
 * total energy  :  -136.8311329 Eh     change       -0.7386789E-06 Eh
 * total energy  :  -136.8311329 Eh     change       -0.4962061E-08 Eh
   *** GEOMETRY OPTIMIZATION CONVERGED AFTER 68 ITERATIONS ***

 final structure:
================
78
 xtb: 6.7.1 (edcfbbe)
F           -1.31237240774537        9.42153110523577       -0.33292588566883
C           -0.68532260689695        8.24638191552039       -0.17239001361671
C           -1.37200350366232        7.07663481829326       -0.33626587962848
C           -0.69515308213291        5.85591623553148       -0.15608820145460
N           -1.37224783992155        4.69547035506088       -0.22807311103110
C           -0.71565886276228        3.57160110405054       -0.07112599097358
C           -1.49537404390941        2.33191471214670       -0.04269205256641
C           -1.18991407366439        1.30324262117528        0.84976580509445
C           -1.88853457905648        0.11633211333689        0.80744545996654
C           -2.90824265812894       -0.06702517167298       -0.12481440214633
N           -3.56872830624433       -1.30833960810981       -0.20044049326917
C           -4.93274956861365       -1.42073467023799        0.07989428309269
C           -5.70739082817608       -0.32931167002046        0.45081578423421
C           -7.05822250120919       -0.47924844227767        0.72602840683235
C           -7.65336519509965       -1.72161334181686        0.64476367035441
C           -6.88622925789502       -2.82653757757218        0.30580364052943
C           -5.53842436011008       -2.68363322021463        0.03417661470568
O           -4.83724615564625       -3.82805749027443       -0.25647668108079
C           -3.50887699842349       -3.69413857693707       -0.57394904255897
C           -2.82631935282690       -4.84395827193254       -0.92540577911993
C           -1.49109354382265       -4.78032014128690       -1.29592855464099
C           -0.85167549475053       -3.55820534319904       -1.33161941470044
C           -1.52920596995823       -2.40304834242636       -0.97204158064354
C           -2.85641958731246       -2.45434828477639       -0.56499432584530
C           -3.25319391204462        0.97719512286115       -0.97895879886247
C           -2.55709010195176        2.16753598024953       -0.93025168915588
C            0.71468244354461        3.57176140671276        0.07095993837062
C            1.49469460510517        2.33226244908601        0.04250745895579
C            2.55645918533446        2.16816091835177        0.93006173869471
C            3.25287374643338        0.97800381044096        0.97876772156326
C            2.90818876070728       -0.06630935507142        0.12462902702019
N            3.56901125131389       -1.30744518636238        0.20024869646760
C            4.93308473676815       -1.41944933784289       -0.07998780973206
C            5.70742752599608       -0.32781650986883       -0.45091510262723
C            7.05832236528074       -0.47736774625653       -0.72602757515241
C            7.65382605956195       -1.71955297306153       -0.64466030371731
C            6.88699387389265       -2.82468655847882       -0.30569651505023
C            5.53912809247890       -2.68216754437871       -0.03417002868160
O            4.83826258417173       -3.82678523450237        0.25647845447235
C            3.50987167056638       -3.69322081614491        0.57401008738440
C            2.82766597010733       -4.84320277222908        0.92561754304587
C            1.49243584696273       -4.77991556995568        1.29618685466176
C            0.85266344727531       -3.55798358310161        1.33178168955981
C            1.52984178429213       -2.40266503796418        0.97205730175505
C            2.85705317600924       -2.45362116888261        0.56496009380009
C            1.88841898661261        0.11677405839761       -0.80761640036601
C            1.18948939164381        1.30350442549869       -0.84993806449123
N            1.37101192860878        4.69577486958083        0.22796205025148
C            0.69364834900229        5.85606732686858        0.15604970474152
C            1.37021535316694        7.07692857648177        0.33632428213116
C            0.68326024332666        8.24652856056965        0.17255058184497
F            1.31003272091736        9.42181105403775        0.33319332608708
H           -2.42015262607021        7.07661489269497       -0.58652777910451
H           -0.41519166033339        1.44209188834170        1.58903947162658
H           -1.64974724496196       -0.68318725231635        1.49305605949982
H           -5.25060615941930        0.64413381840374        0.53646383208288
H           -7.63721696736342        0.38653793381809        1.00811620814168
H           -8.70449659719960       -1.84272533599605        0.85329396420689
H           -7.31551856802552       -3.81425649086801        0.25401586262280
H           -3.36126822401662       -5.77998894923304       -0.90840016103347
H           -0.96484373580340       -5.68235415699318       -1.56419571838007
H            0.18096765305666       -3.49320326781729       -1.63698608930371
H           -1.02166088851673       -1.45180093000493       -1.01045474854637
H           -4.05359684324796        0.84017379216183       -1.69071287886778
H           -2.80503826148106        2.97676049500607       -1.59942077959433
H            2.80420218216150        2.97745413873291        1.59922341489911
H            4.05331539910881        0.84119225941119        1.69051861750713
H            5.25036105811271        0.64548936498957       -0.53664722559320
H            7.63708170981193        0.38857737635223       -1.00811076430740
H            8.70501212953781       -1.84036079849045       -0.85309262944972
H            7.31657347066831       -3.81227501023521       -0.25382132515360
H            3.36289380995416       -5.77907564089101        0.90871210738239
H            0.96647354744845       -5.68207100912226        1.56461004530811
H           -0.17998392723957       -3.49324915069143        1.63719249195828
H            1.02201628790189       -1.45156333323219        1.01037499541529
H            1.64983069195890       -0.68281284082900       -1.49321746856537
H            0.41472435695504        1.44214748182248       -1.58920588931025
H            2.41836409988759        7.07713073232729        0.58658786772215

          :  Hamiltonian                  GFN2-xTB          :
         :: gradient norm              0.000058410606 Eh/a0 ::
         :: HOMO-LUMO gap              0.872537135685 eV    ::
         :: SCC energy              -139.063500350379 Eh    ::
         :: -> dispersion             -0.118834323804 Eh    ::
         :: repulsion energy           2.232367436599 Eh    ::

    * Orbital Energies and Occupations

         #    Occupation            Energy/Eh            Energy/eV
      -------------------------------------------------------------
         1        2.0000           -0.8374078             -22.7870
       ...           ...                  ...                  ...
       112        2.0000           -0.4266869             -11.6107
       113        2.0000           -0.4245596             -11.5529
       114        2.0000           -0.4207967             -11.4505
       115        2.0000           -0.4202588             -11.4358
       116        2.0000           -0.4171611             -11.3515
       117        2.0000           -0.4161721             -11.3246
       118        2.0000           -0.4151300             -11.2963
       119        2.0000           -0.4079606             -11.1012
       120        2.0000           -0.3944374             -10.7332
       121        2.0000           -0.3919002             -10.6641
       122        2.0000           -0.3718601             -10.1188
       123        2.0000           -0.3475078              -9.4562
       124        2.0000           -0.3462238              -9.4212 (HOMO)
       125        0.0000           -0.3141587              -8.5487 (LUMO)
       126                         -0.2851774              -7.7601
       127                         -0.2516740              -6.8484
       128                         -0.2495105              -6.7895
       129                         -0.2432761              -6.6199
       130                         -0.2426400              -6.6026
       131                         -0.2421389              -6.5889
       132                         -0.2400643              -6.5325
       133                         -0.2334075              -6.3513
       134                         -0.2333360              -6.3494
       135                         -0.2319822              -6.3126
       ...                                ...                  ...
       234                          0.6732563              18.3202
      -------------------------------------------------------------
                  HL-Gap            0.0320652 Eh            0.8725 eV

     #   Z          covCN         q      C6AA      α(0)
     1   9 F        0.787    -0.194    11.171     3.948
     2   6 C        2.777     0.158    24.578     8.120
     3   6 C        2.917    -0.062    29.553     8.915
     4   6 C        2.967     0.076    26.307     8.413
     5   7 N        1.851    -0.222    26.699     7.658
     6   6 C        2.952     0.089    26.030     8.368
     7   6 C        2.981     0.005    27.917     8.667
     8   6 C        2.922    -0.029    28.733     8.790
     9   6 C        2.921    -0.039    28.978     8.828
    10   6 C        2.922     0.069    26.450     8.434
    11   7 N        2.752    -0.070    22.600     7.061
    12   6 C        2.921     0.042    27.056     8.530
    13   6 C        2.923    -0.060    29.497     8.906
    14   6 C        2.919    -0.038    28.952     8.824
    15   6 C        2.919    -0.040    28.988     8.829
    16   6 C        2.920    -0.056    29.386     8.889
    17   6 C        2.884     0.125    25.264     8.240
    18   8 O        1.709    -0.254    18.210     5.762
    19   6 C        2.883     0.125    25.258     8.239
    20   6 C        2.920    -0.056    29.389     8.890
    21   6 C        2.919    -0.039    28.973     8.827
    22   6 C        2.919    -0.036    28.894     8.815
    23   6 C        2.924    -0.059    29.460     8.901
    24   6 C        2.924     0.042    27.064     8.531
    25   6 C        2.920    -0.040    28.986     8.829
    26   6 C        2.924    -0.026    28.646     8.777
    27   6 C        2.952     0.089    26.030     8.368
    28   6 C        2.981     0.005    27.917     8.667
    29   6 C        2.924    -0.026    28.646     8.777
    30   6 C        2.920    -0.040    28.986     8.829
    31   6 C        2.922     0.069    26.450     8.434
    32   7 N        2.752    -0.070    22.600     7.061
    33   6 C        2.921     0.042    27.056     8.530
    34   6 C        2.923    -0.060    29.497     8.906
    35   6 C        2.919    -0.038    28.952     8.824
    36   6 C        2.919    -0.040    28.988     8.829
    37   6 C        2.920    -0.056    29.386     8.889
    38   6 C        2.884     0.125    25.264     8.240
    39   8 O        1.709    -0.254    18.210     5.762
    40   6 C        2.883     0.125    25.258     8.239
    41   6 C        2.920    -0.056    29.389     8.890
    42   6 C        2.919    -0.039    28.973     8.827
    43   6 C        2.919    -0.036    28.894     8.815
    44   6 C        2.924    -0.059    29.460     8.901
    45   6 C        2.924     0.042    27.064     8.531
    46   6 C        2.921    -0.039    28.978     8.828
    47   6 C        2.922    -0.029    28.733     8.790
    48   7 N        1.851    -0.222    26.699     7.658
    49   6 C        2.967     0.076    26.307     8.413
    50   6 C        2.917    -0.062    29.553     8.915
    51   6 C        2.777     0.158    24.578     8.120
    52   9 F        0.787    -0.194    11.171     3.948
    53   1 H        0.926     0.089     1.892     2.151
    54   1 H        0.926     0.036     2.506     2.475
    55   1 H        0.926     0.045     2.387     2.416
    56   1 H        0.926     0.036     2.505     2.475
    57   1 H        0.926     0.037     2.485     2.465
    58   1 H        0.926     0.039     2.459     2.452
    59   1 H        0.926     0.051     2.304     2.373
    60   1 H        0.926     0.052     2.296     2.370
    61   1 H        0.926     0.039     2.456     2.451
    62   1 H        0.926     0.033     2.549     2.497
    63   1 H        0.926     0.031     2.579     2.511
    64   1 H        0.926     0.049     2.335     2.389
    65   1 H        0.926     0.056     2.250     2.345
    66   1 H        0.926     0.056     2.250     2.345
    67   1 H        0.926     0.049     2.335     2.389
    68   1 H        0.926     0.036     2.505     2.475
    69   1 H        0.926     0.037     2.485     2.465
    70   1 H        0.926     0.039     2.459     2.452
    71   1 H        0.926     0.051     2.304     2.373
    72   1 H        0.926     0.052     2.296     2.370
    73   1 H        0.926     0.039     2.456     2.451
    74   1 H        0.926     0.033     2.549     2.497
    75   1 H        0.926     0.031     2.579     2.511
    76   1 H        0.926     0.045     2.387     2.416
    77   1 H        0.926     0.036     2.506     2.475
    78   1 H        0.926     0.089     1.892     2.151

molecular dipole:
                 x           y           z       tot (Debye)
 q only:        0.000      -1.306      -0.000
   full:        0.000      -1.103       0.000       2.804

 projected vibrational frequencies (cm⁻¹)
eigval :       -0.00    -0.00     0.00     0.00     0.00     0.00
eigval :        7.91    13.04    17.94    23.13    23.81    30.79
eigval :       39.35    42.68    49.80    51.38    66.59    75.55
eigval :       75.98    88.47   112.79   116.14   124.05   124.59
eigval :      130.50   144.87   177.35   189.35   201.62   211.58
eigval :      231.82   244.45   245.86   253.96   254.32   258.75
eigval :      259.94   277.63   278.31   310.49   334.79   341.39
eigval :      349.96   368.07   372.99   381.60   384.53   389.64
eigval :      397.76   400.03   401.38   413.20   417.76   424.80
eigval :      430.19   430.68   441.96   446.69   452.82   466.58
eigval :      489.30   505.64   510.61   511.05   516.62   522.04
eigval :      523.57   528.86   550.50   566.59   570.67   582.14
eigval :      589.33   590.62   602.72   606.15   619.66   620.79
eigval :      623.31   648.95   659.72   660.53   661.31   661.65
eigval :      670.75   671.97   688.93   703.64   706.84   731.35
eigval :      755.23   763.72   770.06   778.24   778.58   779.54
eigval :      779.56   802.96   804.06   821.90   822.55   848.87
eigval :      854.81   855.36   861.87   864.61   865.60   867.23
eigval :      867.38   875.03   875.26   879.60   896.84   897.43
eigval :      898.41   898.52   906.97   913.98   914.43   914.96
eigval :      915.28   917.04   917.87   920.04   924.20   926.16
eigval :      931.41   932.83   975.66  1009.53  1032.24  1090.36
eigval :     1090.39  1091.64  1091.95  1092.51  1108.32  1108.53
eigval :     1112.00  1120.96  1121.67  1131.44  1132.68  1168.84
eigval :     1170.96  1172.15  1174.12  1175.96  1176.04  1183.12
eigval :     1183.65  1190.49  1192.83  1201.65  1201.71  1222.50
eigval :     1224.34  1243.19  1243.40  1255.68  1260.73  1262.44
eigval :     1262.75  1264.20  1265.57  1275.94  1309.26  1310.84
eigval :     1311.24  1312.78  1315.51  1317.77  1336.62  1339.05
eigval :     1340.70  1355.91  1356.68  1392.95  1402.21  1402.97
eigval :     1422.85  1424.67  1426.27  1436.54  1443.14  1443.91
eigval :     1475.91  1483.90  1486.50  1486.58  1489.76  1505.66
eigval :     1505.93  1510.79  1531.51  1554.36  1554.77  1567.82
eigval :     1567.92  1580.83  1580.84  1585.58  1587.54  1591.16
eigval :     1592.20  1601.07  1603.17  1603.28  3082.62  3083.58
eigval :     3089.64  3089.70  3090.31  3090.36  3090.55  3091.29
eigval :     3094.53  3094.81  3098.70  3099.75  3099.76  3100.51
eigval :     3104.25  3104.34  3105.43  3106.44  3106.73  3106.99
eigval :     3113.70  3113.79  3114.35  3114.61  3122.23  3122.48

   temp. (K)  partition function   enthalpy   heat capacity  entropy
                                   cal/mol     cal/K/mol   cal/K/mol   J/K/mol
 298.15  VIB  0.187E+19            23521.169    149.201    145.273
         ROT  0.584E+08              888.752      2.981     38.520
         INT  0.110E+27            24409.921    152.182    183.793
         TR   0.172E+29             1481.254      4.968     45.414
         TOT                       25891.1752   157.1505   229.2077   959.0050

       T/K    H(0)-H(T)+PV         H(T)/Eh          T*S/Eh         G(T)/Eh
   ------------------------------------------------------------------------
    298.15    0.412602E-01    0.610935E+00    0.108904E+00    0.502031E+00
   ------------------------------------------------------------------------

         :::::::::::::::::::::::::::::::::::::::::::::::::::::
         ::                  THERMODYNAMIC                  ::
         :::::::::::::::::::::::::::::::::::::::::::::::::::::
         :: total free energy        -136.329101869162 Eh   ::
         ::.................................................::
         :: total energy             -136.831132913779 Eh   ::
         :: zero point energy           0.569674807342 Eh   ::
         :: G(RRHO) w/o ZPVE           -0.067643762725 Eh   ::
         :: G(RRHO) contrib.            0.502031044617 Eh   ::
         :::::::::::::::::::::::::::::::::::::::::::::::::::::

           -------------------------------------------------
          | TOTAL ENERGY             -136.831132913779 Eh   |
          | TOTAL ENTHALPY           -136.220197892479 Eh   |
          | TOTAL FREE ENERGY        -136.329101869162 Eh   |
          | GRADIENT NORM               0.000058413450 Eh/α |
          | HOMO-LUMO GAP               0.872537932292 eV   |
           -------------------------------------------------

 * finished run on 2025/09/13 at 22:19:50.732
