   * xtb version 6.7.1 (edcfbbe) compiled by 'albert@albert-system' on 2024-07-22

   ID    Z sym.   atoms
    1    9 F      1, 52
    2    6 C      2-4, 6-10, 12-17, 19-31, 33-38, 40-47, 49-51
    3    7 N      5, 11, 32, 48
    4    8 O      18, 39
    5    1 H      53-78

          program call               : xtb data2507/gas/DFDBQPXZ/DFDBQPXZ_gas_S0_crest.xyz --gfn 2 --ohess vtight --parallel 40 --molden --ceasefiles --namespace data2507/gas/DFDBQPXZ/DFDBQPXZ_gas_S0_finalOpt
          :  Hamiltonian                  GFN2-xTB          :
 * total energy  :  -136.8325280 Eh     change       -0.2885457E-08 Eh
 * total energy  :  -136.8325289 Eh     change       -0.8599893E-06 Eh
 * total energy  :  -136.8325298 Eh     change       -0.9074009E-06 Eh
 * total energy  :  -136.8325306 Eh     change       -0.8624426E-06 Eh
 * total energy  :  -136.8325312 Eh     change       -0.5241642E-06 Eh
 * total energy  :  -136.8325316 Eh     change       -0.4591026E-06 Eh
 * total energy  :  -136.8325320 Eh     change       -0.4023225E-06 Eh
 * total energy  :  -136.8325323 Eh     change       -0.3023981E-06 Eh
 * total energy  :  -136.8325326 Eh     change       -0.2501147E-06 Eh
 * total energy  :  -136.8325328 Eh     change       -0.1883092E-06 Eh
 * total energy  :  -136.8325329 Eh     change       -0.1457323E-06 Eh
 * total energy  :  -136.8325330 Eh     change       -0.1181174E-06 Eh
 * total energy  :  -136.8325331 Eh     change       -0.8560508E-07 Eh
   *** GEOMETRY OPTIMIZATION CONVERGED AFTER 13 ITERATIONS ***

 final structure:
================
78
 xtb: 6.7.1 (edcfbbe)
F           -9.33218829262372       -1.14358256841040       -0.71493293278828
C           -8.15783175346822       -0.59356011094581       -0.37359115688599
C           -6.98737984846504       -1.19775056013789       -0.73813109415525
C           -5.76653146119971       -0.60677891809106       -0.36574725880508
N           -4.60561281363686       -1.22991128216429       -0.66419719127133
C           -3.49432417821441       -0.64620865670506       -0.31390675539290
C           -2.18326384855929       -1.29236140283095       -0.49810793381414
C           -1.44164401892429       -1.61364762297942        0.63724760073058
C           -0.12809605668588       -2.01256818489838        0.52682018633322
C            0.48333141518922       -2.06473626170729       -0.72410085742165
N            1.86965918578096       -2.30213719464563       -0.82415154431796
C            2.43865853469444       -3.42303574756619       -0.21267514893192
C            1.66542029652792       -4.49297356117406        0.21991799751134
C            2.25259296900561       -5.59791612768908        0.81719403365609
C            3.62182816049763       -5.65569154922372        0.98136966213691
C            4.41047134392396       -4.61183086891182        0.52072881520780
C            3.83008925295806       -3.51046172920721       -0.08074892839801
O            4.67600954517608       -2.53864131362715       -0.54997883177869
C            4.10739664598477       -1.42937502368424       -1.12015740423481
C            4.97197300956361       -0.43859469686385       -1.54799951304563
C            4.48083342903107        0.73231550855270       -2.10365321978816
C            3.11701672358634        0.90527620010554       -2.21726079206981
C            2.24677997563217       -0.09023431233437       -1.79901206047375
C            2.72182924665284       -1.27687186237443       -1.25729207218128
C           -0.28287744551584       -1.83773888463173       -1.86373877244920
C           -1.60914608759088       -1.46113920285467       -1.75148777079857
C           -3.49339642886339        0.65402014321422        0.30640571157836
C           -2.18129066762851        1.29772629238828        0.49147086237306
C           -1.60845739045684        1.46635201243278        1.74550721016512
C           -0.28154693444874        1.84008403041208        1.85920288726271
C            0.48677572874548        2.06436457773041        0.72039474656967
N            1.87338731211449        2.29899618150577        0.82256061939756
C            2.44616291248425        3.41792634528949        0.21099098350397
C            1.67613541452912        4.48777369495242       -0.22752514391831
C            2.26720125193439        5.59064243646434       -0.82481217198792
C            3.63720838798458        5.64658671081625       -0.98292561632588
C            4.42259132116167        4.60293079113736       -0.51626796407042
C            3.83828424674893        3.50357744364722        0.08506071109589
O            4.68110777096762        2.53197243120734        0.56032361349981
C            4.10876250339417        1.42344296390435        1.12810200747108
C            4.97027904084278        0.43158494286720        1.55963142744836
C            4.47532298708288       -0.73867599318260        2.11324573350489
C            3.11081771828553       -0.90996824263637        2.22097659253086
C            2.24359985970437        0.08658014882354        1.79893945640711
C            2.72244775334061        1.27267532518132        1.25937361255187
C           -0.12303854107032        2.01227427556968       -0.53128722382741
C           -1.43737724765391        1.61626167265533       -0.64312825005040
N           -4.60388003605555        1.23930931018862        0.65664666955098
C           -5.76567406950633        0.61780566503001        0.35820096217213
C           -6.98574289230167        1.21020111359238        0.73089186604527
C           -8.15700399399978        0.60732257047720        0.36675511987112
F           -9.33060928907915        1.15865776942698        0.70855018504479
H           -6.98627752240784       -2.12035123262558       -1.29505685839173
H           -1.89773057336891       -1.53137854529855        1.61303712024308
H            0.44364785691154       -2.25467050509058        1.40923547314389
H            0.59562179543827       -4.46447454840593        0.08128990014747
H            1.62765553990597       -6.41291443795288        1.14848281619203
H            4.08354413055465       -6.50954232826377        1.45146483278339
H            5.48444988853036       -4.63595224642762        0.61335742515884
H            6.03059910122401       -0.60074933928594       -1.42579182074279
H            5.16207927036120        1.50232302850111       -2.42873649898027
H            2.71901002889874        1.81935969131316       -2.63324149458091
H            1.18313875312303        0.06200885882731       -1.88374122706927
H            0.17228550057795       -1.93816118894856       -2.83778083996454
H           -2.19366420928603       -1.26223040045977       -2.63710444686852
H           -2.19468579374884        1.26950494800009        2.63045179519866
H            0.17261102382441        1.94023986883484        2.83374313402242
H            0.60571876411570        4.46102344714504       -0.09348292870729
H            1.64460679875453        6.40547828979048       -1.16088064793011
H            4.10201210500840        6.49883616970912       -1.45288137844134
H            5.49701033295868        4.62579337526880       -0.60397471612802
H            6.02962320693387        0.59244117512386        1.44197709770041
H            5.15425096154044       -1.50947742166345        2.44128165398870
H            2.70989344794358       -1.82355329318920        2.63524463352079
H            1.17941358514489       -0.06440975864000        1.87905529203208
H            0.45040212690813        2.25202044707295       -1.41323011875000
H           -1.89223758303107        1.53424162145855       -1.61950735618341
H           -6.98350736659518        2.13278009021147        1.28785321256725

          :  Hamiltonian                  GFN2-xTB          :
         :: gradient norm              0.000083581903 Eh/a0 ::
         :: HOMO-LUMO gap              0.850855184542 eV    ::
         :: SCC energy              -139.066324557946 Eh    ::
         :: -> dispersion             -0.133087326012 Eh    ::
         :: repulsion energy           2.233791445984 Eh    ::

    * Orbital Energies and Occupations

         #    Occupation            Energy/Eh            Energy/eV
      -------------------------------------------------------------
         1        2.0000           -0.8398453             -22.8534
       ...           ...                  ...                  ...
       112        2.0000           -0.4252929             -11.5728
       113        2.0000           -0.4240294             -11.5384
       114        2.0000           -0.4230771             -11.5125
       115        2.0000           -0.4181859             -11.3794
       116        2.0000           -0.4177727             -11.3682
       117        2.0000           -0.4167088             -11.3392
       118        2.0000           -0.4140880             -11.2679
       119        2.0000           -0.4104712             -11.1695
       120        2.0000           -0.3931642             -10.6985
       121        2.0000           -0.3907729             -10.6335
       122        2.0000           -0.3738772             -10.1737
       123        2.0000           -0.3462370              -9.4216
       124        2.0000           -0.3454782              -9.4009 (HOMO)
       125        0.0000           -0.3142101              -8.5501 (LUMO)
       126                         -0.2765261              -7.5247
       127                         -0.2526186              -6.8741
       128                         -0.2498619              -6.7991
       129                         -0.2476288              -6.7383
       130                         -0.2436548              -6.6302
       131                         -0.2410227              -6.5586
       132                         -0.2402861              -6.5385
       133                         -0.2388483              -6.4994
       134                         -0.2319392              -6.3114
       135                         -0.2312089              -6.2915
       ...                                ...                  ...
       234                          0.6731393              18.3171
      -------------------------------------------------------------
                  HL-Gap            0.0312681 Eh            0.8508 eV

     #   Z          covCN         q      C6AA      α(0)
     1   9 F        0.787    -0.192    11.152     3.945
     2   6 C        2.777     0.158    24.560     8.117
     3   6 C        2.918    -0.061    29.521     8.910
     4   6 C        2.975     0.075    26.310     8.414
     5   7 N        1.844    -0.216    26.535     7.634
     6   6 C        2.963     0.093    25.937     8.354
     7   6 C        2.979     0.003    27.954     8.673
     8   6 C        2.927    -0.031    28.770     8.796
     9   6 C        2.922    -0.040    29.004     8.832
    10   6 C        2.922     0.068    26.486     8.440
    11   7 N        2.750    -0.073    22.665     7.071
    12   6 C        2.923     0.043    27.045     8.528
    13   6 C        2.924    -0.059    29.465     8.902
    14   6 C        2.919    -0.039    28.973     8.827
    15   6 C        2.919    -0.040    28.993     8.830
    16   6 C        2.920    -0.056    29.391     8.890
    17   6 C        2.885     0.126    25.241     8.237
    18   8 O        1.709    -0.252    18.169     5.755
    19   6 C        2.886     0.125    25.250     8.238
    20   6 C        2.921    -0.055    29.355     8.885
    21   6 C        2.919    -0.037    28.919     8.819
    22   6 C        2.919    -0.038    28.950     8.823
    23   6 C        2.925    -0.063    29.568     8.917
    24   6 C        2.923     0.041    27.076     8.533
    25   6 C        2.922    -0.041    29.010     8.833
    26   6 C        2.922    -0.027    28.684     8.783
    27   6 C        2.963     0.093    25.937     8.354
    28   6 C        2.979     0.003    27.954     8.673
    29   6 C        2.922    -0.027    28.684     8.783
    30   6 C        2.922    -0.041    29.010     8.833
    31   6 C        2.922     0.068    26.486     8.440
    32   7 N        2.750    -0.073    22.664     7.071
    33   6 C        2.923     0.043    27.045     8.528
    34   6 C        2.924    -0.059    29.466     8.902
    35   6 C        2.919    -0.039    28.973     8.827
    36   6 C        2.919    -0.040    28.993     8.830
    37   6 C        2.920    -0.056    29.391     8.890
    38   6 C        2.885     0.126    25.241     8.237
    39   8 O        1.709    -0.252    18.169     5.755
    40   6 C        2.886     0.125    25.250     8.238
    41   6 C        2.921    -0.055    29.355     8.885
    42   6 C        2.919    -0.037    28.918     8.818
    43   6 C        2.919    -0.038    28.950     8.823
    44   6 C        2.925    -0.063    29.567     8.917
    45   6 C        2.923     0.041    27.076     8.533
    46   6 C        2.922    -0.040    29.005     8.832
    47   6 C        2.927    -0.031    28.771     8.796
    48   7 N        1.844    -0.216    26.535     7.634
    49   6 C        2.975     0.075    26.310     8.414
    50   6 C        2.918    -0.061    29.521     8.910
    51   6 C        2.777     0.158    24.560     8.117
    52   9 F        0.787    -0.192    11.152     3.945
    53   1 H        0.926     0.091     1.866     2.136
    54   1 H        0.926     0.035     2.514     2.479
    55   1 H        0.926     0.048     2.342     2.393
    56   1 H        0.926     0.035     2.518     2.481
    57   1 H        0.926     0.037     2.491     2.468
    58   1 H        0.926     0.039     2.461     2.453
    59   1 H        0.926     0.051     2.309     2.376
    60   1 H        0.926     0.053     2.281     2.362
    61   1 H        0.926     0.041     2.432     2.439
    62   1 H        0.926     0.029     2.603     2.523
    63   1 H        0.926     0.033     2.548     2.496
    64   1 H        0.926     0.050     2.320     2.382
    65   1 H        0.926     0.045     2.381     2.413
    66   1 H        0.926     0.045     2.381     2.413
    67   1 H        0.926     0.050     2.320     2.382
    68   1 H        0.926     0.035     2.518     2.481
    69   1 H        0.926     0.037     2.491     2.468
    70   1 H        0.926     0.039     2.461     2.453
    71   1 H        0.926     0.051     2.309     2.376
    72   1 H        0.926     0.053     2.281     2.362
    73   1 H        0.926     0.041     2.432     2.439
    74   1 H        0.926     0.029     2.603     2.523
    75   1 H        0.926     0.033     2.548     2.496
    76   1 H        0.926     0.048     2.341     2.393
    77   1 H        0.926     0.035     2.514     2.479
    78   1 H        0.926     0.091     1.866     2.136

molecular dipole:
                 x           y           z       tot (Debye)
 q only:        1.172      -0.001      -0.001
   full:        0.963      -0.001      -0.002       2.448

 projected vibrational frequencies (cm⁻¹)
eigval :       -0.00    -0.00     0.00     0.00     0.00     0.00
eigval :       18.01    19.86    22.72    25.95    27.98    41.83
eigval :       50.25    54.26    57.82    64.63    73.76    76.29
eigval :       92.53   101.64   113.00   117.17   118.93   128.91
eigval :      138.53   149.27   179.31   197.60   198.07   205.49
eigval :      219.86   241.47   244.71   256.27   257.54   263.24
eigval :      268.48   279.21   285.49   304.78   339.61   341.15
eigval :      352.52   368.83   370.55   379.81   387.15   392.31
eigval :      395.54   402.33   402.45   412.60   418.40   428.09
eigval :      430.88   435.00   447.53   451.00   454.14   463.24
eigval :      499.37   499.78   511.12   511.24   514.81   524.08
eigval :      526.16   529.39   554.07   564.85   575.01   581.51
eigval :      590.78   592.31   601.48   610.22   616.73   621.94
eigval :      625.68   646.28   660.13   660.29   663.14   663.17
eigval :      670.77   683.55   688.97   702.45   703.72   733.72
eigval :      751.58   769.13   770.59   778.40   780.13   781.49
eigval :      781.93   804.17   805.22   820.47   822.13   851.94
eigval :      856.31   856.53   859.90   863.14   868.48   869.44
eigval :      870.13   877.16   877.80   878.58   895.50   898.75
eigval :      899.21   899.76   904.78   913.38   914.62   915.49
eigval :      915.99   917.16   917.41   918.90   927.38   928.97
eigval :      936.94   939.20   974.40  1008.93  1033.15  1086.15
eigval :     1089.76  1089.85  1095.06  1095.78  1109.08  1109.14
eigval :     1113.09  1121.54  1122.90  1129.01  1131.56  1167.16
eigval :     1171.18  1171.53  1174.33  1176.00  1176.31  1182.82
eigval :     1184.32  1192.58  1193.43  1205.41  1205.42  1220.35
eigval :     1222.08  1234.28  1244.51  1244.56  1255.38  1262.06
eigval :     1262.41  1267.09  1268.00  1270.87  1305.08  1305.92
eigval :     1309.47  1312.16  1312.57  1317.16  1327.67  1338.73
eigval :     1339.14  1355.75  1356.28  1396.36  1399.58  1399.92
eigval :     1424.34  1424.74  1427.10  1436.12  1443.81  1444.15
eigval :     1475.72  1482.94  1488.14  1489.96  1495.04  1505.64
eigval :     1506.25  1545.51  1546.62  1557.29  1557.56  1569.34
eigval :     1569.39  1581.36  1581.40  1589.74  1590.70  1593.99
eigval :     1594.22  1604.23  1604.50  1606.13  3078.20  3078.31
eigval :     3080.42  3081.26  3086.29  3086.46  3088.58  3088.60
eigval :     3096.63  3096.94  3096.95  3097.02  3102.82  3102.97
eigval :     3103.08  3103.24  3104.27  3104.49  3113.08  3113.11
eigval :     3113.75  3115.13  3116.16  3117.68  3122.44  3122.70

   temp. (K)  partition function   enthalpy   heat capacity  entropy
                                   cal/mol     cal/K/mol   cal/K/mol   J/K/mol
 298.15  VIB  0.762E+17            23311.445    150.286    142.407
         ROT  0.422E+08              888.752      2.981     37.874
         INT  0.322E+25            24200.197    153.267    180.281
         TR   0.172E+29             1481.254      4.968     45.414
         TOT                       25681.4512   158.2350   225.6949   944.3075

       T/K    H(0)-H(T)+PV         H(T)/Eh          T*S/Eh         G(T)/Eh
   ------------------------------------------------------------------------
    298.15    0.409260E-01    0.611189E+00    0.107235E+00    0.503954E+00
   ------------------------------------------------------------------------

         :::::::::::::::::::::::::::::::::::::::::::::::::::::
         ::                  THERMODYNAMIC                  ::
         :::::::::::::::::::::::::::::::::::::::::::::::::::::
         :: total free energy        -136.328578679541 Eh   ::
         ::.................................................::
         :: total energy             -136.832533111953 Eh   ::
         :: zero point energy           0.570263367341 Eh   ::
         :: G(RRHO) w/o ZPVE           -0.066308934929 Eh   ::
         :: G(RRHO) contrib.            0.503954432412 Eh   ::
         :::::::::::::::::::::::::::::::::::::::::::::::::::::

           -------------------------------------------------
          | TOTAL ENERGY             -136.832533111953 Eh   |
          | TOTAL ENTHALPY           -136.221343747009 Eh   |
          | TOTAL FREE ENERGY        -136.328578679541 Eh   |
          | GRADIENT NORM               0.000083481740 Eh/α |
          | HOMO-LUMO GAP               0.850849652007 eV   |
           -------------------------------------------------

 * finished run on 2025/09/13 at 22:24:07.775
