   * xtb version 6.7.1 (edcfbbe) compiled by 'albert@albert-system' on 2024-07-22

   ID    Z sym.   atoms
    1    9 F      1, 52
    2    6 C      2-4, 6-10, 12-17, 19-31, 33-38, 40-47, 49-51
    3    7 N      5, 11, 32, 48
    4    8 O      18, 39
    5    1 H      53-78

          program call               : xtb data2507/gas/DFDBQPXZ/DFDBQPXZ_gas_S0_finalOpt.xtbopt.xyz --gfn 2 --spinpol --tblite --uhf 2 --ohess vtight --parallel 40 --molden --ceasefiles --namespace data2507/gas/DFDBQPXZ/DFDBQPXZ_gas_T1_preOpt
 * total energy  :  -136.7779087 Eh     change       -0.1416612E-07 Eh
 * total energy  :  -136.7814587 Eh     change       -0.3550046E-02 Eh
 * total energy  :  -136.7824814 Eh     change       -0.1022647E-02 Eh
 * total energy  :  -136.7826203 Eh     change       -0.1389264E-03 Eh
 * total energy  :  -136.7826822 Eh     change       -0.6191360E-04 Eh
 * total energy  :  -136.7826920 Eh     change       -0.9754434E-05 Eh
 * total energy  :  -136.7827033 Eh     change       -0.1136938E-04 Eh
 * total energy  :  -136.7827114 Eh     change       -0.8014913E-05 Eh
 * total energy  :  -136.7827249 Eh     change       -0.1354189E-04 Eh
 * total energy  :  -136.7827358 Eh     change       -0.1085039E-04 Eh
 * total energy  :  -136.7827506 Eh     change       -0.5630432E-06 Eh
 * total energy  :  -136.7827509 Eh     change       -0.2266896E-06 Eh
 * total energy  :  -136.7827513 Eh     change       -0.4867327E-06 Eh
 * total energy  :  -136.7827515 Eh     change       -0.1549992E-06 Eh
 * total energy  :  -136.7827517 Eh     change       -0.1843830E-06 Eh
 * total energy  :  -136.7827518 Eh     change       -0.1632588E-06 Eh
 * total energy  :  -136.7827520 Eh     change       -0.1426206E-06 Eh
 * total energy  :  -136.7827520 Eh     change        0.3746183E-07 Eh
 * total energy  :  -136.7827520 Eh     change       -0.9650822E-07 Eh
   *** GEOMETRY OPTIMIZATION CONVERGED AFTER 29 ITERATIONS ***

 final structure:
================
78
 xtb: 6.7.1 (edcfbbe)
F           -9.36363713983302       -1.20202300782277       -0.65859810302796
C           -8.20111236577164       -0.60173124101868       -0.33383906144751
C           -7.00681837990868       -1.22755087252334       -0.66433957756731
C           -5.79184808078786       -0.63475219050979       -0.34154603425548
N           -4.62145107296290       -1.22280995391301       -0.61642591010543
C           -3.47486306549811       -0.63216035817531       -0.30238703180987
C           -2.16948803487700       -1.28420408190484       -0.49339663119198
C           -1.41588348360746       -1.59156212273764        0.63914441135916
C           -0.10581189160712       -2.00023722322507        0.52379383629844
C            0.48787127067639       -2.08277175822195       -0.73265542362780
N            1.87804091980637       -2.32360732662637       -0.83355789466787
C            2.44068236777869       -3.45185809962890       -0.23850326602249
C            1.66108366047183       -4.52056671908024        0.19010178512798
C            2.24502542447842       -5.63283162010382        0.77362673350671
C            3.61646552767192       -5.70067845161551        0.93023100178506
C            4.41033935846197       -4.65793701627929        0.47871174078439
C            3.83340660796767       -3.54650321540497       -0.10929194918363
O            4.67950004558837       -2.57006209005438       -0.56420772136032
C            4.11587541874198       -1.45670955072679       -1.12587897802930
C            4.98160201222694       -0.46279082689037       -1.54675166668398
C            4.48950944234681        0.71065844261618       -2.09435395173871
C            3.12420838675061        0.88415124093106       -2.21052915746863
C            2.25291775561203       -0.11176795562146       -1.79978618165891
C            2.72880152824391       -1.30136879034171       -1.26160935610069
C           -0.28863289293697       -1.87763868580964       -1.86929202090544
C           -1.61061976721921       -1.48929984668804       -1.75009640428994
C           -3.47402769185002        0.63920006995023        0.29527087064971
C           -2.16764427555876        1.28872137175768        0.48794752171348
C           -1.61011020752822        1.49283547440797        1.74540181071701
C           -0.28753781877140        1.87860073603782        1.86637915850175
C            0.49093002124195        2.08210534669362        0.73079074359509
N            1.88142777066910        2.32017439104380        0.83361561270056
C            2.44717775419394        3.44725420300702        0.23930974222835
C            1.67033494986087        4.51742954755900       -0.19064985053520
C            2.25735431122803        5.62848715548543       -0.77338114977084
C            3.62916991483318        5.69365870905137       -0.92782317310182
C            4.42030293618638        4.64943186802960       -0.47493407105281
C            3.84028714758393        3.53918431136673        0.11228033634904
O            4.68376318264110        2.56116240596125        0.56863535387146
C            4.11710529488688        1.44893453962990        1.12946278657328
C            4.98023758699341        0.45334306585977        1.55171481053981
C            4.48500776877262       -0.71912324493154        2.09858787529842
C            3.11919088354844       -0.88995131546778        2.21263986050132
C            2.25048413061908        0.10764457483221        1.80050890103859
C            2.72952009177571        1.29630415428996        1.26303830843869
C           -0.10118263972418        2.00062852398647       -0.52646801391587
C           -1.41189377308008        1.59451391973486       -0.64358513929731
N           -4.61986476752250        1.23196972558498        0.60803261597129
C           -5.79104721587564        0.64604697433376        0.33195395623307
C           -7.00526839205046        1.24102198621179        0.65353588440366
C           -8.20034815718020        0.61733187188842        0.32186454216258
F           -9.36211716879897        1.21969335005469        0.64549873532429
H           -7.02011132193578       -2.18023250961136       -1.16656620841679
H           -1.86030783461894       -1.48453011463170        1.61732898951025
H            0.47559645403146       -2.22911482022822        1.40370180265679
H            0.59104394860853       -4.48111132085605        0.05844919099635
H            1.61812493425539       -6.44739315217178        1.10140583229508
H            4.07398625926717       -6.56253741239238        1.38928474078269
H            5.48431495064197       -4.68902626607272        0.56821134981680
H            6.04020898783899       -0.62597597954690       -1.42647884408747
H            5.17039608690950        1.48314047112135       -2.41412837073354
H            2.72861050942917        1.80007184505267       -2.62432710765456
H            1.18915837047070        0.03694432503671       -1.88675664318463
H            0.15597213232493       -2.00195368493651       -2.84565132602811
H           -2.20397828322714       -1.30819739004101       -2.63353068746519
H           -2.20503516500071        1.31296355778705        2.62803333353131
H            0.15597629654760        2.00210447505284        2.84333729822814
H            0.60001465580547        4.48007789285847       -0.06067671059509
H            1.63255182424697        6.44422247611380       -1.10224490580227
H            4.08908731450559        6.55457692637470       -1.38624645174874
H            5.49447717039201        4.67843042666154       -0.56273109142311
H            6.03934624973078        0.61446254873605        1.43308957496183
H            5.16388900996895       -1.49291543379423        2.41945527891110
H            2.72116461961888       -1.80508042757479        2.62585909457285
H            1.18630347278377       -0.03900117911799        1.88582242783286
H            0.48187329531304        2.22830072490114       -1.40559715970392
H           -1.85519538561648        1.48831062476288       -1.62236813632018
H           -7.01735229614937        2.19372420306822        1.15575386022403

 projected vibrational frequencies (cm⁻¹)
eigval :       -0.00    -0.00    -0.00     0.00     0.00     0.00
eigval :       16.57    17.92    22.47    26.68    29.01    41.61
eigval :       47.85    52.97    58.12    63.40    73.04    75.28
eigval :       90.32   101.19   111.49   114.71   118.83   128.59
eigval :      135.29   147.81   186.12   196.69   200.34   200.62
eigval :      228.52   240.07   243.92   244.16   254.71   255.30
eigval :      262.30   279.18   279.60   296.41   316.71   335.38
eigval :      345.19   368.11   372.32   380.76   384.73   392.80
eigval :      393.15   402.77   408.96   413.05   416.36   428.99
eigval :      430.75   434.69   440.14   448.08   456.49   461.13
eigval :      497.10   498.60   507.79   508.21   513.69   522.50
eigval :      527.11   528.25   554.33   561.69   571.31   578.01
eigval :      582.47   585.87   590.09   596.10   609.39   614.79
eigval :      619.85   638.66   645.45   662.30   662.44   665.36
eigval :      665.67   669.19   673.32   684.37   693.24   700.36
eigval :      728.03   733.30   757.56   777.40   780.21   781.36
eigval :      781.40   799.49   802.14   805.05   807.75   819.95
eigval :      821.05   856.63   856.81   859.72   863.50   869.07
eigval :      870.27   874.09   875.45   877.45   895.32   898.06
eigval :      900.44   901.25   901.46   914.33   915.31   916.56
eigval :      917.18   917.55   917.95   918.85   926.15   927.53
eigval :      935.25   937.30   955.78  1009.91  1025.70  1088.00
eigval :     1088.05  1093.46  1094.23  1104.05  1104.54  1111.01
eigval :     1111.09  1121.24  1123.72  1128.06  1130.23  1170.73
eigval :     1170.88  1175.71  1175.96  1177.22  1178.64  1182.05
eigval :     1183.14  1191.05  1193.89  1207.74  1207.91  1213.09
eigval :     1225.11  1226.48  1242.68  1242.81  1250.96  1260.35
eigval :     1261.08  1263.24  1264.59  1264.72  1300.77  1302.81
eigval :     1305.16  1311.75  1312.93  1313.98  1314.09  1329.09
eigval :     1332.56  1333.68  1347.20  1351.03  1384.28  1395.07
eigval :     1400.02  1400.73  1416.29  1423.20  1423.43  1443.43
eigval :     1443.75  1472.28  1473.07  1473.55  1478.58  1485.96
eigval :     1495.49  1499.37  1535.56  1542.46  1552.79  1553.32
eigval :     1566.37  1566.43  1574.82  1574.89  1581.25  1583.64
eigval :     1584.75  1587.89  1595.46  1597.87  3081.28  3081.31
eigval :     3084.88  3085.39  3087.00  3087.26  3093.35  3093.35
eigval :     3096.82  3097.15  3099.86  3100.45  3101.43  3101.57
eigval :     3104.74  3104.82  3107.80  3107.82  3115.08  3115.16
eigval :     3116.55  3118.22  3118.45  3119.10  3124.77  3124.96

   temp. (K)  partition function   enthalpy   heat capacity  entropy
                                   cal/mol     cal/K/mol   cal/K/mol   J/K/mol
 298.15  VIB  0.122E+18            23500.525    151.270    143.671
         ROT  0.427E+08              888.752      2.981     37.896
         INT  0.521E+25            24389.278    154.251    181.567
         TR   0.172E+29             1481.254      4.968     45.414
         TOT                       25870.5315   159.2193   226.9818   949.6917

       T/K    H(0)-H(T)+PV         H(T)/Eh          T*S/Eh         G(T)/Eh
   ------------------------------------------------------------------------
    298.15    0.412273E-01    0.609143E+00    0.107846E+00    0.501296E+00
   ------------------------------------------------------------------------

         :::::::::::::::::::::::::::::::::::::::::::::::::::::
         ::                  THERMODYNAMIC                  ::
         :::::::::::::::::::::::::::::::::::::::::::::::::::::
         :: total free energy        -136.281455763130 Eh   ::
         ::.................................................::
         :: total energy             -136.782752034025 Eh   ::
         :: zero point energy           0.567915313103 Eh   ::
         :: G(RRHO) w/o ZPVE           -0.066619042209 Eh   ::
         :: G(RRHO) contrib.            0.501296270894 Eh   ::
         :::::::::::::::::::::::::::::::::::::::::::::::::::::

           -------------------------------------------------
          | TOTAL ENERGY             -136.782752034025 Eh   |
          | TOTAL ENTHALPY           -136.173609404741 Eh   |
          | TOTAL FREE ENERGY        -136.281455763130 Eh   |
          | GRADIENT NORM               0.000142810593 Eh/α |
           -------------------------------------------------

 * finished run on 2025/09/13 at 22:24:18.319
