   * xtb version 6.7.1 (edcfbbe) compiled by 'albert@albert-system' on 2024-07-22

   ID    Z sym.   atoms
    1    6 C      1-6, 8-13, 15-22, 24-28, 30-35, 37-47, 49, 50
    2    8 O      7, 36
    3    7 N      14, 23, 29, 48
    4    1 H      51-78

          program call               : xtb data2507/gas/NyDPO/NyDPO_gas_T1_crest.xyz --gfn 2 --spinpol --tblite --uhf 2 --ohess vtight --parallel 40 --molden --ceasefiles --namespace data2507/gas/NyDPO/NyDPO_gas_T1_finalOpt
 * total energy  :  -128.3281682 Eh     change       -0.2611424E-07 Eh
 * total energy  :  -128.3282120 Eh     change       -0.4379613E-04 Eh
 * total energy  :  -128.3282333 Eh     change       -0.2124986E-04 Eh
 * total energy  :  -128.3282361 Eh     change       -0.2769528E-05 Eh
 * total energy  :  -128.3282376 Eh     change       -0.1547770E-05 Eh
 * total energy  :  -128.3282386 Eh     change       -0.1050734E-05 Eh
 * total energy  :  -128.3282398 Eh     change       -0.1182758E-05 Eh
 * total energy  :  -128.3282407 Eh     change       -0.8566085E-06 Eh
 * total energy  :  -128.3282413 Eh     change       -0.6563945E-06 Eh
 * total energy  :  -128.3282421 Eh     change       -0.7391497E-06 Eh
 * total energy  :  -128.3282463 Eh     change       -0.2586320E-06 Eh
 * total energy  :  -128.3282466 Eh     change       -0.2297704E-06 Eh
 * total energy  :  -128.3282465 Eh     change        0.6366514E-07 Eh
 * total energy  :  -128.3282466 Eh     change       -0.1437799E-06 Eh
 * total energy  :  -128.3282468 Eh     change       -0.1337129E-06 Eh
 * total energy  :  -128.3282466 Eh     change        0.1893991E-06 Eh
 * total energy  :  -128.3282468 Eh     change       -0.2303214E-06 Eh
 * total energy  :  -128.3282469 Eh     change       -0.1123425E-06 Eh
 * total energy  :  -128.3282470 Eh     change       -0.7460721E-07 Eh
   *** GEOMETRY OPTIMIZATION CONVERGED AFTER 28 ITERATIONS ***

 final structure:
================
78
 xtb: 6.7.1 (edcfbbe)
C           10.01477374924488        3.31943157808761       -1.56502507808101
C            8.64253480212250        3.34799182720497       -1.40508229384903
C            7.97546138228516        2.25833067800164       -0.86999439814399
C            8.67267980928092        1.11574886112926       -0.49198694823704
C           10.06860589038895        1.10529656461317       -0.63748215846959
C           10.72774601472342        2.19624983971311       -1.17367304567073
O           10.83707593749277        0.03718898893834       -0.25148303397809
C           10.19179889602307       -1.04893435701254        0.28151109435694
C           10.97377839912398       -2.12410640279096        0.66184651401644
C           10.38497871712241       -3.26380775866741        1.18857713356165
C            9.01075229789496       -3.32491626511203        1.31978909761027
C            8.22133316538585       -2.25113339496366        0.94232022741764
C            8.79709737667833       -1.09216333490812        0.43266275614306
N            8.03492806659727        0.00437505676171        0.04706231186625
C            6.62579080094687       -0.00990390871951        0.20118163165449
C            6.06075823607992        0.01918404379409        1.47281119037233
C            4.69185531805486        0.00534527645944        1.62750543935597
C            3.84085440546475       -0.03373194029823        0.51504753242016
C            2.39725923695123       -0.04379089829301        0.61676013216405
C            1.68295194562987       -0.06000000881327        1.82249295590411
C            0.30918486335017       -0.06064111103257        1.82243800424647
C           -0.40197970182698       -0.04282407186654        0.60056726240603
N           -1.70856690519394       -0.04362116855260        0.53647313271648
C           -2.39751869552737       -0.02643799477516       -0.61975750256728
C           -3.84107814491239       -0.01613944560623       -0.51784788414082
C           -4.69210823528035        0.03979307918546       -1.62958116176489
C           -6.06100811115398        0.05077867600149       -1.47467175019926
C           -6.62599831874765        0.00216469703859       -0.20362478708261
N           -8.03521140674299        0.01131292356561       -0.04952809189840
C           -8.67577655967054        1.11347260076726        0.50466562136741
C           -7.98150756506747        2.25282578357937        0.89755326125350
C           -8.65138819200870        3.33345951800534        1.44723293933545
C          -10.02349070161100        3.29896150000910        1.60728442017827
C          -10.73352959686178        2.17902640418528        1.20155597954872
C          -10.07159790240489        1.09708692293753        0.65074090175611
O          -10.83717364074521        0.03189153847074        0.25123601747508
C          -10.18903242372023       -1.04545761469891       -0.29585933983938
C          -10.96799897147945       -2.11814522219134       -0.68919412920350
C          -10.37610923348505       -3.24920292090771       -1.23087040997412
C           -9.00181622831819       -3.30433410600448       -1.36408229038405
C           -8.21540282864393       -2.23303252187718       -0.97356694576823
C           -8.79432278948878       -1.08250960791311       -0.44856615775475
C           -5.79612737226516       -0.05480428583204        0.91393921456954
C           -4.43034592214863       -0.06064301450828        0.75621054730609
C           -1.68318537393811       -0.02075499690854       -1.82558225278047
C           -0.30943639178821       -0.02447813029445       -1.82556961320421
C            0.40175379633867       -0.03218278157533       -0.60358656580109
N            1.70830762913850       -0.03736804171309       -0.53953061467655
C            4.43012991308468       -0.05954612090317       -0.75950631109440
C            5.79591542416953       -0.05104128210354       -0.91709064423358
H           10.53631603522821        4.16531046295078       -1.98408271089155
H            8.07868250681203        4.22153876575082       -1.69376070738901
H            6.90552564895519        2.29232704771281       -0.73836000976821
H           11.80034237070121        2.14793384538912       -1.27278686523400
H           12.04187009579567       -2.05053156113373        0.53384131939142
H           11.00225417373481       -4.09714963205137        1.48461738961083
H            8.54045825856655       -4.21186063153176        1.71544358671169
H            7.14854503502585       -2.31030872578771        1.03696661820340
H            6.70741389616448        0.05532667913763        2.33789528702043
H            4.28515531308412        0.03397387397362        2.62620508061309
H            2.21406019489244       -0.07078265945344        2.76077546037061
H           -0.25232011742883       -0.07051059629569        2.74310753999109
H           -4.28545150031215        0.08313411594712       -2.62776691255213
H           -6.70773153434535        0.09930114259876       -2.33909788104819
H           -6.91170428732793        2.29137497225579        0.76600414114017
H           -8.08987914013059        4.20469809238964        1.74723888048022
H          -10.54721580357468        4.13780495404057        2.03761961102115
H          -11.80593165910007        2.12639351199948        1.30058833345520
H          -12.03620583150158       -2.04955469994924       -0.55939852297813
H          -10.99104570353682       -4.08063737449764       -1.53697152937301
H           -8.52911138545917       -4.18465518604249       -1.77148368684445
H           -7.14252475475352       -2.28762736248853       -1.06992982829992
H           -6.23668820954713       -0.09600744631530        1.89967747345923
H           -3.77895849245931       -0.10641310137079        1.61528623271417
H           -2.21426045451289       -0.01172239089559       -2.76390031708184
H            0.25206785745486       -0.01751499519305       -2.74626611581766
H            3.77879029432304       -0.09270517970226       -1.61919636134703
H            6.23648784230850       -0.07758212464169       -1.90332770756063

 projected vibrational frequencies (cm⁻¹)
eigval :       -0.00    -0.00    -0.00    -0.00     0.00     0.00
eigval :        3.92     6.91    14.88    16.02    22.64    26.48
eigval :       38.37    41.27    45.19    46.93    48.59    65.14
eigval :       75.85    82.10   112.11   112.23   122.50   125.93
eigval :      157.55   161.51   178.37   186.14   197.53   238.49
eigval :      247.79   249.69   259.01   259.65   271.32   273.30
eigval :      295.08   323.66   335.39   363.35   363.77   371.95
eigval :      373.63   376.86   382.63   391.32   401.01   421.89
eigval :      422.19   425.91   428.39   429.12   437.18   450.43
eigval :      451.56   454.70   471.32   483.74   492.58   506.64
eigval :      506.86   510.81   523.88   524.01   537.30   544.45
eigval :      550.45   565.77   571.12   585.10   587.65   603.87
eigval :      604.96   610.45   610.75   619.15   656.08   662.77
eigval :      663.39   664.93   664.94   672.73   677.43   683.23
eigval :      692.92   705.24   728.96   768.88   777.32   777.72
eigval :      778.03   778.15   778.32   799.32   800.57   805.89
eigval :      806.25   820.32   849.87   854.90   854.93   855.38
eigval :      857.66   860.31   864.42   864.45   865.20   865.28
eigval :      872.68   882.08   896.99   896.99   898.06   898.07
eigval :      906.81   906.87   915.01   915.04   915.24   915.24
eigval :      918.32   918.34   921.68   922.07   922.72   926.21
eigval :     1007.48  1007.87  1077.40  1083.11  1087.40  1087.47
eigval :     1088.37  1088.63  1109.98  1110.01  1114.91  1120.86
eigval :     1121.33  1122.55  1134.54  1145.52  1169.73  1170.91
eigval :     1175.17  1175.18  1180.83  1182.49  1191.64  1195.85
eigval :     1203.31  1203.31  1206.53  1222.20  1223.75  1231.49
eigval :     1240.36  1240.51  1257.15  1258.23  1260.28  1263.72
eigval :     1274.84  1282.10  1291.73  1312.83  1313.78  1313.92
eigval :     1317.07  1317.25  1327.72  1334.92  1335.53  1351.33
eigval :     1351.80  1367.30  1389.00  1396.31  1411.01  1411.45
eigval :     1417.56  1423.03  1423.82  1442.20  1443.48  1454.12
eigval :     1470.26  1470.40  1480.24  1487.30  1493.58  1494.39
eigval :     1508.37  1526.63  1535.86  1537.50  1562.92  1562.96
eigval :     1573.10  1573.11  1582.30  1583.13  1584.62  1585.27
eigval :     1595.00  1595.77  3077.34  3077.40  3079.55  3079.60
eigval :     3088.16  3088.52  3091.15  3091.19  3091.42  3091.46
eigval :     3096.66  3096.97  3099.07  3099.65  3100.73  3100.75
eigval :     3100.86  3101.01  3102.20  3102.40  3108.53  3108.65
eigval :     3108.99  3109.23  3113.44  3113.48  3113.48  3114.01

   temp. (K)  partition function   enthalpy   heat capacity  entropy
                                   cal/mol     cal/K/mol   cal/K/mol   J/K/mol
 298.15  VIB  0.810E+19            22709.164    143.933    142.138
         ROT  0.755E+08              888.752      2.981     39.029
         INT  0.612E+27            23597.916    146.914    181.167
         TR   0.158E+29             1481.254      4.968     45.253
         TOT                       25079.1701   151.8822   226.4199   947.3408

       T/K    H(0)-H(T)+PV         H(T)/Eh          T*S/Eh         G(T)/Eh
   ------------------------------------------------------------------------
    298.15    0.399662E-01    0.622529E+00    0.107579E+00    0.514949E+00
   ------------------------------------------------------------------------

         :::::::::::::::::::::::::::::::::::::::::::::::::::::
         ::                  THERMODYNAMIC                  ::
         :::::::::::::::::::::::::::::::::::::::::::::::::::::
         :: total free energy        -127.813297898757 Eh   ::
         ::.................................................::
         :: total energy             -128.328247014855 Eh   ::
         :: zero point energy           0.582562309685 Eh   ::
         :: G(RRHO) w/o ZPVE           -0.067613193586 Eh   ::
         :: G(RRHO) contrib.            0.514949116099 Eh   ::
         :::::::::::::::::::::::::::::::::::::::::::::::::::::

           -------------------------------------------------
          | TOTAL ENERGY             -128.328247014855 Eh   |
          | TOTAL ENTHALPY           -127.705718503669 Eh   |
          | TOTAL FREE ENERGY        -127.813297898757 Eh   |
          | GRADIENT NORM               0.000098380083 Eh/α |
           -------------------------------------------------

 * finished run on 2025/09/12 at 09:02:16.187
