   * xtb version 6.7.1 (edcfbbe) compiled by 'albert@albert-system' on 2024-07-22

   ID    Z sym.   atoms
    1    6 C      1-6, 8-13, 15-22, 24-28, 30-35, 37-47, 49, 50
    2    8 O      7, 36
    3    7 N      14, 23, 29, 48
    4    1 H      51-78

          program call               : xtb data2507/gas/NyDPO/NyDPO_gas_S0_crest.xyz --gfn 2 --ohess vtight --parallel 40 --molden --ceasefiles --namespace data2507/gas/NyDPO/NyDPO_gas_S0_finalOpt
          :  Hamiltonian                  GFN2-xTB          :
 * total energy  :  -128.3800141 Eh     change       -0.2570772E-08 Eh
 * total energy  :  -128.3800156 Eh     change       -0.1457923E-05 Eh
 * total energy  :  -128.3800184 Eh     change       -0.2750615E-05 Eh
 * total energy  :  -128.3800232 Eh     change       -0.4797518E-05 Eh
 * total energy  :  -128.3800257 Eh     change       -0.2594477E-05 Eh
 * total energy  :  -128.3800273 Eh     change       -0.1564520E-05 Eh
 * total energy  :  -128.3800289 Eh     change       -0.1598357E-05 Eh
 * total energy  :  -128.3800307 Eh     change       -0.1756579E-05 Eh
 * total energy  :  -128.3800324 Eh     change       -0.1721911E-05 Eh
 * total energy  :  -128.3800341 Eh     change       -0.1714315E-05 Eh
 * total energy  :  -128.3800381 Eh     change       -0.8819426E-06 Eh
 * total energy  :  -128.3800390 Eh     change       -0.9016166E-06 Eh
 * total energy  :  -128.3800398 Eh     change       -0.8382227E-06 Eh
 * total energy  :  -128.3800404 Eh     change       -0.6157671E-06 Eh
 * total energy  :  -128.3800409 Eh     change       -0.4371570E-06 Eh
 * total energy  :  -128.3800413 Eh     change       -0.4123565E-06 Eh
 * total energy  :  -128.3800417 Eh     change       -0.4026017E-06 Eh
 * total energy  :  -128.3800421 Eh     change       -0.3810004E-06 Eh
 * total energy  :  -128.3800421 Eh     change       -0.6325934E-08 Eh
   *** GEOMETRY OPTIMIZATION CONVERGED AFTER 22 ITERATIONS ***

 final structure:
================
78
 xtb: 6.7.1 (edcfbbe)
C            9.93616248447653        2.89004449526565        2.34172083882313
C            8.56292613949754        2.76410001229001        2.39015934749448
C            7.91872023503907        1.80400524220572        1.62448711961236
C            8.63881310359136        0.96040438605914        0.78801152346972
C           10.03544545518560        1.07457816345970        0.77148180737699
C           10.67238932739471        2.03458807801784        1.53516347932679
O           10.83417418718435        0.24458587864152        0.02417739324297
C           10.21405428084381       -0.72050569021244       -0.72976724474774
C           11.02836291296266       -1.54619264474155       -1.48181480016657
C           10.47499979505871       -2.52506490596871       -2.29428044721901
C            9.10314441886475       -2.65717697143852       -2.36050287233922
C            8.28172251466088       -1.83270325277389       -1.60645707872207
C            8.82078585082583       -0.86855795117881       -0.76398378123258
N            8.02278784592275       -0.02006396706313        0.00641035033816
C            6.61892705615540       -0.15251077861535       -0.00141140130139
C            6.02211454659350       -1.32001617589820        0.46594740606135
C            4.64845026402213       -1.45337808497301        0.45516903953380
C            3.83817969687991       -0.42182582688396       -0.01794390149456
C            2.37473054954058       -0.51844068684361       -0.03714440344721
C            1.71185992724943       -1.77212470048622       -0.07677663775080
C            0.34785181541148       -1.81557586203076       -0.08566279265534
C           -0.37666712962368       -0.60279272254442       -0.05593507885251
N           -1.71696373229363       -0.62017315073157       -0.04909092681102
C           -2.37489273716938        0.51904338475894       -0.02704942772238
C           -3.83839590946216        0.42211364108786       -0.01087869320213
C           -4.64910019229500        1.44494416884583        0.48020992589538
C           -6.02274423587228        1.31139485060791        0.48753984827827
C           -6.61907700971282        0.15214838532598       -0.00034689612867
N           -8.02305186884197        0.01943565597430        0.00590136832567
C           -8.63911020794012       -0.96967692544049        0.77632657154089
C           -7.91845256382117       -1.82699106221002        1.59819563492328
C           -8.56284074786079       -2.79527304812195        2.35334565902085
C           -9.93665005059828       -2.91604574654976        2.30862363612894
C          -10.67322628087686       -2.04753764704307        1.51640713076058
C          -10.03615589044795       -1.07929168881655        0.76335222488248
O          -10.83501290954300       -0.23676042394892        0.03024165660409
C          -10.21442365317931        0.73427603061835       -0.71569700958411
C          -11.02836888825742        1.57035536984913       -1.45654264135796
C          -10.47427454326475        2.55623690497762       -2.26005049728517
C           -9.10223233572921        2.68528240916940       -2.32856300191489
C           -8.28111711969518        1.85041988328368       -1.58567465404033
C           -8.82084982350796        0.87863315975118       -0.75249702046974
C           -5.81629887097674       -0.87720639415755       -0.48686690969089
C           -4.44497577841058       -0.74234567931808       -0.48589062196946
C           -1.71185215036951        1.77324080635121       -0.03651180553810
C           -0.34785990454916        1.81683333317631       -0.04287279182935
C            0.37658910042953        0.60369046493367       -0.04129116282816
N            1.71687480334701        0.62097010428044       -0.03296625900439
C            4.44503388426461        0.75110095841468       -0.47120465547675
C            5.81635035369093        0.88556873846215       -0.46955855526386
H           10.44175557745537        3.63786645516611        2.93197970360036
H            7.97722553486591        3.40888631978584        3.02718850265843
H            6.84624911663636        1.70569148082163        1.68501895425778
H           11.74811043956703        2.09264265617600        1.48850744911354
H           12.09536381371337       -1.40267079345330       -1.42175151006636
H           11.11864338546735       -3.16639279811170       -2.87535726011416
H            8.65628087652006       -3.40059088164981       -3.00266589598810
H            7.21042767659529       -1.93483308933851       -1.68117071369445
H            6.64421823314487       -2.11717700970567        0.84605152344991
H            4.20857954835126       -2.35647359114418        0.85027832675062
H            2.28780086942842       -2.68321877287670       -0.12344318286889
H           -0.19780837426577       -2.74656965772000       -0.11916274355678
H           -4.20979272995176        2.34083408805259        0.89193136375311
H           -6.64528431238678        2.10177733858978        0.88086205749195
H           -6.84542265121151       -1.73299068096191        1.65563911332943
H           -7.97678920103540       -3.45053431765096        2.97926894084345
H          -10.44242274926591       -3.67006564462787        2.89078516132307
H          -11.74929779852429       -2.10158982915343        1.47318788858078
H          -12.09564194115891        1.42953616369988       -1.39487149812031
H          -11.11763020165513        3.20557113074809       -2.83250293346124
H           -8.65505093570554        3.43432325468282       -2.96393572316740
H           -7.20967379340214        1.95042113931077       -1.66158908782139
H           -6.27913082085192       -1.77590578839380       -0.86732071486353
H           -3.81338611899082       -1.53215377486622       -0.86052449462711
H           -2.28744625432980        2.68535703880029       -0.06210043913129
H            0.19786653045120        2.74832402147453       -0.05357587738642
H            3.81371934261006        1.54777787647021       -0.83149314423711
H            6.27940433633805        1.79079280804641       -0.83393568074025

          :  Hamiltonian                  GFN2-xTB          :
         :: gradient norm              0.000055832266 Eh/a0 ::
         :: HOMO-LUMO gap              1.223587103049 eV    ::
         :: SCC energy              -130.626182463714 Eh    ::
         :: -> dispersion             -0.106607250660 Eh    ::
         :: repulsion energy           2.246140378936 Eh    ::

    * Orbital Energies and Occupations

         #    Occupation            Energy/Eh            Energy/eV
      -------------------------------------------------------------
         1        2.0000           -0.7254748             -19.7412
       ...           ...                  ...                  ...
       106        2.0000           -0.4169020             -11.3445
       107        2.0000           -0.4136089             -11.2549
       108        2.0000           -0.4135523             -11.2533
       109        2.0000           -0.4133209             -11.2470
       110        2.0000           -0.4102676             -11.1639
       111        2.0000           -0.4102269             -11.1628
       112        2.0000           -0.3951772             -10.7533
       113        2.0000           -0.3950080             -10.7487
       114        2.0000           -0.3879498             -10.5567
       115        2.0000           -0.3870395             -10.5319
       116        2.0000           -0.3572635              -9.7216
       117        2.0000           -0.3410972              -9.2817
       118        2.0000           -0.3404751              -9.2648 (HOMO)
       119                         -0.2955091              -8.0412 (LUMO)
       120                         -0.2639097              -7.1813
       121                         -0.2532743              -6.8919
       122                         -0.2368918              -6.4462
       123                         -0.2368665              -6.4455
       124                         -0.2355030              -6.4084
       125                         -0.2354719              -6.4075
       126                         -0.2272779              -6.1845
       127                         -0.2272258              -6.1831
       128                         -0.2172763              -5.9124
       129                         -0.2141751              -5.8280
       ...                                ...                  ...
       228                          0.6840880              18.6150
      -------------------------------------------------------------
                  HL-Gap            0.0449660 Eh            1.2236 eV

     #   Z          covCN         q      C6AA      α(0)
     1   6 C        2.919    -0.040    29.006     8.832
     2   6 C        2.919    -0.039    28.962     8.825
     3   6 C        2.924    -0.060    29.496     8.906
     4   6 C        2.922     0.043    27.047     8.529
     5   6 C        2.884     0.124    25.270     8.241
     6   6 C        2.920    -0.056    29.402     8.892
     7   8 O        1.709    -0.256    18.237     5.766
     8   6 C        2.884     0.125    25.266     8.241
     9   6 C        2.920    -0.056    29.403     8.892
    10   6 C        2.919    -0.041    29.009     8.832
    11   6 C        2.919    -0.039    28.969     8.826
    12   6 C        2.924    -0.060    29.501     8.907
    13   6 C        2.922     0.043    27.046     8.528
    14   7 N        2.751    -0.070    22.602     7.061
    15   6 C        2.921     0.067    26.502     8.442
    16   6 C        2.920    -0.041    29.026     8.835
    17   6 C        2.922    -0.032    28.810     8.802
    18   6 C        2.981     0.004    27.936     8.670
    19   6 C        2.954     0.098    25.818     8.334
    20   6 C        2.914    -0.044    29.099     8.846
    21   6 C        2.922    -0.024    28.602     8.770
    22   6 C        2.965     0.079    26.225     8.400
    23   7 N        1.849    -0.247    27.301     7.744
    24   6 C        2.954     0.098    25.819     8.334
    25   6 C        2.981     0.004    27.935     8.670
    26   6 C        2.922    -0.032    28.810     8.802
    27   6 C        2.920    -0.041    29.024     8.835
    28   6 C        2.921     0.067    26.501     8.442
    29   7 N        2.751    -0.070    22.604     7.061
    30   6 C        2.922     0.043    27.046     8.528
    31   6 C        2.924    -0.060    29.497     8.907
    32   6 C        2.919    -0.039    28.962     8.825
    33   6 C        2.919    -0.041    29.007     8.832
    34   6 C        2.920    -0.056    29.402     8.892
    35   6 C        2.884     0.124    25.270     8.241
    36   8 O        1.709    -0.256    18.238     5.766
    37   6 C        2.884     0.125    25.267     8.241
    38   6 C        2.920    -0.056    29.403     8.892
    39   6 C        2.919    -0.041    29.010     8.832
    40   6 C        2.919    -0.039    28.969     8.826
    41   6 C        2.924    -0.060    29.501     8.907
    42   6 C        2.922     0.043    27.045     8.528
    43   6 C        2.919    -0.040    28.991     8.830
    44   6 C        2.926    -0.026    28.657     8.779
    45   6 C        2.914    -0.044    29.099     8.846
    46   6 C        2.922    -0.024    28.603     8.770
    47   6 C        2.965     0.079    26.225     8.400
    48   7 N        1.849    -0.247    27.301     7.744
    49   6 C        2.926    -0.026    28.657     8.779
    50   6 C        2.919    -0.040    28.992     8.830
    51   1 H        0.926     0.037     2.483     2.464
    52   1 H        0.926     0.036     2.506     2.475
    53   1 H        0.926     0.036     2.502     2.474
    54   1 H        0.926     0.050     2.322     2.383
    55   1 H        0.926     0.050     2.322     2.383
    56   1 H        0.926     0.037     2.485     2.465
    57   1 H        0.926     0.035     2.517     2.481
    58   1 H        0.926     0.034     2.532     2.488
    59   1 H        0.926     0.042     2.420     2.433
    60   1 H        0.926     0.039     2.461     2.453
    61   1 H        0.926     0.039     2.466     2.456
    62   1 H        0.926     0.051     2.305     2.374
    63   1 H        0.926     0.039     2.460     2.453
    64   1 H        0.926     0.042     2.420     2.433
    65   1 H        0.926     0.036     2.503     2.474
    66   1 H        0.926     0.036     2.506     2.476
    67   1 H        0.926     0.037     2.483     2.464
    68   1 H        0.926     0.050     2.323     2.383
    69   1 H        0.926     0.050     2.322     2.383
    70   1 H        0.926     0.037     2.485     2.465
    71   1 H        0.926     0.035     2.518     2.481
    72   1 H        0.926     0.034     2.533     2.489
    73   1 H        0.926     0.044     2.391     2.418
    74   1 H        0.926     0.061     2.186     2.312
    75   1 H        0.926     0.039     2.466     2.456
    76   1 H        0.926     0.051     2.305     2.374
    77   1 H        0.926     0.061     2.187     2.313
    78   1 H        0.926     0.044     2.392     2.418

molecular dipole:
                 x           y           z       tot (Debye)
 q only:        0.007      -0.001      -0.064
   full:        0.007      -0.001      -0.043       0.110

 projected vibrational frequencies (cm⁻¹)
eigval :       -0.00    -0.00    -0.00    -0.00     0.00     0.00
eigval :        7.07     7.68    13.11    19.66    24.68    29.59
eigval :       36.05    40.56    47.04    59.74    61.20    69.77
eigval :       76.77    79.87   112.14   116.10   120.34   133.26
eigval :      162.78   164.32   184.16   189.60   200.14   236.60
eigval :      249.14   251.84   259.20   260.37   270.83   273.67
eigval :      292.58   331.94   340.78   354.21   361.80   377.20
eigval :      377.62   381.74   387.80   391.62   402.32   419.47
eigval :      421.37   427.89   429.28   430.65   437.52   446.02
eigval :      446.90   460.42   466.38   500.59   501.90   510.28
eigval :      510.32   522.22   522.44   524.33   541.31   551.84
eigval :      557.24   577.50   585.76   588.13   591.94   608.43
eigval :      609.54   611.68   622.44   655.17   660.06   661.37
eigval :      661.46   661.64   665.43   675.23   693.10   706.44
eigval :      707.58   737.34   754.52   778.58   778.59   779.03
eigval :      779.11   800.37   802.40   802.42   817.32   829.03
eigval :      839.65   844.13   855.04   855.10   863.12   863.24
eigval :      865.27   865.43   873.22   874.36   883.14   896.37
eigval :      896.43   897.68   897.74   909.40   913.12   913.35
eigval :      914.66   914.70   916.97   917.13   919.98   922.95
eigval :      923.52   926.93   932.33   932.50   933.21   943.71
eigval :     1012.92  1013.00  1083.63  1084.81  1090.31  1090.37
eigval :     1091.30  1091.36  1108.20  1108.23  1121.47  1121.51
eigval :     1126.01  1128.62  1142.09  1154.15  1172.04  1172.06
eigval :     1175.79  1175.80  1183.82  1184.45  1192.65  1195.99
eigval :     1201.41  1201.52  1201.73  1224.21  1224.32  1243.18
eigval :     1243.20  1260.00  1262.11  1262.17  1265.61  1275.87
eigval :     1276.06  1307.52  1310.92  1310.97  1311.86  1311.94
eigval :     1318.95  1325.59  1333.47  1340.33  1340.60  1351.94
eigval :     1357.22  1364.81  1392.01  1403.86  1404.38  1424.38
eigval :     1424.50  1442.45  1443.21  1448.07  1473.90  1483.52
eigval :     1484.74  1489.08  1489.18  1506.01  1506.45  1517.52
eigval :     1555.65  1559.25  1567.35  1567.48  1570.95  1574.98
eigval :     1580.85  1580.87  1589.78  1590.01  1594.21  1595.14
eigval :     1603.86  1603.92  3081.22  3081.38  3084.20  3084.54
eigval :     3086.73  3086.82  3087.99  3088.07  3088.84  3088.85
eigval :     3093.27  3093.46  3097.81  3098.26  3098.29  3098.40
eigval :     3098.75  3098.77  3105.22  3105.43  3106.60  3106.63
eigval :     3110.06  3110.14  3112.45  3112.47  3113.00  3113.04

   temp. (K)  partition function   enthalpy   heat capacity  entropy
                                   cal/mol     cal/K/mol   cal/K/mol   J/K/mol
 298.15  VIB  0.160E+19            22451.087    142.976    139.853
         ROT  0.752E+08              888.752      2.981     39.022
         INT  0.120E+27            23339.839    145.957    178.875
         TR   0.158E+29             1481.254      4.968     45.253
         TOT                       24821.0930   150.9249   224.1278   937.7507

       T/K    H(0)-H(T)+PV         H(T)/Eh          T*S/Eh         G(T)/Eh
   ------------------------------------------------------------------------
    298.15    0.395549E-01    0.625357E+00    0.106490E+00    0.518867E+00
   ------------------------------------------------------------------------

         :::::::::::::::::::::::::::::::::::::::::::::::::::::
         ::                  THERMODYNAMIC                  ::
         :::::::::::::::::::::::::::::::::::::::::::::::::::::
         :: total free energy        -127.861175030905 Eh   ::
         ::.................................................::
         :: total energy             -128.380042084777 Eh   ::
         :: zero point energy           0.585802468749 Eh   ::
         :: G(RRHO) w/o ZPVE           -0.066935414876 Eh   ::
         :: G(RRHO) contrib.            0.518867053872 Eh   ::
         :::::::::::::::::::::::::::::::::::::::::::::::::::::

           -------------------------------------------------
          | TOTAL ENERGY             -128.380042084777 Eh   |
          | TOTAL ENTHALPY           -127.754684686562 Eh   |
          | TOTAL FREE ENERGY        -127.861175030905 Eh   |
          | GRADIENT NORM               0.000055829268 Eh/α |
          | HOMO-LUMO GAP               1.223586711225 eV   |
           -------------------------------------------------

 * finished run on 2025/09/12 at 08:53:45.772
