   * xtb version 6.7.1 (edcfbbe) compiled by 'albert@albert-system' on 2024-07-22

   ID    Z sym.   atoms
    1    6 C      1-6, 8-13, 15-22, 24-28, 30-35, 37-47, 49, 50
    2    8 O      7, 36
    3    7 N      14, 23, 29, 48
    4    1 H      51-78

          program call               : xtb data2507/gas/NyDPO/NyDPO.xyz --gfn 2 --ohess vtight --parallel 40 --molden --ceasefiles --namespace data2507/gas/NyDPO/NyDPO_gas_S0_preOpt
          :  Hamiltonian                  GFN2-xTB          :
 * total energy  :  -128.3545405 Eh     change       -0.3188461E-08 Eh
 * total energy  :  -128.3686905 Eh     change       -0.1415003E-01 Eh
 * total energy  :  -128.3733428 Eh     change       -0.4652272E-02 Eh
 * total energy  :  -128.3748853 Eh     change       -0.1542554E-02 Eh
 * total energy  :  -128.3764787 Eh     change       -0.1593313E-02 Eh
 * total energy  :  -128.3773187 Eh     change       -0.8400392E-03 Eh
 * total energy  :  -128.3776731 Eh     change       -0.3543611E-03 Eh
 * total energy  :  -128.3777790 Eh     change       -0.1059831E-03 Eh
 * total energy  :  -128.3778264 Eh     change       -0.4734928E-04 Eh
 * total energy  :  -128.3778661 Eh     change       -0.3966528E-04 Eh
 * total energy  :  -128.3798643 Eh     change       -0.9034046E-06 Eh
 * total energy  :  -128.3798653 Eh     change       -0.9810444E-06 Eh
 * total energy  :  -128.3798664 Eh     change       -0.1054711E-05 Eh
 * total energy  :  -128.3798675 Eh     change       -0.1112836E-05 Eh
 * total energy  :  -128.3798685 Eh     change       -0.1043508E-05 Eh
 * total energy  :  -128.3798696 Eh     change       -0.1045656E-05 Eh
 * total energy  :  -128.3798705 Eh     change       -0.9612430E-06 Eh
 * total energy  :  -128.3798715 Eh     change       -0.9129355E-06 Eh
 * total energy  :  -128.3798715 Eh     change       -0.6736315E-08 Eh
   *** GEOMETRY OPTIMIZATION CONVERGED AFTER 185 ITERATIONS ***

 final structure:
================
78
 xtb: 6.7.1 (edcfbbe)
C            9.97418103114508       -2.59681541452306        2.63344332057665
C            8.60140127702972       -2.65015897451148        2.50479294714758
C            7.94501864371510       -1.79804903317720        1.62943939205355
C            8.65281704494478       -0.87061752846680        0.87550227427011
C           10.04917735650493       -0.84480921529671        0.99146458434995
C           10.69804714802837       -1.69518460118437        1.86672227149071
O           10.83530321756681       -0.00181129435535        0.24502051674967
C           10.20226614874294        0.84116247094463       -0.63451549751519
C           11.00246392677334        1.69277327316198       -1.37252064890848
C           10.43401456651378        2.59431920945447       -2.26076857507600
C            9.06139180318960        2.64659035982834       -2.39109162557340
C            8.25387227597987        1.79317138461824       -1.65434728296661
C            8.80874315479911        0.86549865520676       -0.78191262849583
N            8.02469456048355       -0.00322063341421       -0.02069061187021
C            6.62054611317872       -0.00653424005955       -0.15646463807118
C            6.03391461228134       -0.38957413151819       -1.35888298842975
C            4.66046894217601       -0.39135276518858       -1.49559148564469
C            3.83940424246829       -0.00881262232745       -0.43497989278685
C            2.37560107818692        0.00331176896312       -0.53176671325010
C            1.70679778084708        0.03512273377063       -1.78283732123318
C            0.34262635965603        0.03558466719244       -1.82188695340157
C           -0.37859686627512        0.01262307001026       -0.60707561092431
N           -1.71850661771268        0.00507701444383       -0.61969093721243
C           -2.37454926605160        0.00134075268170        0.52137718223926
C           -3.83839050109084       -0.00988450575057        0.42582346592038
C           -4.65764765483537       -0.40465522990531        1.48335843533983
C           -6.03124794970429       -0.40164157743984        1.34892660742288
C           -6.62000346329402       -0.00465770197933        0.15201323791766
N           -8.02431068895346        0.00013297841743        0.01901039352595
C           -8.65433549531241       -0.85603163063715       -0.88673664980869
C           -7.94782338116321       -1.77079778428233       -1.65719639198839
C           -8.60606864701254       -2.61147069196317       -2.54214820495155
C           -9.97950449930310       -2.55942177719210       -2.66416317963535
C          -10.70203429955551       -1.67103565853189       -1.88094399765967
C          -10.05127189483743       -0.83212994105183       -0.99605425413425
O          -10.83625072185807       -0.00262453391427       -0.23350227140326
C          -10.20158729170138        0.82775705806431        0.65670915233129
C          -11.00093028690194        1.66448677440645        1.41248105847198
C          -10.43106058305334        2.55357947837709        2.31226147961411
C           -9.05794626519937        2.60885681320809        2.43607767368973
C           -8.25132384653778        1.77017811802571        1.68165493806181
C           -8.80744269456607        0.85423915166423        0.79765422263722
C           -5.80984890005877        0.38125260819056       -0.91335625057202
C           -4.43902936642540        0.37540277443313       -0.77500850104995
C           -1.70569515117777        0.02602081463753        1.77260544113984
C           -0.34157998975146        0.02568781460869        1.81155871784865
C            0.37936855290183        0.00900610737463        0.59647758049053
N            1.71918649711363        0.00069478301131        0.60912127195163
C            4.43812884263659        0.36302686577320        0.77110433054718
C            5.80864945434355        0.36709754085402        0.91190921117660
H           10.48924623406359       -3.25511038782695        3.31508756533220
H            8.02571517601726       -3.35814940202514        3.08094939704357
H            6.87304143236356       -1.86080991046946        1.52645274589663
H           11.77308283173406       -1.63983486226935        1.92966770467880
H           12.07035212356093        1.63849916556812       -1.23331414065136
H           11.06684201476342        3.25355083976636       -2.83366074084216
H            8.60311176787742        3.35491697819474       -3.06413884007924
H            7.18132159916642        1.85521964790220       -1.75252790728446
H            6.66404333907453       -0.69433691569511       -2.18171519977578
H            4.23251178136360       -0.72251038149972       -2.42931261716950
H            2.27598814475466        0.07949237011202       -2.69799282308021
H           -0.20533313264498        0.06003103805076       -2.75182367764271
H           -4.22794691462016       -0.74659140094184        2.41239191040801
H           -6.65991463829032       -0.71617963637719        2.16919679859728
H           -6.87530812338022       -1.83288059886239       -1.55969870755682
H           -8.03126630306316       -3.30961024178727       -3.13106371986029
H          -10.49602633558395       -3.20875016613016       -3.35326171037136
H          -11.77747748916547       -1.61741673757037       -1.93816769522243
H          -12.06932310978023        1.60863206807902        1.27785666767116
H          -11.06319629211172        3.20109060162315        2.89911188461239
H           -8.59861045674599        3.30808147965638        3.11786457265496
H           -7.17851089578326        1.83474856049227        1.77516281950053
H           -6.26672563442865        0.68942260565914       -1.84229999581118
H           -3.80157126147858        0.67606421006565       -1.59118369257849
H           -2.27499917414933        0.06594608080833        2.68790223483770
H            0.20658102085267        0.04496692292513        2.74149415454566
H            3.79925727352853        0.65450303316694        1.58948618138895
H            6.26401871324554        0.66430748473545        1.84515723635358

          :  Hamiltonian                  GFN2-xTB          :
         :: gradient norm              0.000066525621 Eh/a0 ::
         :: HOMO-LUMO gap              1.200288492916 eV    ::
         :: SCC energy              -130.625890648125 Eh    ::
         :: -> dispersion             -0.106584579398 Eh    ::
         :: repulsion energy           2.246019181573 Eh    ::

    * Orbital Energies and Occupations

         #    Occupation            Energy/Eh            Energy/eV
      -------------------------------------------------------------
         1        2.0000           -0.7253070             -19.7366
       ...           ...                  ...                  ...
       106        2.0000           -0.4169687             -11.3463
       107        2.0000           -0.4135145             -11.2523
       108        2.0000           -0.4134785             -11.2513
       109        2.0000           -0.4134449             -11.2504
       110        2.0000           -0.4102327             -11.1630
       111        2.0000           -0.4101961             -11.1620
       112        2.0000           -0.3951333             -10.7521
       113        2.0000           -0.3947865             -10.7427
       114        2.0000           -0.3879101             -10.5556
       115        2.0000           -0.3870255             -10.5315
       116        2.0000           -0.3573023              -9.7227
       117        2.0000           -0.3409616              -9.2780
       118        2.0000           -0.3403437              -9.2612 (HOMO)
       119                         -0.2962339              -8.0609 (LUMO)
       120                         -0.2644318              -7.1956
       121                         -0.2541348              -6.9154
       122                         -0.2369584              -6.4480
       123                         -0.2369124              -6.4467
       124                         -0.2354596              -6.4072
       125                         -0.2354181              -6.4061
       126                         -0.2271901              -6.1822
       127                         -0.2271439              -6.1809
       128                         -0.2166598              -5.8956
       129                         -0.2139698              -5.8224
       ...                                ...                  ...
       228                          0.6846490              18.6302
      -------------------------------------------------------------
                  HL-Gap            0.0441098 Eh            1.2003 eV

     #   Z          covCN         q      C6AA      α(0)
     1   6 C        2.919    -0.041    29.009     8.832
     2   6 C        2.919    -0.039    28.962     8.825
     3   6 C        2.924    -0.060    29.498     8.907
     4   6 C        2.922     0.043    27.044     8.528
     5   6 C        2.884     0.124    25.271     8.241
     6   6 C        2.920    -0.056    29.402     8.892
     7   8 O        1.709    -0.256    18.240     5.766
     8   6 C        2.884     0.124    25.268     8.241
     9   6 C        2.920    -0.056    29.404     8.892
    10   6 C        2.919    -0.041    29.011     8.833
    11   6 C        2.919    -0.039    28.968     8.826
    12   6 C        2.924    -0.060    29.501     8.907
    13   6 C        2.922     0.043    27.043     8.528
    14   7 N        2.751    -0.071    22.612     7.062
    15   6 C        2.922     0.067    26.494     8.441
    16   6 C        2.920    -0.041    29.021     8.834
    17   6 C        2.922    -0.032    28.809     8.802
    18   6 C        2.980     0.004    27.936     8.670
    19   6 C        2.952     0.098    25.824     8.335
    20   6 C        2.914    -0.044    29.096     8.845
    21   6 C        2.922    -0.024    28.605     8.771
    22   6 C        2.964     0.079    26.224     8.400
    23   7 N        1.849    -0.247    27.302     7.744
    24   6 C        2.953     0.098    25.823     8.335
    25   6 C        2.980     0.004    27.936     8.670
    26   6 C        2.922    -0.032    28.810     8.802
    27   6 C        2.920    -0.041    29.022     8.834
    28   6 C        2.922     0.067    26.495     8.441
    29   7 N        2.751    -0.071    22.610     7.062
    30   6 C        2.922     0.043    27.044     8.528
    31   6 C        2.924    -0.060    29.498     8.907
    32   6 C        2.919    -0.039    28.962     8.825
    33   6 C        2.919    -0.041    29.008     8.832
    34   6 C        2.920    -0.056    29.402     8.892
    35   6 C        2.884     0.124    25.271     8.241
    36   8 O        1.709    -0.256    18.239     5.766
    37   6 C        2.884     0.124    25.267     8.241
    38   6 C        2.920    -0.056    29.404     8.892
    39   6 C        2.919    -0.041    29.011     8.833
    40   6 C        2.919    -0.039    28.969     8.826
    41   6 C        2.924    -0.060    29.501     8.907
    42   6 C        2.922     0.043    27.044     8.528
    43   6 C        2.919    -0.040    28.987     8.829
    44   6 C        2.926    -0.026    28.664     8.780
    45   6 C        2.914    -0.044    29.096     8.845
    46   6 C        2.922    -0.024    28.605     8.771
    47   6 C        2.964     0.079    26.224     8.400
    48   7 N        1.850    -0.247    27.302     7.744
    49   6 C        2.926    -0.027    28.664     8.780
    50   6 C        2.919    -0.040    28.985     8.829
    51   1 H        0.926     0.037     2.484     2.465
    52   1 H        0.926     0.036     2.508     2.476
    53   1 H        0.926     0.035     2.511     2.478
    54   1 H        0.926     0.050     2.323     2.384
    55   1 H        0.926     0.050     2.323     2.383
    56   1 H        0.926     0.037     2.486     2.465
    57   1 H        0.926     0.035     2.518     2.482
    58   1 H        0.926     0.033     2.537     2.491
    59   1 H        0.926     0.042     2.420     2.433
    60   1 H        0.926     0.039     2.459     2.452
    61   1 H        0.926     0.039     2.466     2.456
    62   1 H        0.926     0.051     2.307     2.375
    63   1 H        0.926     0.039     2.459     2.452
    64   1 H        0.926     0.042     2.421     2.433
    65   1 H        0.926     0.035     2.509     2.477
    66   1 H        0.926     0.036     2.507     2.476
    67   1 H        0.926     0.037     2.484     2.465
    68   1 H        0.926     0.050     2.323     2.383
    69   1 H        0.926     0.050     2.322     2.383
    70   1 H        0.926     0.037     2.485     2.465
    71   1 H        0.926     0.035     2.518     2.481
    72   1 H        0.926     0.034     2.537     2.491
    73   1 H        0.926     0.044     2.390     2.418
    74   1 H        0.926     0.063     2.167     2.302
    75   1 H        0.926     0.039     2.466     2.456
    76   1 H        0.926     0.051     2.307     2.375
    77   1 H        0.926     0.063     2.166     2.301
    78   1 H        0.926     0.044     2.391     2.418

molecular dipole:
                 x           y           z       tot (Debye)
 q only:       -0.005       0.053      -0.001
   full:       -0.005       0.036      -0.001       0.093

 projected vibrational frequencies (cm⁻¹)
eigval :       -0.00    -0.00    -0.00     0.00     0.00     0.00
eigval :        6.30     7.07    13.50    18.18    24.83    26.88
eigval :       36.74    39.84    46.20    55.65    56.40    66.68
eigval :       77.23    80.34   112.81   114.93   119.77   132.32
eigval :      159.56   163.89   182.72   188.89   199.49   237.25
eigval :      249.17   251.68   259.07   262.18   271.01   273.40
eigval :      292.48   331.86   339.66   353.33   362.05   375.19
eigval :      375.71   381.54   388.38   391.14   401.94   419.87
eigval :      421.43   427.59   428.80   430.00   438.22   445.63
eigval :      446.68   458.87   468.41   497.43   501.13   510.29
eigval :      510.33   522.16   522.24   524.67   540.80   551.56
eigval :      557.08   576.55   585.90   587.93   591.31   608.16
eigval :      610.06   611.81   622.47   655.24   659.97   661.22
eigval :      661.31   661.48   663.99   675.25   692.70   706.24
eigval :      707.63   737.25   754.01   778.45   778.49   778.89
eigval :      778.95   800.11   801.55   802.40   817.11   827.69
eigval :      839.88   841.99   855.01   855.05   862.95   863.06
eigval :      864.73   864.84   872.05   873.01   882.93   896.12
eigval :      896.18   897.49   897.53   909.44   912.99   913.28
eigval :      914.60   914.62   916.68   916.99   918.54   922.13
eigval :      922.31   925.84   932.10   932.27   933.09   943.70
eigval :     1012.91  1012.94  1082.83  1083.66  1090.11  1090.14
eigval :     1091.10  1091.15  1108.18  1108.20  1121.33  1121.36
eigval :     1125.15  1127.84  1143.89  1155.05  1172.15  1172.16
eigval :     1175.84  1175.85  1183.87  1184.51  1193.00  1197.19
eigval :     1201.20  1201.28  1202.04  1224.29  1224.50  1243.16
eigval :     1243.17  1259.16  1262.02  1262.07  1266.08  1276.24
eigval :     1276.80  1308.05  1311.07  1311.10  1311.79  1312.23
eigval :     1319.24  1326.82  1333.65  1340.90  1341.17  1351.61
eigval :     1357.47  1364.03  1393.22  1403.52  1404.28  1424.42
eigval :     1424.55  1442.41  1443.25  1447.38  1474.01  1482.22
eigval :     1484.59  1489.43  1489.51  1506.10  1506.62  1517.55
eigval :     1555.45  1559.27  1567.30  1567.44  1570.74  1574.45
eigval :     1580.88  1580.89  1589.82  1590.09  1594.24  1595.30
eigval :     1603.91  1603.98  3081.89  3082.02  3084.59  3084.92
eigval :     3086.72  3086.81  3087.90  3087.92  3088.67  3088.71
eigval :     3094.30  3094.46  3098.06  3098.09  3098.49  3098.55
eigval :     3099.91  3100.30  3104.93  3104.97  3106.08  3106.18
eigval :     3111.34  3111.52  3112.37  3112.39  3112.94  3112.97

   temp. (K)  partition function   enthalpy   heat capacity  entropy
                                   cal/mol     cal/K/mol   cal/K/mol   J/K/mol
 298.15  VIB  0.275E+19            22490.788    142.822    140.394
         ROT  0.753E+08              888.752      2.981     39.023
         INT  0.207E+27            23379.540    145.803    179.417
         TR   0.158E+29             1481.254      4.968     45.253
         TOT                       24860.7939   150.7710   224.6701   940.0196

       T/K    H(0)-H(T)+PV         H(T)/Eh          T*S/Eh         G(T)/Eh
   ------------------------------------------------------------------------
    298.15    0.396182E-01    0.625318E+00    0.106748E+00    0.518570E+00
   ------------------------------------------------------------------------

         :::::::::::::::::::::::::::::::::::::::::::::::::::::
         ::                  THERMODYNAMIC                  ::
         :::::::::::::::::::::::::::::::::::::::::::::::::::::
         :: total free energy        -127.861301745080 Eh   ::
         ::.................................................::
         :: total energy             -128.379871466552 Eh   ::
         :: zero point energy           0.585699528612 Eh   ::
         :: G(RRHO) w/o ZPVE           -0.067129807140 Eh   ::
         :: G(RRHO) contrib.            0.518569721472 Eh   ::
         :::::::::::::::::::::::::::::::::::::::::::::::::::::

           -------------------------------------------------
          | TOTAL ENERGY             -128.379871466552 Eh   |
          | TOTAL ENTHALPY           -127.754553741000 Eh   |
          | TOTAL FREE ENERGY        -127.861301745080 Eh   |
          | GRADIENT NORM               0.000066525717 Eh/α |
          | HOMO-LUMO GAP               1.200288466519 eV   |
           -------------------------------------------------

 * finished run on 2025/09/12 at 08:49:47.388
