   * xtb version 6.7.1 (edcfbbe) compiled by 'albert@albert-system' on 2024-07-22

   ID    Z sym.   atoms
    1    6 C      1-6, 8-13, 15-22, 24-28, 30-35, 37-47, 49, 50
    2    8 O      7, 36
    3    7 N      14, 23, 29, 48
    4    1 H      51-78

          program call               : xtb data2507/gas/NyDPO/NyDPO_gas_S0_finalOpt.xtbopt.xyz --gfn 2 --spinpol --tblite --uhf 2 --ohess vtight --parallel 40 --molden --ceasefiles --namespace data2507/gas/NyDPO/NyDPO_gas_T1_preOpt
 * total energy  :  -128.3209205 Eh     change       -0.7402434E-08 Eh
 * total energy  :  -128.3250341 Eh     change       -0.4113637E-02 Eh
 * total energy  :  -128.3265174 Eh     change       -0.1483330E-02 Eh
 * total energy  :  -128.3266851 Eh     change       -0.1676378E-03 Eh
 * total energy  :  -128.3267721 Eh     change       -0.8700980E-04 Eh
 * total energy  :  -128.3267897 Eh     change       -0.1766300E-04 Eh
 * total energy  :  -128.3268081 Eh     change       -0.1838859E-04 Eh
 * total energy  :  -128.3268256 Eh     change       -0.1746976E-04 Eh
 * total energy  :  -128.3268417 Eh     change       -0.1607012E-04 Eh
 * total energy  :  -128.3268654 Eh     change       -0.2376409E-04 Eh
 * total energy  :  -128.3280436 Eh     change       -0.4527622E-06 Eh
 * total energy  :  -128.3280441 Eh     change       -0.5001410E-06 Eh
 * total energy  :  -128.3280446 Eh     change       -0.4483411E-06 Eh
 * total energy  :  -128.3280451 Eh     change       -0.4964133E-06 Eh
 * total energy  :  -128.3280455 Eh     change       -0.4647314E-06 Eh
 * total energy  :  -128.3280460 Eh     change       -0.5009330E-06 Eh
 * total energy  :  -128.3280465 Eh     change       -0.4711673E-06 Eh
 * total energy  :  -128.3280470 Eh     change       -0.5013663E-06 Eh
 * total energy  :  -128.3280470 Eh     change       -0.1712627E-07 Eh
   *** GEOMETRY OPTIMIZATION CONVERGED AFTER 620 ITERATIONS ***

 final structure:
================
78
 xtb: 6.7.1 (edcfbbe)
C           10.01186239010929        2.14920059210234        2.97612883333333
C            8.64019189021500        1.99222546200446        3.03335492334000
C            7.97470606169427        1.27070026809036        2.05603316816488
C            8.67229356874354        0.69937814233724        0.99690028184152
C           10.06810633119872        0.84228521167865        0.96251584295398
C           10.72581800373717        1.56542916460349        1.94068413217041
O           10.83899684712530        0.27175818515859       -0.01739638697116
C           10.19617762106799       -0.44622378413249       -0.99250587534751
C           10.98170589288968       -1.01309039348229       -1.97940253971932
C           10.39654814410657       -1.73236285821016       -3.01039520881089
C            9.02205862741793       -1.86720386528719       -3.05466463360770
C            8.22934752664396       -1.30364235015783       -2.06845398572963
C            8.80130828569734       -0.60051581039709       -1.01332763436247
N            8.03602112285215       -0.02732630562887       -0.00366384103277
C            6.62751627194892       -0.18157464636669        0.00511325065816
C            6.06230322335669       -1.43614194342754        0.21640101134755
C            4.69354162086193       -1.59217144355145        0.21935895255716
C            3.84314302125878       -0.49716099858218        0.01833154177275
C            2.39964297989274       -0.60458317740118        0.01496605217659
C            1.69367059309403       -1.81456221350433        0.00390871837572
C            0.31947171293630       -1.82225951672171       -0.00552722076670
C           -0.39810643358035       -0.60440500409945        0.00587445119047
N           -1.70534962920395       -0.54739571997493        0.00002820572713
C           -2.39971237507339        0.60513323458224        0.02364933275375
C           -3.84320478103749        0.49762409753929        0.02552454202503
C           -4.69362268722710        1.58967811680721        0.24196243917885
C           -6.06237381436120        1.43363004184336        0.23702083646658
C           -6.62754795732379        0.18210402838990        0.00832052642240
N           -8.03604454451746        0.02793471914998       -0.00215315957426
C           -8.67202335069941       -0.71214121868643        0.98875275258503
C           -7.97403120382381       -1.29822073867791        2.03951024800557
C           -8.63924822483426       -2.03275649045213        3.00728084846178
C          -10.01102108855410       -2.18830552611391        2.94877315016328
C          -10.72535461473568       -1.59012446129243        1.92184152873258
C          -10.06790555218381       -0.85397945764664        0.95324858149277
O          -10.83914049510939       -0.26979681107352       -0.01831980206833
C          -10.19658847438836        0.46117839118728       -0.98391274950712
C          -10.98245144535317        1.04179557275795       -1.96250668525523
C          -10.39757018749530        1.77486928745770       -2.98389638850858
C           -9.02305635724947        1.90977499598550       -3.02709533547941
C           -8.23001397302965        1.33247134499776       -2.04912794034384
C           -8.80168371463902        0.61519951631972       -1.00342051577461
C           -5.79708729116652       -0.91590163169487       -0.20635341512579
C           -4.43111638414451       -0.75879850138376       -0.19075239568032
C           -1.69372510820497        1.81513064817280        0.03024441072589
C           -0.31952867346199        1.82293230364279        0.02100980755446
C            0.39807962104278        0.60505631828154        0.01470356895391
N            1.70532730273483        0.54819826703977        0.00808940649246
C            4.43108772644791        0.76214749447323       -0.18031331844024
C            5.79706234067277        0.91938136245072       -0.19394962178616
H           10.53207549256859        2.71385216295371        3.73353548653103
H            8.07533207378050        2.42908151443481        3.84232446765496
H            6.90541411967610        1.14339860607977        2.11519820172674
H           11.79828584390857        1.65593160834491        1.87549144238806
H           12.04979392897122       -0.87604424994745       -1.92443088152681
H           11.01649479977066       -2.17366733166573       -3.77461061963757
H            8.55394520025936       -2.41130619408437       -3.86041009457796
H            7.15656121513327       -1.40320296511388       -2.11742528608232
H            6.70870088225428       -2.28610359598206        0.38246435046610
H            4.28481859502863       -2.57435930114670        0.39868176419455
H            2.23196486635712       -2.74883891290919       -0.00907441084240
H           -0.23694308476296       -2.74595991833351       -0.01783940858030
H           -4.28492550429749        2.56928741125941        0.43493641817825
H           -6.70878661973597        2.28115073734745        0.41504340976219
H           -6.90464396834384       -1.17222378410680        2.09975020297948
H           -8.07409022265088       -2.48090287957188        3.80984202548679
H          -10.53102743289080       -2.76301164319078        3.69872291367401
H          -11.79790263561428       -1.67925034994904        1.85608917877650
H          -12.05056536539173        0.90445013226991       -1.90880920448475
H          -11.01776805532532        2.22683255703308       -3.74165279562752
H           -8.55518467593105        2.46466757004704       -3.82558874904481
H           -7.15721321089028        1.43229205837535       -2.09730971633404
H           -6.23703017681172       -1.88614045914391       -0.38683006283097
H           -3.78004636007604       -1.60327419759021       -0.35609711002679
H           -2.23196713204678        2.74952822648208        0.03088094762129
H            0.23688957116109        2.74670762458378        0.02221564198246
H            3.78003784634500        1.60889524243363       -0.33367532366765
H            6.23702316298133        1.89203605665094       -0.36087946206401

 projected vibrational frequencies (cm⁻¹)
eigval :       -0.00    -0.00    -0.00    -0.00     0.00     0.00
eigval :        6.08     6.97    15.05    17.51    25.73    26.61
eigval :       38.31    41.33    49.18    52.77    55.64    66.82
eigval :       75.67    81.89   112.92   113.48   122.02   127.78
eigval :      159.93   162.03   180.11   187.23   198.89   237.81
eigval :      247.97   250.16   258.85   259.55   271.50   273.49
eigval :      295.07   324.25   336.27   361.83   362.73   374.60
eigval :      375.34   378.14   383.16   391.29   401.93   421.00
eigval :      421.80   426.79   428.97   430.00   436.90   450.90
eigval :      451.01   454.76   469.73   485.18   494.63   506.52
eigval :      506.85   510.11   524.11   524.23   537.65   544.66
eigval :      550.20   566.89   571.83   585.23   587.82   603.13
eigval :      604.57   610.52   611.26   619.14   655.27   662.82
eigval :      663.55   665.01   665.01   672.48   677.73   683.47
eigval :      692.65   705.18   728.86   768.60   777.64   778.10
eigval :      778.43   778.51   778.80   799.50   800.47   807.73
eigval :      808.12   819.83   851.71   855.21   855.23   857.28
eigval :      858.51   860.95   865.12   865.13   866.41   866.47
eigval :      873.10   882.53   897.44   897.47   898.48   898.48
eigval :      908.43   908.49   915.19   915.33   915.72   915.73
eigval :      918.68   918.71   922.21   923.40   923.92   925.38
eigval :     1007.74  1008.35  1079.14  1083.40  1087.94  1087.94
eigval :     1089.09  1089.46  1110.18  1110.19  1115.77  1121.53
eigval :     1121.63  1123.36  1133.99  1145.41  1169.72  1170.60
eigval :     1175.33  1175.35  1182.48  1182.73  1192.80  1195.35
eigval :     1203.81  1203.83  1207.27  1222.27  1222.89  1230.04
eigval :     1240.79  1240.82  1258.63  1259.14  1260.86  1264.29
eigval :     1274.02  1281.05  1291.58  1312.84  1313.61  1313.74
eigval :     1316.71  1317.21  1326.82  1334.75  1335.35  1351.04
eigval :     1351.48  1367.17  1388.87  1394.25  1410.95  1412.05
eigval :     1416.36  1422.91  1423.73  1442.46  1443.33  1454.54
eigval :     1470.34  1470.42  1480.28  1486.42  1492.62  1493.15
eigval :     1507.75  1526.27  1535.98  1537.63  1562.97  1562.97
eigval :     1573.12  1573.14  1581.76  1583.02  1584.54  1585.12
eigval :     1595.38  1595.86  3077.15  3077.24  3079.49  3079.54
eigval :     3087.66  3087.98  3091.10  3091.14  3091.45  3091.50
eigval :     3096.00  3096.33  3099.75  3099.97  3100.81  3100.84
eigval :     3100.95  3101.07  3101.36  3101.53  3108.92  3109.02
eigval :     3109.52  3109.67  3113.33  3113.39  3113.40  3113.93

   temp. (K)  partition function   enthalpy   heat capacity  entropy
                                   cal/mol     cal/K/mol   cal/K/mol   J/K/mol
 298.15  VIB  0.287E+19            22654.407    144.234    141.244
         ROT  0.755E+08              888.752      2.981     39.030
         INT  0.217E+27            23543.159    147.215    180.273
         TR   0.158E+29             1481.254      4.968     45.253
         TOT                       25024.4130   152.1832   225.5258   943.6001

       T/K    H(0)-H(T)+PV         H(T)/Eh          T*S/Eh         G(T)/Eh
   ------------------------------------------------------------------------
    298.15    0.398789E-01    0.622603E+00    0.107155E+00    0.515449E+00
   ------------------------------------------------------------------------

         :::::::::::::::::::::::::::::::::::::::::::::::::::::
         ::                  THERMODYNAMIC                  ::
         :::::::::::::::::::::::::::::::::::::::::::::::::::::
         :: total free energy        -127.812598216143 Eh   ::
         ::.................................................::
         :: total energy             -128.328047010794 Eh   ::
         :: zero point energy           0.582724457653 Eh   ::
         :: G(RRHO) w/o ZPVE           -0.067275663003 Eh   ::
         :: G(RRHO) contrib.            0.515448794650 Eh   ::
         :::::::::::::::::::::::::::::::::::::::::::::::::::::

           -------------------------------------------------
          | TOTAL ENERGY             -128.328047010794 Eh   |
          | TOTAL ENTHALPY           -127.705443612681 Eh   |
          | TOTAL FREE ENERGY        -127.812598216143 Eh   |
          | GRADIENT NORM               0.000070215547 Eh/α |
           -------------------------------------------------

 * finished run on 2025/09/12 at 08:55:01.381
