   * xtb version 6.7.1 (edcfbbe) compiled by 'albert@albert-system' on 2024-07-22

   ID    Z sym.   atoms
    1    6 C      1-12, 14, 15, 17-20, 22, 23, 25-36
    2    7 N      13, 16, 21, 24, 37, 38
    3    1 H      39-58

          program call               : xtb data2507/toluene/CPzPzC/CPzPzC.xyz --gfn 2 --gbsa toluene --ohess vtight --parallel 40 --molden --ceasefiles --namespace data2507/toluene/CPzPzC/CPzPzC_toluene_S0_preOpt
      * Solvation model:               GBSA
        Solvent                        toluene
        Solvent mass                       9.2140E+01 g/mol
          :  Hamiltonian                  GFN2-xTB          :
 * total energy  :   -96.3372333 Eh     change       -0.2027178E-08 Eh
 * total energy  :   -96.3552749 Eh     change       -0.1804162E-01 Eh
 * total energy  :   -96.3600150 Eh     change       -0.4740091E-02 Eh
 * total energy  :   -96.3610361 Eh     change       -0.1021117E-02 Eh
 * total energy  :   -96.3618546 Eh     change       -0.8184854E-03 Eh
 * total energy  :   -96.3621323 Eh     change       -0.2776561E-03 Eh
 * total energy  :   -96.3622717 Eh     change       -0.1394501E-03 Eh
 * total energy  :   -96.3623286 Eh     change       -0.5692846E-04 Eh
 * total energy  :   -96.3623725 Eh     change       -0.4383857E-04 Eh
 * total energy  :   -96.3623941 Eh     change       -0.2159134E-04 Eh
 * total energy  :   -96.3625681 Eh     change       -0.1259146E-04 Eh
 * total energy  :   -96.3625745 Eh     change       -0.6412169E-05 Eh
 * total energy  :   -96.3625775 Eh     change       -0.3014171E-05 Eh
 * total energy  :   -96.3625790 Eh     change       -0.1487203E-05 Eh
 * total energy  :   -96.3625794 Eh     change       -0.3752032E-06 Eh
 * total energy  :   -96.3625801 Eh     change       -0.6919008E-06 Eh
 * total energy  :   -96.3625802 Eh     change       -0.1872777E-06 Eh
 * total energy  :   -96.3625804 Eh     change       -0.1096818E-06 Eh
 * total energy  :   -96.3625805 Eh     change       -0.9998070E-07 Eh
   *** GEOMETRY OPTIMIZATION CONVERGED AFTER 26 ITERATIONS ***

 final structure:
================
58
 xtb: 6.7.1 (edcfbbe)
C           -7.72080461663925       -2.06398811098831       -0.47122230219090
C           -6.60688753652478       -2.89318164080777       -0.38673044359801
C           -5.34312009167437       -2.38511401326256       -0.13887423614174
C           -5.21530039080711       -1.01593853736535        0.03946690714788
C           -6.33435472576911       -0.16480297428942       -0.09242574815622
C           -7.59331994619398       -0.69452304072643       -0.33952495329936
C           -5.84979323525241        1.18440720560874        0.03891383973699
C           -6.47616724892258        2.42310736754001        0.00961136520972
C           -5.70454018004851        3.55728649465001        0.17481388523797
C           -4.33063835827445        3.46334238642756        0.37719262820870
C           -3.68766694372949        2.23832226745944        0.41119785153570
C           -4.45533871032178        1.10003435934487        0.23026762550283
N           -4.07743088719530       -0.24200974752125        0.25888511561660
C           -2.80177038861986       -0.70383180876288        0.49629618950471
C           -2.55299654776384       -1.88038632992183        1.22779531658035
N           -1.32690695073205       -2.31273256669978        1.43893249458390
C           -0.32253132671526       -1.60058484779994        0.94619367203322
C           -0.55025894638089       -0.41031876835289        0.25553790115181
C            0.55026659038649        0.41050289868092       -0.25520712517890
C            0.32254386209371        1.60082364295313       -0.94576953289753
N            1.32691860876637        2.31297630875272       -1.43850290497595
C            2.55300405227792        1.88057193695587       -1.22746313337507
C            2.80177602065364        0.70394754154509       -0.49607508667798
N            4.07743100137151        0.24204467307814       -0.25879379430289
C            4.45527429504356       -1.10002154106012       -0.23032084212960
C            3.68752720194205       -2.23825731774929       -0.41126013758855
C            4.33044122414200       -3.46331209141593       -0.37741512720566
C            5.70435870587914       -3.55734039755994       -0.17518353771901
C            6.47605893419788       -2.42321275096180       -0.00996976173354
C            5.84974374133289       -1.18447907311266       -0.03911271582898
C            6.33438656787927        0.16469664144508        0.09228332075255
C            7.59340392394492        0.69433408018156        0.33929457011512
C            7.72097078499438        2.06378229378171        0.47108631007387
C            6.60708640857836        2.89303801090017        0.38677512825971
C            5.34326813467503        2.38505314784180        0.13900890701718
C            5.21536196922706        1.01589844384085       -0.03943058511718
N            1.78957878678540       -0.02756314247056       -0.03802385566872
N           -1.78957478379678        0.02768766488410        0.03825582720892
H           -8.69069559710233       -2.49828757298448       -0.66093246450757
H           -6.72550013490739       -3.95753943832072       -0.52385730812115
H           -4.48978305129627       -3.04494927507110       -0.11193768237400
H           -8.44918382605752       -0.04456657365858       -0.43561871696155
H           -7.54299136805590        2.49275181299007       -0.13689642071443
H           -6.17020291373597        4.53113694607701        0.15122405625681
H           -3.75097108575594        4.36470735978476        0.50996636389510
H           -2.62325885628461        2.17022959550257        0.56933548438267
H           -3.34877202852878       -2.45117530204550        1.68322850508564
H            0.67618097317721       -1.96675528779630        1.12634242088770
H           -0.67616474138028        1.96703967969438       -1.12584510200558
H            3.34877470021680        2.45136907459449       -1.68289444237866
H            2.62310593268755       -2.17010085370462       -0.56928153278513
H            3.75071563525789       -4.36463769324165       -0.51020190872304
H            6.16997552703876       -4.53121566794045       -0.15171746641410
H            7.54289455905177       -2.49292241863730        0.13642359273989
H            8.44924573498618        0.04432762856911        0.43524555937726
H            8.69090320523403        2.49801857306649        0.66072944845576
H            6.72576592069206        3.95737923398706        0.52397287266398
H            4.48996141595323        3.04493351409198        0.11221270954805

          :  Hamiltonian                  GFN2-xTB          :
         :: gradient norm              0.000052554120 Eh/a0 ::
         :: HOMO-LUMO gap              1.588349366187 eV    ::
         :: SCC energy               -98.060704245451 Eh    ::
         :: -> dispersion             -0.079834512804 Eh    ::
         :: -> Gsolv                  -0.041544381450 Eh    ::
         :: repulsion energy           1.698123786184 Eh    ::

    * Orbital Energies and Occupations

         #    Occupation            Energy/Eh            Energy/eV
      -------------------------------------------------------------
         1        2.0000           -0.7058509             -19.2072
       ...           ...                  ...                  ...
        77        2.0000           -0.4296815             -11.6922
        78        2.0000           -0.4296557             -11.6915
        79        2.0000           -0.4294329             -11.6855
        80        2.0000           -0.4282235             -11.6526
        81        2.0000           -0.4268420             -11.6150
        82        2.0000           -0.4164827             -11.3331
        83        2.0000           -0.4164576             -11.3324
        84        2.0000           -0.3918477             -10.6627
        85        2.0000           -0.3903554             -10.6221
        86        2.0000           -0.3903550             -10.6221
        87        2.0000           -0.3844073             -10.4603
        88        2.0000           -0.3789386             -10.3114
        89        2.0000           -0.3698620             -10.0645 (HOMO)
        90                         -0.3114912              -8.4761 (LUMO)
        91                         -0.2883571              -7.8466
        92                         -0.2792433              -7.5986
        93                         -0.2570546              -6.9948
        94                         -0.2548220              -6.9341
        95                         -0.2431276              -6.6158
        96                         -0.2332614              -6.3474
        97                         -0.2331304              -6.3438
        98                         -0.2088013              -5.6818
        99                         -0.1996579              -5.4330
       100                         -0.1973256              -5.3695
       ...                                ...                  ...
       172                          0.7323519              19.9283
      -------------------------------------------------------------
                  HL-Gap            0.0583708 Eh            1.5884 eV

     #   Z          covCN         q      C6AA      α(0)
     1   6 C        2.920    -0.037    28.913     8.818
     2   6 C        2.924    -0.031    28.785     8.798
     3   6 C        2.910    -0.052    29.279     8.873
     4   6 C        3.055     0.044    26.964     8.516
     5   6 C        3.064    -0.011    28.227     8.712
     6   6 C        2.913    -0.031    28.784     8.798
     7   6 C        3.063    -0.013    28.275     8.720
     8   6 C        2.913    -0.032    28.803     8.800
     9   6 C        2.920    -0.037    28.919     8.819
    10   6 C        2.924    -0.032    28.795     8.800
    11   6 C        2.910    -0.047    29.157     8.854
    12   6 C        3.060     0.052    26.786     8.487
    13   7 N        2.801    -0.051    22.216     7.000
    14   6 C        2.887     0.153    24.682     8.145
    15   6 C        2.906     0.035    27.220     8.555
    16   7 N        1.838    -0.215    26.518     7.631
    17   6 C        2.908     0.042    27.064     8.530
    18   6 C        2.955     0.087    26.055     8.372
    19   6 C        2.955     0.087    26.055     8.372
    20   6 C        2.908     0.042    27.064     8.530
    21   7 N        1.838    -0.215    26.518     7.631
    22   6 C        2.906     0.035    27.220     8.555
    23   6 C        2.887     0.153    24.682     8.145
    24   7 N        2.801    -0.051    22.216     7.000
    25   6 C        3.060     0.052    26.786     8.487
    26   6 C        2.910    -0.047    29.157     8.854
    27   6 C        2.924    -0.032    28.795     8.800
    28   6 C        2.920    -0.037    28.919     8.819
    29   6 C        2.913    -0.032    28.803     8.800
    30   6 C        3.063    -0.013    28.275     8.720
    31   6 C        3.064    -0.011    28.227     8.712
    32   6 C        2.913    -0.031    28.784     8.798
    33   6 C        2.920    -0.037    28.913     8.818
    34   6 C        2.924    -0.031    28.785     8.798
    35   6 C        2.910    -0.052    29.279     8.873
    36   6 C        3.055     0.044    26.964     8.516
    37   7 N        1.855    -0.263    27.682     7.798
    38   7 N        1.855    -0.263    27.682     7.798
    39   1 H        0.926     0.043     2.415     2.430
    40   1 H        0.926     0.042     2.419     2.432
    41   1 H        0.926     0.030     2.591     2.517
    42   1 H        0.926     0.045     2.379     2.412
    43   1 H        0.926     0.044     2.391     2.418
    44   1 H        0.926     0.042     2.425     2.435
    45   1 H        0.926     0.041     2.442     2.444
    46   1 H        0.926     0.037     2.488     2.467
    47   1 H        0.926     0.055     2.263     2.352
    48   1 H        0.926     0.061     2.192     2.315
    49   1 H        0.926     0.061     2.192     2.315
    50   1 H        0.926     0.055     2.263     2.352
    51   1 H        0.926     0.037     2.488     2.467
    52   1 H        0.926     0.041     2.442     2.444
    53   1 H        0.926     0.042     2.425     2.435
    54   1 H        0.926     0.044     2.390     2.418
    55   1 H        0.926     0.045     2.379     2.412
    56   1 H        0.926     0.043     2.415     2.430
    57   1 H        0.926     0.042     2.419     2.432
    58   1 H        0.926     0.030     2.591     2.517

molecular dipole:
                 x           y           z       tot (Debye)
 q only:        0.000      -0.000      -0.000
   full:        0.000      -0.000      -0.000       0.000

 projected vibrational frequencies (cm⁻¹)
eigval :       -0.00    -0.00    -0.00    -0.00     0.00     0.00
eigval :        9.21    17.17    24.81    34.05    44.49    65.93
eigval :       66.52    87.52    95.01   100.36   115.85   126.37
eigval :      139.38   143.11   186.07   188.28   206.91   212.96
eigval :      237.50   272.99   273.86   274.29   293.86   330.23
eigval :      335.33   348.66   367.83   393.06   393.19   408.33
eigval :      421.77   422.53   437.01   437.94   439.68   474.78
eigval :      489.92   516.25   516.74   533.26   540.88   541.04
eigval :      543.57   581.92   584.45   595.41   600.18   615.52
eigval :      616.82   636.71   660.57   672.81   674.06   680.38
eigval :      710.70   711.51   721.68   725.69   738.08   754.87
eigval :      758.12   770.26   770.40   781.21   781.61   827.57
eigval :      828.34   836.38   870.70   871.98   874.16   875.42
eigval :      890.27   890.95   894.64   895.04   904.63   905.13
eigval :      906.60   906.83   922.46   922.52   923.55   923.56
eigval :      951.50  1008.27  1011.69  1017.61  1020.83  1033.46
eigval :     1068.49  1068.74  1076.10  1076.24  1115.36  1129.66
eigval :     1140.39  1146.29  1148.06  1153.37  1158.16  1174.30
eigval :     1174.46  1178.80  1180.04  1186.12  1192.33  1222.41
eigval :     1227.92  1230.82  1242.00  1244.86  1255.21  1262.55
eigval :     1283.64  1286.06  1291.27  1296.58  1308.56  1350.47
eigval :     1352.13  1354.68  1355.42  1368.23  1379.39  1405.15
eigval :     1407.32  1419.86  1422.60  1427.03  1431.86  1449.20
eigval :     1469.16  1470.02  1481.77  1481.80  1497.68  1513.73
eigval :     1545.00  1563.12  1576.76  1576.98  1588.37  1588.54
eigval :     1596.86  1596.87  1608.37  1608.45  3077.77  3077.93
eigval :     3079.33  3079.33  3082.61  3082.62  3086.89  3086.90
eigval :     3087.91  3087.92  3094.27  3094.32  3095.51  3096.20
eigval :     3096.91  3096.93  3101.66  3101.70  3106.08  3106.14

   temp. (K)  partition function   enthalpy   heat capacity  entropy
                                   cal/mol     cal/K/mol   cal/K/mol   J/K/mol
 298.15  VIB  0.903E+12            16095.693    105.330     98.709
         ROT  0.438E+08              888.752      2.981     37.948
         INT  0.396E+20            16984.446    108.311    136.658
         TR   0.104E+29             1481.254      4.968     44.426
         TOT                       18465.6995   113.2790   181.0839   757.6551

       T/K    H(0)-H(T)+PV         H(T)/Eh          T*S/Eh         G(T)/Eh
   ------------------------------------------------------------------------
    298.15    0.294270E-01    0.460889E+00    0.860388E-01    0.374850E+00
   ------------------------------------------------------------------------

         :::::::::::::::::::::::::::::::::::::::::::::::::::::
         ::                  THERMODYNAMIC                  ::
         :::::::::::::::::::::::::::::::::::::::::::::::::::::
         :: total free energy         -95.987730055880 Eh   ::
         ::.................................................::
         :: total energy              -96.362580453645 Eh   ::
         :: zero point energy           0.431462244004 Eh   ::
         :: G(RRHO) w/o ZPVE           -0.056611846239 Eh   ::
         :: G(RRHO) contrib.            0.374850397765 Eh   ::
         :::::::::::::::::::::::::::::::::::::::::::::::::::::

           -------------------------------------------------
          | TOTAL ENERGY              -96.362580453645 Eh   |
          | TOTAL ENTHALPY            -95.901691244412 Eh   |
          | TOTAL FREE ENERGY         -95.987730055880 Eh   |
          | GRADIENT NORM               0.000052521359 Eh/α |
          | HOMO-LUMO GAP               1.588350061694 eV   |
           -------------------------------------------------

 * finished run on 2025/08/30 at 20:59:17.831
