   * xtb version 6.7.1 (edcfbbe) compiled by 'albert@albert-system' on 2024-07-22

   ID    Z sym.   atoms
    1    6 C      1-12, 14, 15, 17-20, 22, 23, 25-36
    2    7 N      13, 16, 21, 24, 37, 38
    3    1 H      39-58

          program call               : xtb data2507/toluene/CPzPzC/CPzPzC_toluene_S0_finalOpt.xtbopt.xyz --gfn 2 --uhf 2 --gbsa toluene --ohess vtight --parallel 40 --molden --ceasefiles --namespace data2507/toluene/CPzPzC/CPzPzC_toluene_T1_preOpt
      * Solvation model:               GBSA
        Solvent                        toluene
        Solvent mass                       9.2140E+01 g/mol
          :  Hamiltonian                  GFN2-xTB          :
 * total energy  :   -96.2973205 Eh     change       -0.2312746E-08 Eh
 * total energy  :   -96.3020152 Eh     change       -0.4694654E-02 Eh
 * total energy  :   -96.3040708 Eh     change       -0.2055642E-02 Eh
 * total energy  :   -96.3043930 Eh     change       -0.3221688E-03 Eh
 * total energy  :   -96.3045736 Eh     change       -0.1806424E-03 Eh
 * total energy  :   -96.3045985 Eh     change       -0.2487369E-04 Eh
 * total energy  :   -96.3046295 Eh     change       -0.3103595E-04 Eh
 * total energy  :   -96.3046393 Eh     change       -0.9739402E-05 Eh
 * total energy  :   -96.3046478 Eh     change       -0.8487210E-05 Eh
 * total energy  :   -96.3046534 Eh     change       -0.5668634E-05 Eh
 * total energy  :   -96.3047987 Eh     change       -0.2834169E-05 Eh
 * total energy  :   -96.3048021 Eh     change       -0.3388199E-05 Eh
 * total energy  :   -96.3048055 Eh     change       -0.3459164E-05 Eh
 * total energy  :   -96.3048081 Eh     change       -0.2614463E-05 Eh
 * total energy  :   -96.3048095 Eh     change       -0.1332695E-05 Eh
 * total energy  :   -96.3048101 Eh     change       -0.5951329E-06 Eh
 * total energy  :   -96.3048104 Eh     change       -0.2859563E-06 Eh
 * total energy  :   -96.3048105 Eh     change       -0.1928112E-06 Eh
 * total energy  :   -96.3048106 Eh     change       -0.5522637E-08 Eh
   *** GEOMETRY OPTIMIZATION CONVERGED AFTER 44 ITERATIONS ***

 final structure:
================
58
 xtb: 6.7.1 (edcfbbe)
C           -7.71590085054766        1.44077855447743        1.72843777208182
C           -6.59008359693857        2.17240693035797        2.09430655068438
C           -5.33664302623918        1.87055346735256        1.59073519147323
C           -5.23354764086713        0.81720930679506        0.69419796927176
C           -6.36541068926340        0.04453270623057        0.34972868692542
C           -7.61314457594920        0.36594702838605        0.86503640183318
C           -5.90128640744556       -1.00691206291357       -0.51789221040080
C           -6.53571973006607       -2.05791457895208       -1.16527786341702
C           -5.77476786107511       -2.91081727012939       -1.94327280777939
C           -4.40229989405671       -2.72256525942690       -2.08181913419544
C           -3.75020313352820       -1.68031413756942       -1.44680265610777
C           -4.50766783407189       -0.83203976288678       -0.65590412174535
N           -4.11258938099960        0.28568807938375        0.06924029558168
C           -2.83098315431107        0.80305831620234        0.08643095278173
C           -2.61160772370927        2.19001222596642        0.03342145552654
N           -1.36275261750477        2.66188047676740        0.06700405124314
C           -0.35819763166397        1.84856014757920        0.10841854466226
C           -0.55019707759210        0.43741341290923        0.10939102897460
C            0.55117867841825       -0.44208659503366        0.11325469075557
C            0.36110727793619       -1.85335275010186        0.13023413372337
N            1.36682685029130       -2.66565000716637        0.09555772538108
C            2.61500439477012       -2.19270083816505        0.05196883640745
C            2.83267381649028       -0.80491634420477        0.08718166185528
N            4.11286770973648       -0.28461671028292        0.05909868994233
C            5.23796732158725       -0.80434262450344        0.68656788815556
C            5.34886371427292       -1.84880550591775        1.59250909359971
C            6.60501571893742       -2.13899434266058        2.09624234549918
C            7.72599503309738       -1.40458193408959        1.72126956326338
C            7.61550654189139       -0.33859478922511        0.84794526705837
C            6.36495323454114       -0.02890380645065        0.33231109050670
C            5.89344396862302        1.01192795433987       -0.54406410881525
C            6.52080142242506        2.06043214435606       -1.20236244857737
C            5.75367024505665        2.90197919089903       -1.98660356660481
C            4.38198771874729        2.70497350053963       -2.12061882687431
C            3.73692916968020        1.66507958993796       -1.47467515979618
C            4.50052981962075        0.82832203561138       -0.67742226267674
N            1.81849100304120        0.03585901286164        0.11545849884513
N           -1.81806292562725       -0.03901827763266        0.12139601067343
H           -8.67763217948969        1.70995086376024        2.13846413507328
H           -6.69213329895988        2.99100684707992        2.79085552555367
H           -4.46983159980934        2.43067875959183        1.90611821165747
H           -8.48071953448638       -0.21851572655643        0.60046572408163
H           -7.60014635143976       -2.20186041016319       -1.06179201789683
H           -6.24876062310695       -3.73499405528137       -2.45491825353617
H           -3.83317135328969       -3.40108510280247       -2.69968302998001
H           -2.68706593116302       -1.53280799000813       -1.55667732880014
H           -3.41255307606792        2.90043207525625       -0.07646311347599
H            0.64603728344868        2.24217325488287        0.15383887268445
H           -0.64235259232108       -2.24797142035890        0.18333494921365
H            3.41634222886790       -2.90353284113347       -0.05214405532035
H            4.48588518084706       -2.41072840568864        1.91507846780574
H            6.71309053095946       -2.95059812972600        2.80005520579871
H            8.69003667353193       -1.66441643989622        2.13188231740971
H            8.47930201194412        0.24811177216178        0.57604478652117
H            7.58458706404011        2.21133584945050       -1.10228901402559
H            6.22209659040576        3.72414184976306       -2.50654395606526
H            3.80784098533746        3.37471396122632       -2.74341142276767
H            2.67441208355717        1.51079851399197       -1.58110868557111

          :  Hamiltonian                  GFN2-xTB          :
         :: gradient norm              0.000049112239 Eh/a0 ::
         :: HOMO-LUMO gap              0.829454450533 eV    ::
         :: SCC energy               -98.006086364179 Eh    ::
         :: -> dispersion             -0.079589530332 Eh    ::
         :: -> Gsolv                  -0.041670405008 Eh    ::
         :: repulsion energy           1.701275809172 Eh    ::

    * Orbital Energies and Occupations

         #    Occupation            Energy/Eh            Energy/eV
      -------------------------------------------------------------
         1        2.0000           -0.6965843             -18.9550
       ...           ...                  ...                  ...
        78        2.0000           -0.4295412             -11.6884
        79        2.0000           -0.4290337             -11.6746
        80        2.0000           -0.4281536             -11.6507
        81        2.0000           -0.4170915             -11.3496
        82        2.0000           -0.4167180             -11.3395
        83        2.0000           -0.4151330             -11.2963
        84        2.0000           -0.3906753             -10.6308
        85        2.0000           -0.3906516             -10.6302
        86        2.0000           -0.3897042             -10.6044
        87        2.0000           -0.3829112             -10.4195
        88        1.9964           -0.3749286             -10.2023
        89        1.0036           -0.3642605              -9.9120
        90        1.0000           -0.3073539              -8.3635 (HOMO)
        91        0.0000           -0.2768720              -7.5341 (LUMO)
        92                         -0.2702216              -7.3531
        93                         -0.2559911              -6.9659
        94                         -0.2544944              -6.9251
        95                         -0.2344287              -6.3791
        96                         -0.2335740              -6.3559
        97                         -0.2327359              -6.3331
        98                         -0.2075088              -5.6466
        99                         -0.1980427              -5.3890
       100                         -0.1976035              -5.3771
       101                         -0.1975781              -5.3764
       ...                                ...                  ...
       172                          0.7328491              19.9418
      -------------------------------------------------------------
                  HL-Gap            0.0304819 Eh            0.8295 eV

     #   Z          covCN         q      C6AA      α(0)
     1   6 C        2.920    -0.036    28.898     8.815
     2   6 C        2.923    -0.031    28.778     8.797
     3   6 C        2.910    -0.049    29.228     8.865
     4   6 C        3.060     0.046    26.919     8.508
     5   6 C        3.065    -0.012    28.237     8.714
     6   6 C        2.913    -0.031    28.772     8.796
     7   6 C        3.063    -0.013    28.271     8.719
     8   6 C        2.913    -0.031    28.785     8.798
     9   6 C        2.920    -0.036    28.900     8.816
    10   6 C        2.924    -0.032    28.789     8.799
    11   6 C        2.910    -0.045    29.120     8.849
    12   6 C        3.066     0.052    26.761     8.483
    13   7 N        2.804    -0.046    22.118     6.985
    14   6 C        2.872     0.158    24.585     8.128
    15   6 C        2.898    -0.004    28.130     8.696
    16   7 N        1.840    -0.182    25.751     7.520
    17   6 C        2.897     0.047    26.937     8.510
    18   6 C        2.941     0.062    26.604     8.459
    19   6 C        2.941     0.062    26.604     8.459
    20   6 C        2.897     0.047    26.938     8.510
    21   7 N        1.840    -0.182    25.752     7.520
    22   6 C        2.897    -0.004    28.130     8.696
    23   6 C        2.872     0.158    24.586     8.128
    24   7 N        2.804    -0.046    22.118     6.985
    25   6 C        3.060     0.046    26.918     8.508
    26   6 C        2.910    -0.050    29.229     8.865
    27   6 C        2.923    -0.031    28.779     8.797
    28   6 C        2.920    -0.036    28.899     8.816
    29   6 C        2.913    -0.031    28.772     8.796
    30   6 C        3.065    -0.012    28.237     8.714
    31   6 C        3.063    -0.013    28.272     8.719
    32   6 C        2.913    -0.031    28.785     8.798
    33   6 C        2.920    -0.036    28.900     8.816
    34   6 C        2.924    -0.032    28.789     8.799
    35   6 C        2.910    -0.045    29.120     8.849
    36   6 C        3.066     0.052    26.760     8.483
    37   7 N        1.852    -0.259    27.585     7.784
    38   7 N        1.852    -0.259    27.585     7.784
    39   1 H        0.926     0.043     2.411     2.428
    40   1 H        0.926     0.042     2.416     2.431
    41   1 H        0.926     0.033     2.550     2.497
    42   1 H        0.926     0.045     2.377     2.411
    43   1 H        0.926     0.045     2.379     2.412
    44   1 H        0.926     0.043     2.414     2.429
    45   1 H        0.926     0.041     2.435     2.440
    46   1 H        0.926     0.037     2.494     2.470
    47   1 H        0.926     0.050     2.314     2.379
    48   1 H        0.926     0.062     2.171     2.304
    49   1 H        0.926     0.062     2.172     2.305
    50   1 H        0.926     0.050     2.314     2.379
    51   1 H        0.926     0.033     2.550     2.497
    52   1 H        0.926     0.042     2.416     2.431
    53   1 H        0.926     0.043     2.412     2.429
    54   1 H        0.926     0.045     2.377     2.411
    55   1 H        0.926     0.045     2.379     2.412
    56   1 H        0.926     0.043     2.414     2.430
    57   1 H        0.926     0.041     2.435     2.440
    58   1 H        0.926     0.037     2.494     2.470

molecular dipole:
                 x           y           z       tot (Debye)
 q only:       -0.003       0.003      -0.123
   full:       -0.003       0.002      -0.107       0.272

 projected vibrational frequencies (cm⁻¹)
eigval :       -0.00    -0.00    -0.00     0.00     0.00     0.00
eigval :       13.75    19.75    22.40    29.79    42.75    55.77
eigval :       83.19    92.64    96.73   103.18   113.51   129.09
eigval :      141.89   147.64   180.39   204.26   210.88   217.61
eigval :      221.38   273.12   273.56   274.49   289.24   328.61
eigval :      329.55   351.57   374.39   385.18   394.08   394.76
eigval :      423.53   424.58   434.30   434.99   447.65   476.30
eigval :      511.28   513.27   518.09   518.91   539.35   539.62
eigval :      548.45   558.55   576.66   584.53   584.72   603.12
eigval :      611.72   616.50   628.22   660.24   661.83   669.96
eigval :      673.71   676.55   709.18   710.16   730.32   731.40
eigval :      743.76   753.58   755.74   774.30   775.12   784.96
eigval :      786.25   819.80   822.60   831.64   873.44   874.01
eigval :      878.81   879.63   893.12   893.88   905.92   906.90
eigval :      907.53   908.06   921.52   924.12   924.93   930.14
eigval :      930.58   957.99   986.94  1009.67  1011.18  1031.60
eigval :     1067.21  1067.71  1073.73  1074.15  1091.66  1119.07
eigval :     1119.70  1123.68  1129.56  1146.91  1147.24  1171.30
eigval :     1175.23  1177.73  1178.39  1179.83  1185.61  1214.79
eigval :     1219.29  1228.56  1229.01  1237.95  1248.06  1261.68
eigval :     1268.01  1284.37  1285.95  1290.62  1293.60  1300.12
eigval :     1308.41  1349.74  1350.85  1354.63  1355.75  1356.59
eigval :     1364.77  1414.98  1419.56  1420.02  1420.13  1433.33
eigval :     1447.12  1466.51  1466.67  1478.78  1480.70  1480.86
eigval :     1505.32  1548.81  1572.62  1572.73  1586.10  1586.19
eigval :     1591.81  1591.84  1604.47  1605.03  3075.61  3075.99
eigval :     3080.29  3080.39  3081.87  3081.88  3086.55  3086.61
eigval :     3087.12  3087.18  3093.77  3093.80  3095.46  3095.67
eigval :     3099.64  3099.65  3101.00  3101.35  3110.14  3110.73

   temp. (K)  partition function   enthalpy   heat capacity  entropy
                                   cal/mol     cal/K/mol   cal/K/mol   J/K/mol
 298.15  VIB  0.653E+12            16233.625    106.682     98.630
         ROT  0.221E+08              888.752      2.981     36.589
         INT  0.144E+20            17122.377    109.663    135.219
         TR   0.104E+29             1481.254      4.968     44.426
         TOT                       18603.6311   114.6312   179.6450   751.6346

       T/K    H(0)-H(T)+PV         H(T)/Eh          T*S/Eh         G(T)/Eh
   ------------------------------------------------------------------------
    298.15    0.296468E-01    0.458080E+00    0.853551E-01    0.372724E+00
   ------------------------------------------------------------------------

         :::::::::::::::::::::::::::::::::::::::::::::::::::::
         ::                  THERMODYNAMIC                  ::
         :::::::::::::::::::::::::::::::::::::::::::::::::::::
         :: total free energy         -95.932086114082 Eh   ::
         ::.................................................::
         :: total energy              -96.304810557749 Eh   ::
         :: zero point energy           0.428432796990 Eh   ::
         :: G(RRHO) w/o ZPVE           -0.055708353323 Eh   ::
         :: G(RRHO) contrib.            0.372724443666 Eh   ::
         :::::::::::::::::::::::::::::::::::::::::::::::::::::

           -------------------------------------------------
          | TOTAL ENERGY              -96.304810557749 Eh   |
          | TOTAL ENTHALPY            -95.846730987444 Eh   |
          | TOTAL FREE ENERGY         -95.932086114082 Eh   |
          | GRADIENT NORM               0.000049996497 Eh/α |
          | HOMO-LUMO GAP               0.829454986664 eV   |
           -------------------------------------------------

 * finished run on 2025/08/30 at 21:01:41.424
