   * xtb version 6.7.1 (edcfbbe) compiled by 'albert@albert-system' on 2024-07-22

   ID    Z sym.   atoms
    1    6 C      1-12, 14, 15, 17-20, 22, 23, 25-36
    2    7 N      13, 16, 21, 24, 37, 38
    3    1 H      39-58

          program call               : xtb data2507/toluene/CPzPzC/CPzPzC_toluene_T1_crest.xyz --gfn 2 --uhf 2 --gbsa toluene --ohess vtight --parallel 40 --molden --ceasefiles --namespace data2507/toluene/CPzPzC/CPzPzC_toluene_T1_finalOpt
      * Solvation model:               GBSA
        Solvent                        toluene
        Solvent mass                       9.2140E+01 g/mol
          :  Hamiltonian                  GFN2-xTB          :
 * total energy  :   -96.3050743 Eh     change       -0.1220684E-08 Eh
 * total energy  :   -96.3051192 Eh     change       -0.4493138E-04 Eh
 * total energy  :   -96.3051363 Eh     change       -0.1703623E-04 Eh
 * total energy  :   -96.3051403 Eh     change       -0.3992431E-05 Eh
 * total energy  :   -96.3051426 Eh     change       -0.2316858E-05 Eh
 * total energy  :   -96.3051443 Eh     change       -0.1705349E-05 Eh
 * total energy  :   -96.3051460 Eh     change       -0.1721830E-05 Eh
 * total energy  :   -96.3051477 Eh     change       -0.1672582E-05 Eh
 * total energy  :   -96.3051492 Eh     change       -0.1531842E-05 Eh
 * total energy  :   -96.3051505 Eh     change       -0.1271580E-05 Eh
 * total energy  :   -96.3051535 Eh     change       -0.5252191E-06 Eh
 * total energy  :   -96.3051540 Eh     change       -0.5361715E-06 Eh
 * total energy  :   -96.3051545 Eh     change       -0.4598921E-06 Eh
 * total energy  :   -96.3051549 Eh     change       -0.4068853E-06 Eh
 * total energy  :   -96.3051553 Eh     change       -0.3780950E-06 Eh
 * total energy  :   -96.3051556 Eh     change       -0.3302412E-06 Eh
 * total energy  :   -96.3051558 Eh     change       -0.2298909E-06 Eh
 * total energy  :   -96.3051559 Eh     change       -0.1116088E-06 Eh
 * total energy  :   -96.3051559 Eh     change       -0.6800889E-09 Eh
   *** GEOMETRY OPTIMIZATION CONVERGED AFTER 22 ITERATIONS ***

 final structure:
================
58
 xtb: 6.7.1 (edcfbbe)
C           -7.70959283702520       -2.08050587107791       -0.60834428240690
C           -6.58258359076580       -2.89331847094026       -0.53318045859818
C           -5.33068086915963       -2.37010745828586       -0.25916719609106
C           -5.23073962345590       -1.00292901420403       -0.04761990775017
C           -6.36445395506773       -0.16680735945454       -0.15929616142633
C           -7.61034920551047       -0.71267730527951       -0.43354474774774
C           -5.90357879189539        1.18428226067970        0.03035714164019
C           -6.54159944042132        2.41672726398328        0.03315925753082
C           -5.78383936764137        3.55267084582785        0.25057536271445
C           -4.41144858633035        3.46828621869449        0.46865532270083
C           -3.75590867997015        2.24965625995485        0.47196234179870
C           -4.50993015852990        1.11097920008761        0.24008999141538
N           -4.11161485192408       -0.22005084386908        0.20660850541149
C           -2.82857400190953       -0.66853931914081        0.45538509032862
C           -2.60650952389286       -1.82190355619294        1.22771666693344
N           -1.35716037280616       -2.24387741991859        1.43879654250176
C           -0.35468181110785       -1.57305697306217        0.97191639690741
C           -0.54858903992682       -0.36419321612395        0.24394804780747
C            0.54966850066000        0.36689682075036       -0.25103393792019
C            0.35673936264530        1.57609625344381       -0.97866281807724
N            1.35990186134754        2.24702964524189       -1.44400830287991
C            2.60900105735525        1.82478518905091       -1.23185533058757
C            2.83002812250949        0.67060216830965       -0.46046630890081
N            4.11251203111684        0.22092827177724       -0.21085616772930
C            5.23181771817154        1.00235285386545        0.04691855136644
C            5.33269610950223        2.36920059246064        0.26010946897367
C            6.58440041273103        2.89071457893336        0.53824349417534
C            7.71030553164271        2.07657734963641        0.61565168157595
C            7.61006920944039        0.70907079181041        0.43893037068183
C            6.36433844310438        0.16487027777420        0.16064876749500
C            5.90250309705537       -1.18552999721215       -0.03152175476495
C            6.53915459150253       -2.41869361948674       -0.03380990650947
C            5.78067721841439       -3.55360907840038       -0.25405938785896
C            4.40891879852671       -3.46751209561871       -0.47542785474503
C            3.75475981013808       -2.24814976735079       -0.47932394642392
C            4.50945671872908       -1.11050097297497       -0.24458788137669
N            1.81874680543116       -0.03630991216961        0.00089665445022
N           -1.81795705987374        0.03841486397171       -0.00746328458457
H           -8.66963324039785       -2.52620626034301       -0.82060578484282
H           -6.68273347764035       -3.95573048893952       -0.69747991820309
H           -4.46279648920843       -3.01086988019770       -0.23093934172719
H           -8.47894421573204       -0.07781168221598       -0.51590113508895
H           -7.60621765150429        2.48218414250778       -0.13038162996732
H           -6.26049066989472        4.52147800801181        0.25537310551986
H           -3.84508312554864        4.37126757026129        0.64146307685529
H           -2.69309971774429        2.18395982493575        0.64527708764041
H           -3.40484240733686       -2.35738931718961        1.71208314132361
H            0.64918252308432       -1.93758978871077        1.12916193827346
H           -0.64683801063550        1.94099077544245       -1.13689739940819
H            3.40791729071717        2.36072473345609       -1.71475991912783
H            4.46561151917204        3.01096211707136        0.23005771188754
H            6.68527278304818        3.95283437084619        0.70398721405705
H            8.67022665562204        2.52095826482215        0.83120480237743
H            8.47772871430046        0.07315338694582        0.52303287441986
H            7.60328703364306       -2.48550628826063        0.13232179088810
H            6.25625211919483       -4.52294669684772       -0.25843628357772
H            3.84194240217018       -4.36970796889943       -0.65033301421549
H            2.69245115058097       -2.18116673078661       -0.65518621071371

          :  Hamiltonian                  GFN2-xTB          :
         :: gradient norm              0.000036134394 Eh/a0 ::
         :: HOMO-LUMO gap              0.832091369344 eV    ::
         :: SCC energy               -98.006086565360 Eh    ::
         :: -> dispersion             -0.079596300767 Eh    ::
         :: -> Gsolv                  -0.041797978971 Eh    ::
         :: repulsion energy           1.700930620096 Eh    ::

    * Orbital Energies and Occupations

         #    Occupation            Energy/Eh            Energy/eV
      -------------------------------------------------------------
         1        2.0000           -0.6963530             -18.9487
       ...           ...                  ...                  ...
        78        2.0000           -0.4297056             -11.6929
        79        2.0000           -0.4287986             -11.6682
        80        2.0000           -0.4285967             -11.6627
        81        2.0000           -0.4171901             -11.3523
        82        2.0000           -0.4168588             -11.3433
        83        2.0000           -0.4148857             -11.2896
        84        2.0000           -0.3908161             -10.6346
        85        2.0000           -0.3908022             -10.6343
        86        2.0000           -0.3898073             -10.6072
        87        2.0000           -0.3823231             -10.4035
        88        1.9984           -0.3756418             -10.2217
        89        1.0016           -0.3633735              -9.8879
        90        1.0000           -0.3071958              -8.3592 (HOMO)
        91        0.0000           -0.2766170              -7.5271 (LUMO)
        92                         -0.2701037              -7.3499
        93                         -0.2560819              -6.9683
        94                         -0.2545916              -6.9278
        95                         -0.2345440              -6.3823
        96                         -0.2337144              -6.3597
        97                         -0.2328810              -6.3370
        98                         -0.2077026              -5.6519
        99                         -0.1979244              -5.3858
       100                         -0.1977278              -5.3804
       101                         -0.1977156              -5.3801
       ...                                ...                  ...
       172                          0.7327511              19.9392
      -------------------------------------------------------------
                  HL-Gap            0.0305788 Eh            0.8321 eV

     #   Z          covCN         q      C6AA      α(0)
     1   6 C        2.920    -0.036    28.896     8.815
     2   6 C        2.923    -0.031    28.777     8.797
     3   6 C        2.910    -0.049    29.224     8.864
     4   6 C        3.060     0.046    26.920     8.509
     5   6 C        3.065    -0.011    28.234     8.713
     6   6 C        2.913    -0.031    28.770     8.796
     7   6 C        3.063    -0.013    28.269     8.719
     8   6 C        2.913    -0.031    28.784     8.798
     9   6 C        2.920    -0.036    28.897     8.815
    10   6 C        2.924    -0.032    28.788     8.799
    11   6 C        2.910    -0.045    29.116     8.848
    12   6 C        3.065     0.052    26.761     8.483
    13   7 N        2.804    -0.045    22.109     6.984
    14   6 C        2.872     0.158    24.583     8.128
    15   6 C        2.898    -0.003    28.109     8.693
    16   7 N        1.840    -0.183    25.784     7.525
    17   6 C        2.898     0.048    26.921     8.507
    18   6 C        2.941     0.062    26.606     8.460
    19   6 C        2.941     0.062    26.606     8.460
    20   6 C        2.897     0.048    26.921     8.507
    21   7 N        1.840    -0.183    25.785     7.525
    22   6 C        2.898    -0.003    28.108     8.693
    23   6 C        2.872     0.158    24.583     8.128
    24   7 N        2.804    -0.045    22.110     6.984
    25   6 C        3.060     0.046    26.920     8.508
    26   6 C        2.910    -0.049    29.224     8.864
    27   6 C        2.923    -0.031    28.777     8.797
    28   6 C        2.920    -0.036    28.896     8.815
    29   6 C        2.913    -0.031    28.771     8.796
    30   6 C        3.065    -0.011    28.235     8.713
    31   6 C        3.063    -0.013    28.269     8.719
    32   6 C        2.913    -0.031    28.784     8.798
    33   6 C        2.920    -0.036    28.897     8.815
    34   6 C        2.924    -0.032    28.788     8.799
    35   6 C        2.910    -0.045    29.116     8.848
    36   6 C        3.065     0.052    26.761     8.483
    37   7 N        1.852    -0.261    27.635     7.791
    38   7 N        1.852    -0.261    27.635     7.791
    39   1 H        0.926     0.043     2.409     2.427
    40   1 H        0.926     0.043     2.413     2.429
    41   1 H        0.926     0.033     2.548     2.496
    42   1 H        0.926     0.046     2.375     2.410
    43   1 H        0.926     0.045     2.377     2.411
    44   1 H        0.926     0.043     2.412     2.429
    45   1 H        0.926     0.041     2.434     2.440
    46   1 H        0.926     0.037     2.491     2.468
    47   1 H        0.926     0.050     2.319     2.381
    48   1 H        0.926     0.062     2.177     2.307
    49   1 H        0.926     0.062     2.177     2.308
    50   1 H        0.926     0.050     2.319     2.381
    51   1 H        0.926     0.033     2.548     2.496
    52   1 H        0.926     0.043     2.414     2.429
    53   1 H        0.926     0.043     2.409     2.427
    54   1 H        0.926     0.046     2.375     2.410
    55   1 H        0.926     0.045     2.378     2.411
    56   1 H        0.926     0.043     2.412     2.429
    57   1 H        0.926     0.041     2.434     2.440
    58   1 H        0.926     0.037     2.491     2.468

molecular dipole:
                 x           y           z       tot (Debye)
 q only:       -0.002      -0.001       0.002
   full:       -0.002      -0.001       0.001       0.007

 projected vibrational frequencies (cm⁻¹)
eigval :       -0.00    -0.00     0.00     0.00     0.00     0.00
eigval :       17.03    17.36    25.47    34.66    44.33    69.29
eigval :       81.71    97.94    98.97    99.70   117.64   127.70
eigval :      142.90   145.85   189.22   193.88   210.12   223.43
eigval :      228.06   272.31   272.42   276.19   288.99   329.24
eigval :      329.37   352.47   374.78   388.79   394.47   395.39
eigval :      422.77   423.75   434.45   434.84   451.81   478.81
eigval :      512.84   514.79   519.39   523.04   539.97   540.09
eigval :      554.51   557.40   576.36   585.15   585.89   607.81
eigval :      613.00   617.87   628.07   662.87   663.47   670.76
eigval :      675.11   677.26   709.58   710.18   730.63   733.67
eigval :      741.38   753.95   756.21   772.62   773.26   782.88
eigval :      783.26   819.81   824.44   827.70   872.84   873.05
eigval :      876.31   876.46   893.50   893.99   904.84   904.91
eigval :      906.55   906.61   922.44   923.23   923.45   924.56
eigval :      924.65   959.06   987.43  1009.90  1011.41  1031.90
eigval :     1066.30  1066.61  1073.09  1073.15  1091.71  1119.46
eigval :     1120.35  1124.75  1130.25  1146.66  1146.80  1170.72
eigval :     1173.38  1177.25  1177.33  1178.70  1185.03  1216.13
eigval :     1218.25  1227.77  1228.73  1238.14  1248.82  1262.88
eigval :     1269.37  1284.05  1286.69  1290.78  1293.17  1301.18
eigval :     1308.18  1349.76  1350.88  1354.86  1355.96  1356.95
eigval :     1365.30  1414.85  1419.26  1419.95  1419.98  1435.42
eigval :     1449.45  1466.48  1466.60  1477.84  1480.64  1480.77
eigval :     1505.33  1548.57  1572.99  1573.07  1586.28  1586.34
eigval :     1591.79  1591.80  1604.57  1605.15  3076.26  3076.64
eigval :     3080.02  3080.02  3081.94  3081.95  3086.39  3086.40
eigval :     3086.91  3086.92  3093.57  3093.64  3095.75  3095.77
eigval :     3099.97  3099.97  3101.15  3101.51  3108.47  3109.04

   temp. (K)  partition function   enthalpy   heat capacity  entropy
                                   cal/mol     cal/K/mol   cal/K/mol   J/K/mol
 298.15  VIB  0.344E+12            16174.171    106.934     97.995
         ROT  0.443E+08              888.752      2.981     37.968
         INT  0.152E+20            17062.924    109.915    135.964
         TR   0.104E+29             1481.254      4.968     44.426
         TOT                       18544.1774   114.8828   180.3898   754.7509

       T/K    H(0)-H(T)+PV         H(T)/Eh          T*S/Eh         G(T)/Eh
   ------------------------------------------------------------------------
    298.15    0.295520E-01    0.458092E+00    0.857090E-01    0.372383E+00
   ------------------------------------------------------------------------

         :::::::::::::::::::::::::::::::::::::::::::::::::::::
         ::                  THERMODYNAMIC                  ::
         :::::::::::::::::::::::::::::::::::::::::::::::::::::
         :: total free energy         -95.932773141283 Eh   ::
         ::.................................................::
         :: total energy              -96.305155942879 Eh   ::
         :: zero point energy           0.428539787313 Eh   ::
         :: G(RRHO) w/o ZPVE           -0.056156985716 Eh   ::
         :: G(RRHO) contrib.            0.372382801596 Eh   ::
         :::::::::::::::::::::::::::::::::::::::::::::::::::::

           -------------------------------------------------
          | TOTAL ENERGY              -96.305155942879 Eh   |
          | TOTAL ENTHALPY            -95.847064127754 Eh   |
          | TOTAL FREE ENERGY         -95.932773141283 Eh   |
          | GRADIENT NORM               0.000036050718 Eh/α |
          | HOMO-LUMO GAP               0.832090931293 eV   |
           -------------------------------------------------

 * finished run on 2025/08/30 at 21:04:32.375
