   * xtb version 6.7.1 (edcfbbe) compiled by 'albert@albert-system' on 2024-07-22

   ID    Z sym.   atoms
    1    6 C      1-12, 14, 15, 17-20, 22, 23, 25-36
    2    7 N      13, 16, 21, 24, 37, 38
    3    1 H      39-58

          program call               : xtb data2507/toluene/CPzPzC/CPzPzC_toluene_S0_crest.xyz --gfn 2 --gbsa toluene --ohess vtight --parallel 40 --molden --ceasefiles --namespace data2507/toluene/CPzPzC/CPzPzC_toluene_S0_finalOpt
      * Solvation model:               GBSA
        Solvent                        toluene
        Solvent mass                       9.2140E+01 g/mol
          :  Hamiltonian                  GFN2-xTB          :
 * total energy  :   -96.3627573 Eh     change       -0.2541029E-08 Eh
 * total energy  :   -96.3628009 Eh     change       -0.4356632E-04 Eh
 * total energy  :   -96.3628178 Eh     change       -0.1691519E-04 Eh
 * total energy  :   -96.3628228 Eh     change       -0.4951490E-05 Eh
 * total energy  :   -96.3628284 Eh     change       -0.5611121E-05 Eh
 * total energy  :   -96.3628326 Eh     change       -0.4175598E-05 Eh
 * total energy  :   -96.3628352 Eh     change       -0.2664316E-05 Eh
 * total energy  :   -96.3628369 Eh     change       -0.1665895E-05 Eh
 * total energy  :   -96.3628384 Eh     change       -0.1533783E-05 Eh
 * total energy  :   -96.3628399 Eh     change       -0.1483307E-05 Eh
 * total energy  :   -96.3628653 Eh     change       -0.4912208E-06 Eh
 * total energy  :   -96.3628657 Eh     change       -0.3496487E-06 Eh
 * total energy  :   -96.3628659 Eh     change       -0.2190111E-06 Eh
 * total energy  :   -96.3628661 Eh     change       -0.1920661E-06 Eh
 * total energy  :   -96.3628663 Eh     change       -0.2323255E-06 Eh
 * total energy  :   -96.3628666 Eh     change       -0.2974093E-06 Eh
 * total energy  :   -96.3628669 Eh     change       -0.2936426E-06 Eh
 * total energy  :   -96.3628672 Eh     change       -0.2378423E-06 Eh
 * total energy  :   -96.3628672 Eh     change       -0.1518956E-08 Eh
   *** GEOMETRY OPTIMIZATION CONVERGED AFTER 44 ITERATIONS ***

 final structure:
================
58
 xtb: 6.7.1 (edcfbbe)
C           -7.77356626554858        1.51840238484462        1.48077844903965
C           -6.67018201759038        2.26734489882538        1.87718439535598
C           -5.39023916495508        1.94980158246440        1.45580338122899
C           -5.23455246431334        0.86434539181363        0.60691606226073
C           -6.34406156225150        0.07077235340435        0.24231637267815
C           -7.61971240114967        0.40772175909457        0.67349654835855
C           -5.83382378456494       -1.02481612217022       -0.53991969791072
C           -6.44203502268032       -2.10265936869009       -1.16912792706945
C           -5.64765093775267       -2.99985098805479       -1.85697526085810
C           -4.26865305756356       -2.82466136046528       -1.92723032244108
C           -3.64319179497679       -1.75643775349371       -1.30815340243859
C           -4.43470597987871       -0.86189628289368       -0.60713369282054
N           -4.07729153217128        0.30651505265026        0.06628144548842
C           -2.80644442530897        0.83221767350194        0.12942221536837
C           -2.56613680403912        2.21948358481240        0.12514259113772
N           -1.34756471263084        2.70633108449134        0.23656611637407
C           -0.33987714972979        1.84914324903733        0.32448798426391
C           -0.55345591733994        0.47382230871505        0.23107479796671
C            0.55558152443404       -0.48134455306181        0.23358276868380
C            0.34479979362754       -1.85614322463597        0.33995350446749
N            1.35414907477238       -2.71207023170635        0.25844517681992
C            2.57165707735655       -2.22422730917187        0.13926036765537
C            2.80923070459982       -0.83658606821552        0.12789944608384
N            4.07806718749113       -0.30730540503419        0.05399176530810
C            5.23954487568355       -0.85186614275167        0.59908494674375
C            5.40402564231169       -1.92925161564879        1.45655547469249
C            6.68650494668033       -2.23311646591757        1.88041716890417
C            7.78385277980106       -1.47848073737916        1.47816089289885
C            7.62118485388161       -0.37597500604130        0.66148233705160
C            6.34295507068992       -0.05303589720516        0.22732641503640
C            5.82459589990326        1.03136354374846       -0.56501838664745
C            6.42475720801179        2.10801642141644       -1.20394936586521
C            5.62376717199471        2.99261098620989       -1.90037522162996
C            4.24621614219214        2.80601052137206       -1.96958402983397
C            3.62878602044526        1.73887343093642       -1.34068850943096
C            4.42679396491094        0.85726240372550       -0.63065407271205
N            1.78809636431046        0.01554443638947        0.13863533785988
N           -1.78709267209559       -0.02204759150055        0.14480624975855
H           -8.75684225070263        1.80143197575714        1.82503495933661
H           -6.80993025518591        3.11243956251765        2.53446803127222
H           -4.54676439288714        2.52521238660773        1.80486795779501
H           -8.46825200428565       -0.19523102830816        0.38962717328806
H           -7.51236491410909       -2.23102295736280       -1.12073308832201
H           -6.09899272360596       -3.84761218980503       -2.35028377452738
H           -3.67009712027372       -3.53739645166623       -2.47482255145978
H           -2.57444282497188       -1.62622429506342       -1.36377060356704
H           -3.36019413037386        2.93848587283970       -0.01215466274112
H            0.65070664215246        2.26024451133828        0.44235951283323
H           -0.64466889372908       -2.26822688266468        0.46377470476693
H            3.36668570785049       -2.94330669966101        0.00810522643603
H            4.56538624257244       -2.50877494386531        1.81032153850863
H            6.83311549003100       -3.07167516528665        2.54454034859358
H            8.76927674881065       -1.75042634793229        1.82514648725551
H            8.46486290787063        0.23138424971645        0.37254585901571
H            7.49403968805552        2.24507583462180       -1.15639350300095
H            6.06871715243431        3.83925936069769       -2.40133418877297
H            3.64237611177732        3.50872987717108       -2.52429159696815
H            2.56106741491638        1.60014288553095       -1.39553349466939

          :  Hamiltonian                  GFN2-xTB          :
         :: gradient norm              0.000031208551 Eh/a0 ::
         :: HOMO-LUMO gap              1.613505263196 eV    ::
         :: SCC energy               -98.060979230233 Eh    ::
         :: -> dispersion             -0.079788270065 Eh    ::
         :: -> Gsolv                  -0.041559455576 Eh    ::
         :: repulsion energy           1.698112069465 Eh    ::

    * Orbital Energies and Occupations

         #    Occupation            Energy/Eh            Energy/eV
      -------------------------------------------------------------
         1        2.0000           -0.7055370             -19.1986
       ...           ...                  ...                  ...
        77        2.0000           -0.4298616             -11.6971
        78        2.0000           -0.4294214             -11.6852
        79        2.0000           -0.4294046             -11.6847
        80        2.0000           -0.4273484             -11.6287
        81        2.0000           -0.4263337             -11.6011
        82        2.0000           -0.4163558             -11.3296
        83        2.0000           -0.4163182             -11.3286
        84        2.0000           -0.3920765             -10.6689
        85        2.0000           -0.3902513             -10.6193
        86        2.0000           -0.3902353             -10.6188
        87        2.0000           -0.3849049             -10.4738
        88        2.0000           -0.3778200             -10.2810
        89        2.0000           -0.3698355             -10.0637 (HOMO)
        90                         -0.3105403              -8.4502 (LUMO)
        91                         -0.2878360              -7.8324
        92                         -0.2788816              -7.5888
        93                         -0.2570034              -6.9934
        94                         -0.2546282              -6.9288
        95                         -0.2432208              -6.6184
        96                         -0.2331555              -6.3445
        97                         -0.2330082              -6.3405
        98                         -0.2086955              -5.6789
        99                         -0.1996005              -5.4314
       100                         -0.1972019              -5.3661
       ...                                ...                  ...
       172                          0.7322835              19.9264
      -------------------------------------------------------------
                  HL-Gap            0.0592952 Eh            1.6135 eV

     #   Z          covCN         q      C6AA      α(0)
     1   6 C        2.920    -0.037    28.911     8.817
     2   6 C        2.924    -0.031    28.785     8.798
     3   6 C        2.910    -0.051    29.277     8.872
     4   6 C        3.055     0.044    26.969     8.517
     5   6 C        3.064    -0.011    28.226     8.712
     6   6 C        2.913    -0.031    28.785     8.798
     7   6 C        3.063    -0.013    28.275     8.720
     8   6 C        2.913    -0.032    28.805     8.801
     9   6 C        2.920    -0.037    28.917     8.818
    10   6 C        2.924    -0.032    28.793     8.800
    11   6 C        2.910    -0.047    29.164     8.855
    12   6 C        3.059     0.051    26.790     8.488
    13   7 N        2.801    -0.050    22.208     6.999
    14   6 C        2.886     0.153    24.685     8.145
    15   6 C        2.907     0.034    27.231     8.557
    16   7 N        1.839    -0.214    26.507     7.630
    17   6 C        2.908     0.042    27.066     8.531
    18   6 C        2.955     0.087    26.058     8.373
    19   6 C        2.955     0.087    26.059     8.373
    20   6 C        2.907     0.042    27.066     8.531
    21   7 N        1.839    -0.214    26.507     7.630
    22   6 C        2.906     0.034    27.231     8.557
    23   6 C        2.886     0.153    24.685     8.146
    24   7 N        2.801    -0.050    22.207     6.999
    25   6 C        3.055     0.044    26.968     8.517
    26   6 C        2.910    -0.051    29.278     8.873
    27   6 C        2.924    -0.031    28.785     8.798
    28   6 C        2.920    -0.037    28.911     8.817
    29   6 C        2.913    -0.031    28.785     8.798
    30   6 C        3.064    -0.011    28.226     8.712
    31   6 C        3.062    -0.013    28.275     8.720
    32   6 C        2.913    -0.032    28.805     8.801
    33   6 C        2.920    -0.037    28.917     8.818
    34   6 C        2.924    -0.032    28.794     8.800
    35   6 C        2.910    -0.047    29.163     8.855
    36   6 C        3.059     0.051    26.789     8.488
    37   7 N        1.855    -0.263    27.690     7.799
    38   7 N        1.855    -0.263    27.690     7.799
    39   1 H        0.926     0.043     2.415     2.430
    40   1 H        0.926     0.042     2.419     2.432
    41   1 H        0.926     0.030     2.588     2.516
    42   1 H        0.926     0.045     2.379     2.412
    43   1 H        0.926     0.044     2.392     2.418
    44   1 H        0.926     0.042     2.427     2.436
    45   1 H        0.926     0.040     2.442     2.444
    46   1 H        0.926     0.039     2.458     2.451
    47   1 H        0.926     0.054     2.266     2.354
    48   1 H        0.926     0.059     2.205     2.322
    49   1 H        0.926     0.059     2.206     2.323
    50   1 H        0.926     0.054     2.266     2.354
    51   1 H        0.926     0.030     2.588     2.516
    52   1 H        0.926     0.042     2.420     2.432
    53   1 H        0.926     0.043     2.415     2.430
    54   1 H        0.926     0.045     2.379     2.412
    55   1 H        0.926     0.044     2.392     2.418
    56   1 H        0.926     0.042     2.427     2.436
    57   1 H        0.926     0.040     2.443     2.444
    58   1 H        0.926     0.039     2.459     2.452

molecular dipole:
                 x           y           z       tot (Debye)
 q only:       -0.002       0.003      -0.134
   full:       -0.002       0.002      -0.051       0.129

 projected vibrational frequencies (cm⁻¹)
eigval :       -0.00    -0.00    -0.00     0.00     0.00     0.00
eigval :        9.19    15.58    22.08    34.44    42.99    60.22
eigval :       72.96    92.58    96.37   102.48   117.33   127.37
eigval :      139.08   145.53   181.57   197.43   210.73   220.19
eigval :      228.96   272.92   273.72   284.85   288.09   330.05
eigval :      333.17   346.63   368.42   394.09   395.03   408.01
eigval :      422.79   423.25   437.01   438.10   441.79   460.42
eigval :      502.57   515.56   516.61   532.75   540.18   540.35
eigval :      549.63   578.18   584.52   591.64   603.12   611.24
eigval :      620.02   636.24   659.26   673.16   674.92   680.30
eigval :      708.96   709.86   722.73   723.54   739.09   754.28
eigval :      757.79   769.00   769.24   779.91   780.62   827.90
eigval :      829.80   837.47   870.90   872.21   876.01   877.35
eigval :      891.42   891.77   894.87   895.25   905.56   906.16
eigval :      907.39   907.91   919.87   920.29   922.57   922.80
eigval :      951.26  1008.06  1011.52  1017.08  1020.52  1033.36
eigval :     1069.51  1069.68  1075.29  1075.50  1115.43  1129.81
eigval :     1141.44  1146.28  1147.69  1153.07  1157.49  1174.82
eigval :     1175.18  1176.18  1177.61  1185.95  1191.77  1222.78
eigval :     1227.87  1230.58  1241.16  1245.26  1256.65  1262.77
eigval :     1282.55  1284.92  1290.84  1296.29  1308.53  1349.97
eigval :     1351.60  1354.29  1355.02  1368.68  1379.21  1405.14
eigval :     1407.44  1419.58  1422.46  1426.99  1432.27  1449.49
eigval :     1468.80  1469.65  1481.36  1481.38  1496.40  1514.35
eigval :     1542.92  1561.35  1576.60  1576.79  1587.98  1588.16
eigval :     1596.60  1596.63  1608.06  1608.14  3077.65  3077.83
eigval :     3079.85  3079.97  3080.70  3081.00  3086.12  3086.24
eigval :     3087.36  3087.53  3093.75  3093.85  3094.24  3094.99
eigval :     3097.42  3097.63  3100.79  3100.84  3108.20  3108.29

   temp. (K)  partition function   enthalpy   heat capacity  entropy
                                   cal/mol     cal/K/mol   cal/K/mol   J/K/mol
 298.15  VIB  0.997E+12            16078.053    105.285     98.543
         ROT  0.218E+08              888.752      2.981     36.564
         INT  0.218E+20            16966.805    108.266    135.106
         TR   0.104E+29             1481.254      4.968     44.426
         TOT                       18448.0591   113.2345   179.5325   751.1641

       T/K    H(0)-H(T)+PV         H(T)/Eh          T*S/Eh         G(T)/Eh
   ------------------------------------------------------------------------
    298.15    0.293989E-01    0.460848E+00    0.853017E-01    0.375547E+00
   ------------------------------------------------------------------------

         :::::::::::::::::::::::::::::::::::::::::::::::::::::
         ::                  THERMODYNAMIC                  ::
         :::::::::::::::::::::::::::::::::::::::::::::::::::::
         :: total free energy         -95.987320400521 Eh   ::
         ::.................................................::
         :: total energy              -96.362867163569 Eh   ::
         :: zero point energy           0.431449610573 Eh   ::
         :: G(RRHO) w/o ZPVE           -0.055902847525 Eh   ::
         :: G(RRHO) contrib.            0.375546763048 Eh   ::
         :::::::::::::::::::::::::::::::::::::::::::::::::::::

           -------------------------------------------------
          | TOTAL ENERGY              -96.362867163569 Eh   |
          | TOTAL ENTHALPY            -95.902018699507 Eh   |
          | TOTAL FREE ENERGY         -95.987320400521 Eh   |
          | GRADIENT NORM               0.000031200962 Eh/α |
          | HOMO-LUMO GAP               1.613505398536 eV   |
           -------------------------------------------------

 * finished run on 2025/08/30 at 21:01:37.082
