   * xtb version 6.7.1 (edcfbbe) compiled by 'albert@albert-system' on 2024-07-22

   ID    Z sym.   atoms
    1    7 N      1, 5, 20, 22, 36, 50
    2    6 C      2-4, 6-19, 21, 23-35, 37-49, 51-62
    3    1 H      63-94

          program call               : xtb data2507/gas/4CzIPN/4CzIPN_gas_S0_crest.xyz --gfn 2 --ohess vtight --parallel 40 --molden --ceasefiles --namespace data2507/gas/4CzIPN/4CzIPN_gas_S0_finalOpt
          :  Hamiltonian                  GFN2-xTB          :
 * total energy  :  -153.8637090 Eh     change       -0.1931909E-08 Eh
 * total energy  :  -153.8637099 Eh     change       -0.9343866E-06 Eh
 * total energy  :  -153.8637108 Eh     change       -0.8902188E-06 Eh
 * total energy  :  -153.8637123 Eh     change       -0.1529267E-05 Eh
 * total energy  :  -153.8637136 Eh     change       -0.1321567E-05 Eh
 * total energy  :  -153.8637148 Eh     change       -0.1140808E-05 Eh
 * total energy  :  -153.8637157 Eh     change       -0.9127528E-06 Eh
 * total energy  :  -153.8637164 Eh     change       -0.6817737E-06 Eh
 * total energy  :  -153.8637170 Eh     change       -0.5905031E-06 Eh
 * total energy  :  -153.8637174 Eh     change       -0.4815223E-06 Eh
 * total energy  :  -153.8637191 Eh     change       -0.3329205E-06 Eh
 * total energy  :  -153.8637194 Eh     change       -0.2749298E-06 Eh
 * total energy  :  -153.8637197 Eh     change       -0.2892311E-06 Eh
 * total energy  :  -153.8637200 Eh     change       -0.3604214E-06 Eh
 * total energy  :  -153.8637203 Eh     change       -0.3128486E-06 Eh
 * total energy  :  -153.8637206 Eh     change       -0.2309495E-06 Eh
 * total energy  :  -153.8637208 Eh     change       -0.1850636E-06 Eh
 * total energy  :  -153.8637208 Eh     change        0.2431477E-09 Eh
 * total energy  :  -153.8637208 Eh     change       -0.5038009E-07 Eh
   *** GEOMETRY OPTIMIZATION CONVERGED AFTER 23 ITERATIONS ***

 final structure:
================
94
 xtb: 6.7.1 (edcfbbe)
N            2.90456118123548       -3.14121517683179       -1.29226771784649
C            2.32943409279958       -2.25613313800153       -0.84577382455516
C            1.61670147327429       -1.13875905738186       -0.35309646358479
C            2.31587118464202        0.02546905580100        0.00094704100663
N            3.70341506699164        0.04130162244002        0.00258366267677
C            4.52594290633000       -0.85042086760609        0.67681378533173
C            4.18925402077638       -1.88603296328307        1.53172005740801
C            5.21767672667370       -2.60799482659978        2.10749500011584
C            6.55022325321540       -2.29762053857513        1.85434506901044
C            6.89012032506218       -1.24173346316920        1.03159182285148
C            5.87301034750755       -0.50595652334796        0.44004152624837
C            5.86060126429161        0.64261675083741       -0.42524842544790
C            6.86155711125748        1.40358431142752       -1.01245372482223
C            6.49891241344359        2.45027010955503       -1.83725479963764
C            5.16015048836238        2.72686993806561       -2.09672879300606
C            4.14759146833787        1.97960028897814       -1.52514391020527
C            4.50641701709112        0.95320408959797       -0.66811868608786
C            1.58974010259220        1.17361422759487        0.35365518046684
C            2.27569169958119        2.30688427190457        0.84801036962739
N            2.82918796388222        3.20513617299316        1.29553155518661
C            0.18430711294985        1.16649325060569        0.34859305081635
N           -0.51462406336911        2.30941827848226        0.72313813117116
C           -0.45015887547625        3.54355033270396        0.08616069742369
C            0.40076128365908        3.97819507160881       -0.91601029539299
C            0.21786925870341        5.25594432088997       -1.41145894516911
C           -0.79690503584498        6.07943920913476       -0.93479358977633
C           -1.66450424099181        5.64065139362018        0.04611905405145
C           -1.49547455777645        4.36359318825660        0.56101088203281
C           -2.21275454598209        3.59618516349453        1.54283367530064
C           -3.30945745869811        3.86245537616858        2.34963915650144
C           -3.73681862567671        2.88523192237285        3.22774897693021
C           -3.06028502604312        1.67438903981461        3.33761864617991
C           -1.96032434095813        1.39210691800945        2.54963612280784
C           -1.57276633632295        2.34267649361070        1.62008551158514
C           -0.50808284753652       -0.00636070489664       -0.00297737390411
N           -1.90475962652482       -0.02113292029318       -0.00588919559011
C           -2.72236260963472        0.84647546589595       -0.71079039798201
C           -2.38195360030109        1.84390104367712       -1.61038044808124
C           -3.40627139204026        2.57225962852014       -2.18416924157673
C           -4.73947103182792        2.29745981050819       -1.89543374689648
C           -5.08404243878502        1.26714932299934       -1.04291866686518
C           -4.07113413011739        0.52905732311104       -0.44762219189861
C           -4.06259044344940       -0.59326253036050        0.44895869285018
C           -5.06458152922583       -1.34033629122862        1.05144674126595
C           -4.70479397891220       -2.36690216570926        1.90216610274253
C           -3.36712793130658       -2.62966830112324        2.18124093767267
C           -2.35343443595233       -1.89205337913653        1.60040342919537
C           -2.70903369188403       -0.89726426182145        0.70380972339757
C            0.21129665156330       -1.16349183024009       -0.35146499236732
N           -0.46000574446431       -2.32289733539426       -0.72543210857303
C           -0.36152250495133       -3.55567540274783       -0.09039720537829
C            0.49642147361801       -3.96601210555585        0.91607078829670
C            0.35010807231181       -5.24978048501967        1.40800984247605
C           -0.63615710730774       -6.10303310134480        0.92387376774430
C           -1.51173033003236       -5.68874702152288       -0.06060007539940
C           -1.37918886707871       -4.40593788545210       -0.57195324951277
C           -2.11456796970479       -3.65827891877274       -1.55561396441493
C           -3.19824594162522       -3.95653780477320       -2.36882084897881
C           -3.65118214952787       -2.99097178781766       -3.24697353557060
C           -3.01225650726779       -1.75927912785635       -3.35004446433291
C           -1.92544307594041       -1.44499850567443       -2.55593313231090
C           -1.51271360176903       -2.38559347402863       -1.62705629486612
H            3.16058677538581       -2.12388774354107        1.75693237414131
H            4.98003058785254       -3.42658897558510        2.76994154416681
H            7.32619980489908       -2.88642663543460        2.31957707012892
H            7.92327365872344       -0.98639975411157        0.85293648880386
H            7.89999128299969        1.17443072112707       -0.82897818165058
H            7.26194242969068        3.05822397394507       -2.29925862669070
H            4.90506243885861        3.53879946590750       -2.76088684779760
H            3.11422518901467        2.19118626028920       -1.75519678154954
H            1.18542296688533        3.35028533666459       -1.30974062608742
H            0.87628782259149        5.61832681251942       -2.18645444766282
H           -0.90803042859364        7.07159332378378       -1.34545633672083
H           -2.46259841272117        6.27175014456784        0.40568948044472
H           -3.81152827643325        4.81591701903628        2.29225998209408
H           -4.59542041235767        3.06801935728750        3.85601633731146
H           -3.39500246985399        0.93986046167215        4.05443659878819
H           -1.42169537124963        0.46469906548502        2.66948073547949
H           -1.35474307540494        2.05045455520976       -1.87136600854959
H           -3.16275422118416        3.36678710571807       -2.87347153166774
H           -5.51248971029896        2.89040955912401       -2.36052743582528
H           -6.11860625434428        1.03441574462044       -0.84256694881374
H           -6.10256366351917       -1.11711342222181        0.85806123836928
H           -5.46914705561736       -2.96643114361704        2.37312030696134
H           -3.11156024298933       -3.42186154969781        2.86888067423841
H           -1.32279543109711       -2.08948172914988        1.85457657373811
H            1.25875957607386       -3.31490444410930        1.31595943020981
H            1.01491440436790       -5.59335578192979        2.18610572592232
H           -0.71885857205792       -7.09910454894633        1.33173538033616
H           -2.28827717762050       -6.34318156494045       -0.42559417182578
H           -3.67060343143776       -4.92534790091046       -2.31634441696535
H           -4.50021962644566       -3.19892087103256       -3.88040080474648
H           -3.36608087655812       -1.03360144841220       -4.06671368092910
H           -1.41558929740492       -0.50095849683092       -2.67118387699223

          :  Hamiltonian                  GFN2-xTB          :
         :: gradient norm              0.000078111731 Eh/a0 ::
         :: HOMO-LUMO gap              1.949738351962 eV    ::
         :: SCC energy              -156.823047952079 Eh    ::
         :: -> dispersion             -0.173497858886 Eh    ::
         :: repulsion energy           2.959327138161 Eh    ::

    * Orbital Energies and Occupations

         #    Occupation            Energy/Eh            Energy/eV
      -------------------------------------------------------------
         1        2.0000           -0.7162895             -19.4912
       ...           ...                  ...                  ...
       131        2.0000           -0.4248508             -11.5608
       132        2.0000           -0.4161314             -11.3235
       133        2.0000           -0.4145824             -11.2814
       134        2.0000           -0.4137352             -11.2583
       135        2.0000           -0.4131228             -11.2416
       136        2.0000           -0.3921703             -10.6715
       137        2.0000           -0.3896046             -10.6017
       138        2.0000           -0.3866648             -10.5217
       139        2.0000           -0.3863789             -10.5139
       140        2.0000           -0.3814272             -10.3792
       141        2.0000           -0.3809731             -10.3668
       142        2.0000           -0.3793968             -10.3239
       143        2.0000           -0.3734335             -10.1616 (HOMO)
       144                         -0.3017819              -8.2119 (LUMO)
       145                         -0.2890395              -7.8652
       146                         -0.2556778              -6.9573
       147                         -0.2552429              -6.9455
       148                         -0.2549466              -6.9375
       149                         -0.2525883              -6.8733
       150                         -0.2372868              -6.4569
       151                         -0.2325835              -6.3289
       152                         -0.2303067              -6.2670
       153                         -0.2302784              -6.2662
       154                         -0.2274676              -6.1897
       ...                                ...                  ...
       280                          1.1565003              31.4700
      -------------------------------------------------------------
                  HL-Gap            0.0716516 Eh            1.9497 eV

     #   Z          covCN         q      C6AA      α(0)
     1   7 N        0.911    -0.225    25.919     7.363
     2   6 C        1.911     0.121    28.127     8.565
     3   6 C        2.973    -0.019    28.470     8.752
     4   6 C        2.921     0.075    26.322     8.413
     5   7 N        2.802    -0.047    22.142     6.989
     6   6 C        3.067     0.050    26.814     8.491
     7   6 C        2.911    -0.043    29.068     8.841
     8   6 C        2.925    -0.029    28.716     8.788
     9   6 C        2.921    -0.036    28.889     8.814
    10   6 C        2.913    -0.029    28.729     8.789
    11   6 C        3.067    -0.010    28.206     8.709
    12   6 C        3.067    -0.010    28.206     8.709
    13   6 C        2.913    -0.029    28.729     8.789
    14   6 C        2.921    -0.036    28.889     8.814
    15   6 C        2.925    -0.029    28.715     8.788
    16   6 C        2.911    -0.043    29.068     8.841
    17   6 C        3.067     0.050    26.814     8.491
    18   6 C        2.973    -0.019    28.469     8.752
    19   6 C        1.911     0.121    28.127     8.565
    20   7 N        0.911    -0.225    25.918     7.363
    21   6 C        2.916     0.064    26.573     8.453
    22   7 N        2.800    -0.045    22.117     6.985
    23   6 C        3.066     0.052    26.763     8.483
    24   6 C        2.911    -0.043    29.074     8.842
    25   6 C        2.925    -0.029    28.726     8.789
    26   6 C        2.920    -0.036    28.899     8.816
    27   6 C        2.914    -0.030    28.737     8.790
    28   6 C        3.068    -0.011    28.221     8.711
    29   6 C        3.065    -0.012    28.250     8.716
    30   6 C        2.914    -0.031    28.762     8.794
    31   6 C        2.921    -0.036    28.906     8.817
    32   6 C        2.925    -0.030    28.761     8.795
    33   6 C        2.911    -0.046    29.142     8.852
    34   6 C        3.071     0.050    26.815     8.491
    35   6 C        2.910     0.034    27.242     8.558
    36   7 N        2.803    -0.045    22.111     6.984
    37   6 C        3.072     0.050    26.807     8.489
    38   6 C        2.911    -0.047    29.170     8.856
    39   6 C        2.925    -0.031    28.782     8.798
    40   6 C        2.921    -0.038    28.943     8.822
    41   6 C        2.914    -0.031    28.769     8.795
    42   6 C        3.069    -0.014    28.299     8.723
    43   6 C        3.069    -0.014    28.299     8.723
    44   6 C        2.914    -0.031    28.768     8.795
    45   6 C        2.921    -0.038    28.943     8.822
    46   6 C        2.925    -0.031    28.783     8.798
    47   6 C        2.911    -0.047    29.172     8.857
    48   6 C        3.072     0.050    26.806     8.489
    49   6 C        2.916     0.064    26.575     8.453
    50   7 N        2.800    -0.045    22.111     6.984
    51   6 C        3.067     0.052    26.764     8.483
    52   6 C        2.911    -0.043    29.074     8.842
    53   6 C        2.925    -0.029    28.726     8.789
    54   6 C        2.920    -0.036    28.898     8.816
    55   6 C        2.914    -0.030    28.737     8.790
    56   6 C        3.068    -0.011    28.220     8.711
    57   6 C        3.065    -0.012    28.250     8.716
    58   6 C        2.914    -0.031    28.762     8.794
    59   6 C        2.921    -0.036    28.906     8.817
    60   6 C        2.925    -0.030    28.761     8.795
    61   6 C        2.911    -0.046    29.144     8.852
    62   6 C        3.071     0.050    26.816     8.491
    63   1 H        0.926     0.018     2.771     2.603
    64   1 H        0.926     0.036     2.499     2.472
    65   1 H        0.926     0.036     2.504     2.475
    66   1 H        0.926     0.038     2.472     2.459
    67   1 H        0.926     0.038     2.472     2.459
    68   1 H        0.926     0.036     2.504     2.475
    69   1 H        0.926     0.036     2.499     2.472
    70   1 H        0.926     0.017     2.772     2.604
    71   1 H        0.926     0.020     2.727     2.582
    72   1 H        0.926     0.037     2.493     2.469
    73   1 H        0.926     0.035     2.510     2.477
    74   1 H        0.926     0.037     2.487     2.466
    75   1 H        0.926     0.037     2.488     2.467
    76   1 H        0.926     0.035     2.521     2.483
    77   1 H        0.926     0.034     2.534     2.489
    78   1 H        0.926     0.024     2.676     2.558
    79   1 H        0.926     0.019     2.750     2.593
    80   1 H        0.926     0.033     2.551     2.497
    81   1 H        0.926     0.033     2.539     2.492
    82   1 H        0.926     0.035     2.510     2.478
    83   1 H        0.926     0.035     2.510     2.478
    84   1 H        0.926     0.033     2.539     2.492
    85   1 H        0.926     0.033     2.550     2.497
    86   1 H        0.926     0.019     2.747     2.592
    87   1 H        0.926     0.020     2.729     2.583
    88   1 H        0.926     0.037     2.494     2.469
    89   1 H        0.926     0.035     2.510     2.477
    90   1 H        0.926     0.037     2.487     2.466
    91   1 H        0.926     0.037     2.488     2.467
    92   1 H        0.926     0.035     2.521     2.483
    93   1 H        0.926     0.034     2.533     2.489
    94   1 H        0.926     0.024     2.673     2.557

molecular dipole:
                 x           y           z       tot (Debye)
 q only:       -1.030      -0.013      -0.001
   full:       -1.404      -0.017      -0.002       3.568

 projected vibrational frequencies (cm⁻¹)
eigval :       -0.00    -0.00     0.00     0.00     0.00     0.00
eigval :       14.02    16.52    22.60    24.10    24.22    27.85
eigval :       29.46    42.40    48.63    52.40    61.49    65.05
eigval :       87.40    93.73   105.27   105.70   106.56   116.62
eigval :      117.58   120.54   121.76   125.51   132.12   146.89
eigval :      147.42   152.55   158.60   170.90   180.43   199.75
eigval :      205.39   212.23   235.33   256.13   260.06   270.91
eigval :      273.72   274.59   279.27   279.39   279.88   293.19
eigval :      348.98   353.75   359.39   379.37   382.77   394.45
eigval :      399.46   401.28   408.30   418.91   422.52   422.87
eigval :      428.23   428.57   435.08   437.99   438.88   445.62
eigval :      475.49   481.54   486.72   516.20   518.23   518.72
eigval :      518.99   524.68   527.40   529.01   533.78   540.61
eigval :      541.53   541.66   543.73   547.56   560.09   571.44
eigval :      580.12   586.79   588.74   590.03   594.05   596.72
eigval :      604.46   639.75   652.91   655.32   663.05   670.46
eigval :      671.53   673.43   673.77   694.38   705.12   705.77
eigval :      705.94   707.52   729.12   729.44   738.91   754.24
eigval :      756.46   758.36   759.49   763.64   767.08   768.66
eigval :      771.90   777.11   781.14   781.40   783.74   807.57
eigval :      859.35   860.13   868.44   869.44   876.71   877.37
eigval :      878.81   880.29   888.86   893.60   895.03   896.83
eigval :      899.44   899.82   901.95   902.36   903.22   904.99
eigval :      905.67   906.91   907.71   920.15   920.82   921.69
eigval :      921.95   924.15   924.35   925.55   925.86   960.12
eigval :     1004.38  1013.22  1013.66  1015.17  1018.41  1069.78
eigval :     1069.97  1070.90  1071.57  1072.14  1073.81  1074.99
eigval :     1076.27  1078.19  1079.33  1116.16  1140.96  1149.67
eigval :     1152.18  1153.57  1154.17  1160.91  1163.53  1177.92
eigval :     1178.06  1179.56  1180.15  1180.74  1180.92  1181.76
eigval :     1183.36  1198.36  1217.34  1229.96  1230.84  1231.21
eigval :     1234.97  1235.96  1237.44  1248.42  1264.97  1286.01
eigval :     1290.16  1290.89  1293.67  1295.43  1295.89  1299.67
eigval :     1300.26  1302.81  1319.63  1320.73  1358.70  1359.65
eigval :     1359.79  1360.57  1360.65  1361.36  1361.49  1364.45
eigval :     1365.60  1405.14  1414.08  1414.35  1422.98  1426.89
eigval :     1427.30  1428.16  1429.19  1432.15  1438.93  1465.09
eigval :     1472.17  1472.71  1473.20  1476.10  1486.59  1486.88
eigval :     1486.99  1488.82  1491.20  1500.72  1579.27  1579.84
eigval :     1579.86  1580.10  1593.32  1593.41  1593.72  1594.55
eigval :     1601.11  1601.40  1602.08  1602.83  1613.85  1614.23
eigval :     1614.74  1617.56  2365.20  2367.89  3077.38  3078.05
eigval :     3078.93  3079.57  3082.07  3082.09  3083.15  3083.20
eigval :     3084.07  3084.80  3085.00  3085.64  3086.32  3086.33
eigval :     3088.09  3088.38  3091.60  3092.47  3093.36  3093.78
eigval :     3093.88  3094.36  3095.88  3096.08  3099.47  3100.63
eigval :     3100.97  3101.11  3101.16  3102.12  3102.42  3102.70

   temp. (K)  partition function   enthalpy   heat capacity  entropy
                                   cal/mol     cal/K/mol   cal/K/mol   J/K/mol
 298.15  VIB  0.528E+21            27926.836    178.472    171.535
         ROT  0.464E+08              888.752      2.981     38.064
         INT  0.245E+29            28815.589    181.453    209.599
         TR   0.214E+29             1481.254      4.968     45.854
         TOT                       30296.8427   186.4207   255.4525  1068.8133

       T/K    H(0)-H(T)+PV         H(T)/Eh          T*S/Eh         G(T)/Eh
   ------------------------------------------------------------------------
    298.15    0.482811E-01    0.749897E+00    0.121374E+00    0.628523E+00
   ------------------------------------------------------------------------

         :::::::::::::::::::::::::::::::::::::::::::::::::::::
         ::                  THERMODYNAMIC                  ::
         :::::::::::::::::::::::::::::::::::::::::::::::::::::
         :: total free energy        -153.235197969207 Eh   ::
         ::.................................................::
         :: total energy             -153.863720813915 Eh   ::
         :: zero point energy           0.701615477438 Eh   ::
         :: G(RRHO) w/o ZPVE           -0.073092632729 Eh   ::
         :: G(RRHO) contrib.            0.628522844709 Eh   ::
         :::::::::::::::::::::::::::::::::::::::::::::::::::::

           -------------------------------------------------
          | TOTAL ENERGY             -153.863720813915 Eh   |
          | TOTAL ENTHALPY           -153.113824244382 Eh   |
          | TOTAL FREE ENERGY        -153.235197969207 Eh   |
          | GRADIENT NORM               0.000077854865 Eh/α |
          | HOMO-LUMO GAP               1.949740022082 eV   |
           -------------------------------------------------

 * finished run on 2025/07/16 at 15:57:46.355
