   * xtb version 6.7.1 (edcfbbe) compiled by 'albert@albert-system' on 2024-07-22

   ID    Z sym.   atoms
    1    7 N      1, 5, 20, 22, 36, 50
    2    6 C      2-4, 6-19, 21, 23-35, 37-49, 51-62
    3    1 H      63-94

          program call               : xtb data2507/gas/4CzIPN/4CzIPN_gas_T1_crest.xyz --gfn 2 --spinpol --tblite --uhf 2 --ohess vtight --parallel 40 --molden --ceasefiles --namespace data2507/gas/4CzIPN/4CzIPN_gas_T1_finalOpt
 * total energy  :  -153.7829982 Eh     change       -0.2214674E-07 Eh
 * total energy  :  -153.7830060 Eh     change       -0.7723808E-05 Eh
 * total energy  :  -153.7830096 Eh     change       -0.3622507E-05 Eh
 * total energy  :  -153.7830112 Eh     change       -0.1645111E-05 Eh
 * total energy  :  -153.7830133 Eh     change       -0.2110138E-05 Eh
 * total energy  :  -153.7830149 Eh     change       -0.1561688E-05 Eh
 * total energy  :  -153.7830165 Eh     change       -0.1591604E-05 Eh
 * total energy  :  -153.7830184 Eh     change       -0.1864139E-05 Eh
 * total energy  :  -153.7830198 Eh     change       -0.1428661E-05 Eh
 * total energy  :  -153.7830212 Eh     change       -0.1447925E-05 Eh
 * total energy  :  -153.7830298 Eh     change       -0.1303709E-05 Eh
 * total energy  :  -153.7830307 Eh     change       -0.8601313E-06 Eh
 * total energy  :  -153.7830312 Eh     change       -0.5504260E-06 Eh
 * total energy  :  -153.7830318 Eh     change       -0.5809633E-06 Eh
 * total energy  :  -153.7830326 Eh     change       -0.7550922E-06 Eh
 * total energy  :  -153.7830335 Eh     change       -0.8812488E-06 Eh
 * total energy  :  -153.7830341 Eh     change       -0.6474263E-06 Eh
 * total energy  :  -153.7830341 Eh     change        0.2335764E-07 Eh
 * total energy  :  -153.7830341 Eh     change       -0.1826999E-07 Eh
   *** GEOMETRY OPTIMIZATION CONVERGED AFTER 23 ITERATIONS ***

 final structure:
================
94
 xtb: 6.7.1 (edcfbbe)
N            2.94488367413548       -3.18220827118898       -1.12055246316525
C            2.35143174400774       -2.26449669394885       -0.74721568274888
C            1.63493603272110       -1.15503202400705       -0.30292574961362
C            2.29737072104561        0.03797331210723        0.00868972314812
N            3.69411434582021        0.06180444661098        0.01239580231599
C            4.51136428051911       -0.77263044274675        0.74686423237255
C            4.17077912911485       -1.75441190117512        1.66546288743610
C            5.19807201158559       -2.43635129443135        2.29003986508783
C            6.53084849151840       -2.13995066591190        2.02244761730208
C            6.87554200627114       -1.13816117943647        1.13068555060265
C            5.86211082617009       -0.44537075939225        0.48966374807131
C            5.84592747540024        0.64091686618807       -0.45617693314978
C            6.83831651352465        1.36677908809347       -1.09352294420067
C            6.46408374660640        2.35622826989919       -1.98714480294336
C            5.12327399924047        2.60804670660408       -2.26019685551648
C            4.11673060947190        1.89265116903684       -1.63926178397841
C            4.48608588736426        0.92302591291320       -0.71887356755661
C            1.59260716959362        1.20682204037196        0.31535971177204
C            2.26784755142612        2.34106919134648        0.76256224674055
N            2.82717998144093        3.27867019144972        1.13885185608952
C            0.14299969368618        1.18168219762018        0.30164812422678
N           -0.56871995508663        2.32291551463658        0.68752759883085
C           -0.52995228808751        3.54837089594927        0.05709478852814
C            0.27648516511247        3.97798323760708       -0.98879732393150
C            0.08796146342770        5.26051637904957       -1.46485483197463
C           -0.88657325135640        6.09722420137949       -0.92608998431133
C           -1.70688509597235        5.66840818257449        0.10237686319816
C           -1.53305640294120        4.38705455336098        0.59969000378808
C           -2.19699528434548        3.62093881152477        1.61906444143356
C           -3.24726865345626        3.88180048314328        2.48440908328237
C           -3.62740475133940        2.89851720792501        3.38124781347951
C           -2.95060162528970        1.68345534713616        3.44523739231819
C           -1.89888551386669        1.40275019007707        2.59449830775290
C           -1.55256951071255        2.36238179475813        1.65378837149956
C           -0.52109478306160       -0.01066143108296       -0.00324901864713
N           -1.92338805332723       -0.03188181551882       -0.01084480393372
C           -2.73722832431368        0.81800580942151       -0.73148585940123
C           -2.39496955174909        1.79643541489765       -1.65390233935772
C           -3.41808742881312        2.50960328957650       -2.24817171167997
C           -4.75208970506312        2.23997375297371       -1.95762835167107
C           -5.09977512832837        1.22892286627514       -1.08054945449891
C           -4.08915160160178        0.50717453677636       -0.46500596153166
C           -4.07962095108596       -0.59474918751889        0.45830926734265
C           -5.07816023047047       -1.32520595756644        1.08315302291864
C           -4.71368355187756       -2.33171138871152        1.95858017520711
C           -3.37467357486005       -2.58901026670615        2.23728803813947
C           -2.36330007931388       -1.86684361768098        1.63396046635600
C           -2.72230275830358       -0.89122536868030        0.71486613721952
C            0.18493386211718       -1.17938440745968       -0.30023118213680
N           -0.48243984242670       -2.34633292531295       -0.68838648112075
C           -0.39618766914855       -3.56976795759515       -0.05870971227135
C            0.41501272849322       -3.96357861031316        0.99752540030785
C            0.27934203469490       -5.25430738969910        1.46951747546152
C           -0.64854218299055       -6.13381499050883        0.91687737588968
C           -1.47423637563890       -5.74114117197018       -0.12172598764775
C           -1.35284513434125       -4.45224955770353       -0.61516003594363
C           -2.03750347658172       -3.71523947603300       -1.64231388760500
C           -3.06190790580370       -4.02321381460373       -2.52304160875756
C           -3.47495052321823       -3.05691879745404       -3.42375937786646
C           -2.85590873540212       -1.81079904608459       -3.47521345937265
C           -1.83066182155139       -1.48289714902852       -2.60923580754929
C           -1.45146891919432       -2.42807344928202       -1.66652704681879
H            3.14032154066231       -1.97881140855232        1.89283394168401
H            4.96049174606725       -3.21239973276344        3.00165665954981
H            7.30657643321509       -2.69561789500965        2.52721671704465
H            7.91016918641338       -0.89800278293491        0.93985484670056
H            7.87958557411149        1.16109953820394       -0.89858354532063
H            7.22291815870224        2.93713184873359       -2.48917363540296
H            4.86286218878568        3.37540224794786       -2.97325551597565
H            3.08028566319817        2.08252986878231       -1.87092738482159
H            1.03125846195526        3.33751830293952       -1.41793908145055
H            0.70798763659601        5.62094690340701       -2.27171631699792
H           -1.00336459894565        7.09434022527895       -1.32321615244150
H           -2.46918395556773        6.31498829112808        0.50955108633310
H           -3.75430039492293        4.83425286240045        2.45949258398947
H           -4.44909521439814        3.08044786140515        4.05736806833940
H           -3.24806344333373        0.94664581147655        4.17607367705608
H           -1.35607205481670        0.47360528426664        2.67423477101297
H           -1.36659233603015        1.99607593171976       -1.91285519895339
H           -3.17397245335338        3.28813272539558       -2.95513166315489
H           -5.52457568959843        2.82039042091222       -2.43903148288746
H           -6.13527233858361        1.00108454842610       -0.87933044555251
H           -6.11739204282502       -1.10702881298545        0.89062859736187
H           -5.47659999338074       -2.91830890896003        2.44771383577577
H           -3.11727330178284       -3.36467527076483        2.94270975510437
H           -1.33124725599076       -2.05727580095825        1.88465427042682
H            1.13330903398182       -3.28959128655576        1.43788611093567
H            0.90451678064719       -5.58730082719440        2.28415841107202
H           -0.72468284043697       -7.13595482631609        1.31120567392866
H           -2.20072240008121       -6.42127954253578       -0.53956584865815
H           -3.52364944911338       -4.99861897204216       -2.50714179843604
H           -4.27701409061631       -3.27595289431422       -4.11233705538226
H           -3.17775395701809       -1.08690279477452       -4.20862647322376
H           -1.33217870002530       -0.52856329999502       -2.67941774907303

 projected vibrational frequencies (cm⁻¹)
eigval :       -0.00    -0.00    -0.00     0.00     0.00     0.00
eigval :       10.46    14.01    18.95    21.10    22.09    24.55
eigval :       27.46    40.20    45.92    52.14    56.46    61.38
eigval :       85.24    87.47   103.44   103.72   104.74   111.93
eigval :      114.21   116.78   120.45   123.58   130.00   143.42
eigval :      143.61   147.62   154.24   166.06   176.61   196.23
eigval :      198.09   210.07   230.30   244.43   254.89   265.16
eigval :      269.21   270.75   272.66   276.97   279.33   290.63
eigval :      346.67   352.73   361.31   371.46   378.99   390.44
eigval :      393.80   397.88   405.45   408.12   414.83   417.42
eigval :      420.86   421.12   428.25   432.76   432.94   435.63
eigval :      441.25   443.68   484.73   504.62   514.37   514.72
eigval :      515.01   517.82   523.79   525.84   533.96   535.23
eigval :      535.78   536.01   539.63   540.42   543.08   549.84
eigval :      568.91   576.83   585.15   586.24   587.22   588.44
eigval :      601.40   607.36   627.72   639.12   640.45   662.71
eigval :      670.06   671.82   672.50   673.36   705.39   706.16
eigval :      706.37   708.57   722.71   728.32   734.21   753.20
eigval :      754.91   757.12   757.64   762.13   763.49   765.04
eigval :      770.30   772.07   775.01   775.25   781.42   803.50
eigval :      857.05   857.45   863.99   864.62   871.67   871.96
eigval :      876.62   877.21   881.41   887.49   891.53   893.13
eigval :      898.38   898.53   900.55   900.59   901.08   902.46
eigval :      902.61   905.70   906.77   916.42   916.58   917.68
eigval :      918.73   919.04   919.24   923.88   924.11   945.68
eigval :      992.30  1002.27  1010.15  1013.82  1014.12  1015.44
eigval :     1065.70  1065.93  1067.14  1067.79  1069.37  1070.49
eigval :     1070.61  1071.57  1074.76  1089.27  1111.72  1138.20
eigval :     1138.85  1141.95  1142.37  1147.56  1157.32  1159.96
eigval :     1174.91  1175.59  1176.90  1177.09  1177.42  1178.96
eigval :     1179.47  1179.61  1193.41  1214.95  1220.90  1226.11
eigval :     1226.95  1230.00  1230.30  1233.69  1243.12  1262.46
eigval :     1267.57  1278.91  1279.75  1283.42  1289.58  1292.26
eigval :     1294.30  1295.85  1299.35  1325.79  1338.09  1339.01
eigval :     1339.41  1342.40  1352.13  1353.54  1363.33  1364.49
eigval :     1364.79  1366.29  1381.51  1399.62  1402.70  1408.80
eigval :     1409.87  1410.04  1411.82  1419.91  1425.31  1427.98
eigval :     1439.11  1447.35  1461.41  1462.34  1462.71  1466.87
eigval :     1482.02  1483.72  1483.93  1485.92  1563.08  1563.31
eigval :     1568.44  1572.63  1576.12  1576.18  1577.72  1577.82
eigval :     1580.17  1584.11  1586.54  1587.65  1598.56  1599.30
eigval :     1603.87  1608.08  2242.08  2304.19  3082.50  3082.52
eigval :     3082.98  3083.02  3083.10  3083.49  3084.53  3084.88
eigval :     3087.15  3087.39  3087.95  3088.36  3088.51  3088.94
eigval :     3089.29  3089.68  3094.18  3094.36  3094.95  3095.56
eigval :     3095.87  3096.09  3096.48  3097.27  3100.52  3100.65
eigval :     3100.87  3101.22  3101.38  3101.85  3102.30  3103.04

   temp. (K)  partition function   enthalpy   heat capacity  entropy
                                   cal/mol     cal/K/mol   cal/K/mol   J/K/mol
 298.15  VIB  0.361E+22            28346.462    180.032    175.048
         ROT  0.937E+08              888.752      2.981     39.458
         INT  0.338E+30            29235.214    183.013    214.506
         TR   0.214E+29             1481.254      4.968     45.854
         TOT                       30716.4681   187.9814   260.3598  1089.3454

       T/K    H(0)-H(T)+PV         H(T)/Eh          T*S/Eh         G(T)/Eh
   ------------------------------------------------------------------------
    298.15    0.489498E-01    0.745604E+00    0.123705E+00    0.621898E+00
   ------------------------------------------------------------------------

         :::::::::::::::::::::::::::::::::::::::::::::::::::::
         ::                  THERMODYNAMIC                  ::
         :::::::::::::::::::::::::::::::::::::::::::::::::::::
         :: total free energy        -153.161135811510 Eh   ::
         ::.................................................::
         :: total energy             -153.783034050591 Eh   ::
         :: zero point energy           0.696653777753 Eh   ::
         :: G(RRHO) w/o ZPVE           -0.074755538672 Eh   ::
         :: G(RRHO) contrib.            0.621898239081 Eh   ::
         :::::::::::::::::::::::::::::::::::::::::::::::::::::

           -------------------------------------------------
          | TOTAL ENERGY             -153.783034050591 Eh   |
          | TOTAL ENTHALPY           -153.037430465127 Eh   |
          | TOTAL FREE ENERGY        -153.161135811510 Eh   |
          | GRADIENT NORM               0.000185830010 Eh/α |
           -------------------------------------------------

 * finished run on 2025/07/16 at 16:05:53.576
