   * xtb version 6.7.1 (edcfbbe) compiled by 'albert@albert-system' on 2024-07-22

   ID    Z sym.   atoms
    1    7 N      1, 5, 20, 22, 36, 50
    2    6 C      2-4, 6-19, 21, 23-35, 37-49, 51-62
    3    1 H      63-94

          program call               : xtb data2507/gas/4CzIPN/4CzIPN_gas_S0_finalOpt.xtbopt.xyz --gfn 2 --spinpol --tblite --uhf 2 --ohess vtight --parallel 40 --molden --ceasefiles --namespace data2507/gas/4CzIPN/4CzIPN_gas_T1_preOpt
 * total energy  :  -153.7782088 Eh     change       -0.4303527E-07 Eh
 * total energy  :  -153.7816042 Eh     change       -0.3395400E-02 Eh
 * total energy  :  -153.7826350 Eh     change       -0.1030803E-02 Eh
 * total energy  :  -153.7827117 Eh     change       -0.7665235E-04 Eh
 * total energy  :  -153.7827718 Eh     change       -0.6015510E-04 Eh
 * total energy  :  -153.7827892 Eh     change       -0.1737053E-04 Eh
 * total energy  :  -153.7828159 Eh     change       -0.2673123E-04 Eh
 * total energy  :  -153.7828365 Eh     change       -0.2057776E-04 Eh
 * total energy  :  -153.7828538 Eh     change       -0.1728721E-04 Eh
 * total energy  :  -153.7828873 Eh     change       -0.3350969E-04 Eh
 * total energy  :  -153.7830267 Eh     change       -0.1522976E-05 Eh
 * total energy  :  -153.7830282 Eh     change       -0.1545752E-05 Eh
 * total energy  :  -153.7830296 Eh     change       -0.1428570E-05 Eh
 * total energy  :  -153.7830310 Eh     change       -0.1414334E-05 Eh
 * total energy  :  -153.7830322 Eh     change       -0.1143050E-05 Eh
 * total energy  :  -153.7830328 Eh     change       -0.6230208E-06 Eh
 * total energy  :  -153.7830331 Eh     change       -0.3242866E-06 Eh
 * total energy  :  -153.7830333 Eh     change       -0.1272221E-06 Eh
 * total energy  :  -153.7830333 Eh     change       -0.5714045E-07 Eh
   *** GEOMETRY OPTIMIZATION CONVERGED AFTER 35 ITERATIONS ***

 final structure:
================
94
 xtb: 6.7.1 (edcfbbe)
N            2.92405703970200       -3.18185839153031       -1.17298526953906
C            2.33816279282711       -2.26576430797035       -0.78428544711423
C            1.62982703883487       -1.15814979349771       -0.32227304857135
C            2.29973050993150        0.02683647621046        0.00263804438501
N            3.69651844153710        0.04307352684320        0.00430209224431
C            4.51056991022692       -0.80822926933210        0.72309425716160
C            4.16663414965155       -1.80375681950326        1.62549662765686
C            5.19139154388368       -2.50273413242514        2.23526588063412
C            6.52524526987060       -2.20991941965603        1.96920655463294
C            6.87358915885747       -1.19396550149727        1.09509791940452
C            5.86263543681085       -0.48373316990832        0.46944875348302
C            5.85088509659655        0.61967137869646       -0.45634160975588
C            6.84651443088267        1.35298623031002       -1.07993284160388
C            6.47669070506911        2.36074574492525       -1.95469828034525
C            5.13700276755066        2.62284658737727       -2.22344886483440
C            4.12734837598129        1.90039457885450       -1.61584972012121
C            4.49223308315294        0.91296667201404       -0.71278035375650
C            1.60165659042084        1.19576915991044        0.32565099490424
C            2.28273873580584        2.31980609815013        0.78916792956068
N            2.84605107393431        3.24934589292870        1.17924953519773
C            0.15175360273589        1.17956893549422        0.31227503188074
N           -0.55216080188447        2.32354266532703        0.70448305834688
C           -0.50211699318398        3.55238721093889        0.08115154702716
C            0.31000429666679        3.98169235886711       -0.96042036516829
C            0.13314617772727        5.26859961920702       -1.42917191756939
C           -0.83582636033022        6.10999314911809       -0.88776206675167
C           -1.66204166911602        5.68162646784344        0.13615503032258
C           -1.49965967831601        4.39597584467634        0.62623436435635
C           -2.17219314025391        3.62929162168762        1.63949103093447
C           -3.22254093731125        3.89390674750514        2.50358540152442
C           -3.61283990874425        2.90881981870655        3.39401042498381
C           -2.94613999918591        1.68787974700231        3.45264554283292
C           -1.89464530448472        1.40329122161153        2.60293353445828
C           -1.53798245602604        2.36535576014796        1.66855600343873
C           -0.51942898160842       -0.00599331707732       -0.00164017119020
N           -1.92183300938746       -0.02157782018696       -0.00418555669459
C           -2.73603118013047        0.83163002837154       -0.72030263225413
C           -2.39427654781812        1.81913991448443       -1.63321726722748
C           -3.41798332600851        2.53364089537049       -2.22483404827157
C           -4.75201298923619        2.25665824716937       -1.94133082223934
C           -5.09896629063968        1.23691550295243       -1.07409251881335
C           -4.08783176886807        0.51384161687983       -0.46100566234679
C           -4.07772585250719       -0.59607058340619        0.45266549725987
C           -5.07567417323391       -1.33688156479218        1.06615647062381
C           -4.71042918707080       -2.35007319425381        1.93354090818993
C           -3.37157155814536       -2.60346104595397        2.21642323007989
C           -2.36086319523155       -1.87109838806654        1.62432375864118
C           -2.72033846912183       -0.88952829544656        0.71179088330641
C            0.17982614633198       -1.17563658233396       -0.31304884616529
N           -0.49587756072720       -2.33600053377213       -0.70670598146512
C           -0.41698789517020       -3.56350841693257       -0.08367756297052
C            0.40206807405797       -3.97265864889267        0.96056593948002
C            0.25646825405763       -5.26401968503937        1.42785651509737
C           -0.68891807194046       -6.12939941902032        0.88260394559364
C           -1.52236809303273       -5.72140853842748       -0.14378200711267
C           -1.39100883030554       -4.43172158825570       -0.63255469935931
C           -2.07920988363960       -3.68170001326035       -1.64776381524060
C           -3.11948947157142       -3.97240909962685       -2.51564704685032
C           -3.53156326541655       -2.99705854612119       -3.40697269376804
C           -2.89581593507465       -1.75957244090852       -3.46271702020705
C           -1.85486073586849       -1.44884999424239       -2.60920782878804
C           -1.47704109822464       -2.40210730575097       -1.67410357693132
H            3.13554076451053       -2.02583612407716        1.85215368334449
H            4.95087995203351       -3.28992401310398        2.93351863060413
H            7.29890225535913       -2.77970581660816        2.46124562150876
H            7.90910309462625       -0.95640124018399        0.90582215687661
H            7.88682775648989        1.13930028208255       -0.88852291106671
H            7.23804674618777        2.94813282623089       -2.44523277097593
H            4.87987657189404        3.40422760386550       -2.92231732352770
H            3.09189074419515        2.09870150964755       -1.84465699974272
H            1.06026350423524        3.33761860028577       -1.39201176446101
H            0.75805134142025        5.62873255934385       -2.23240176137895
H           -0.94377798655723        7.11027528615096       -1.27937364668988
H           -2.42040876004422        6.33169390145452        0.54511943013553
H           -3.72178035261836        4.85055783333314        2.48255399640423
H           -4.43493979773764        3.09351624974081        4.06888316150150
H           -3.25142477553365        0.94945938172201        4.17860341964772
H           -1.35989559556697        0.46917997994952        2.67881586764349
H           -1.36588314402961        2.02464172084395       -1.88734461170566
H           -3.17429744436527        3.31870907032460       -2.92467676607293
H           -5.52496622723514        2.83801689761827       -2.42084669092287
H           -6.13428882370531        1.00344788683868       -0.87849886306947
H           -6.11503026643319       -1.12174572136431        0.87092860951943
H           -5.47279035670929       -2.94514539820129        2.41320440090209
H           -3.11376105335775       -3.38445379202329        2.91577873433648
H           -1.32895838612629       -2.05859533530337        1.87805344941951
H            1.13400476428137       -3.30991171925685        1.39534604483851
H            0.88737534815759       -5.60859491530375        2.23321223561816
H           -0.77272454336150       -7.13238213853312        1.27321682342669
H           -2.26243855539183       -6.39032413296205       -0.55586354583201
H           -3.59420185094921       -4.94151404763909       -2.49695162878570
H           -4.34619914702008       -3.20226295037214       -4.08496588646562
H           -3.21731041838840       -1.02868024654679       -4.18930232554418
H           -1.34394990344179       -0.50132184172617       -2.68272000463809

 projected vibrational frequencies (cm⁻¹)
eigval :       -0.00    -0.00    -0.00    -0.00     0.00     0.00
eigval :       10.29    14.05    19.21    21.21    23.14    24.81
eigval :       27.53    40.12    45.82    52.49    56.77    61.26
eigval :       85.32    87.63   103.46   104.17   104.82   111.88
eigval :      113.32   116.80   120.31   123.46   129.54   143.18
eigval :      143.40   147.71   154.08   166.36   176.63   196.41
eigval :      198.13   209.91   230.28   244.63   254.81   265.38
eigval :      269.19   270.95   272.66   276.92   279.12   290.74
eigval :      347.17   352.73   361.31   371.53   379.22   390.36
eigval :      393.72   397.90   405.33   407.73   414.65   417.33
eigval :      420.89   421.05   428.18   432.82   432.98   435.68
eigval :      441.49   443.54   484.37   504.59   514.41   514.72
eigval :      515.09   517.80   523.84   525.78   534.06   535.22
eigval :      535.83   536.02   539.76   540.41   543.15   549.74
eigval :      568.92   576.50   585.14   586.37   587.24   588.43
eigval :      601.34   607.31   627.56   639.09   640.50   662.67
eigval :      670.03   671.93   672.45   673.35   705.44   706.11
eigval :      706.37   708.55   722.69   727.63   733.94   752.88
eigval :      754.94   757.18   757.58   762.05   763.49   765.23
eigval :      770.34   772.15   775.09   775.32   781.45   803.16
eigval :      856.80   857.17   864.08   864.71   871.95   872.02
eigval :      876.75   877.20   881.27   887.41   891.44   893.13
eigval :      898.35   898.51   900.62   900.75   901.16   902.63
eigval :      902.71   905.78   906.81   916.43   916.59   917.74
eigval :      918.73   919.14   919.29   924.01   924.07   944.34
eigval :      990.79  1001.64  1010.18  1014.01  1014.11  1015.18
eigval :     1065.73  1065.96  1067.16  1067.85  1069.23  1070.50
eigval :     1070.58  1071.75  1074.80  1088.66  1111.70  1138.18
eigval :     1138.79  1142.03  1142.42  1147.61  1157.47  1160.08
eigval :     1174.90  1175.78  1176.96  1177.18  1177.52  1178.99
eigval :     1179.61  1179.71  1193.48  1214.99  1220.80  1226.04
eigval :     1226.88  1230.01  1230.31  1233.75  1242.99  1262.18
eigval :     1267.82  1278.82  1279.52  1283.14  1289.75  1292.23
eigval :     1294.54  1295.75  1299.85  1325.84  1338.10  1338.94
eigval :     1339.31  1342.08  1352.08  1353.48  1363.54  1364.21
eigval :     1364.66  1366.17  1381.20  1399.50  1402.37  1408.58
eigval :     1409.70  1409.85  1411.72  1419.77  1425.20  1427.80
eigval :     1438.84  1447.13  1461.27  1462.25  1462.56  1466.83
eigval :     1481.99  1483.63  1483.88  1485.89  1563.04  1563.22
eigval :     1568.44  1572.59  1576.11  1576.18  1577.64  1577.81
eigval :     1580.09  1584.64  1586.60  1587.61  1598.41  1599.46
eigval :     1603.89  1608.39  2241.88  2304.40  3082.60  3082.62
eigval :     3083.05  3083.08  3083.12  3083.54  3084.70  3085.07
eigval :     3087.29  3087.55  3088.00  3088.44  3088.67  3089.18
eigval :     3089.29  3089.98  3094.33  3094.54  3094.87  3095.75
eigval :     3096.17  3096.26  3096.35  3097.58  3100.26  3100.56
eigval :     3100.79  3101.02  3101.19  3102.36  3102.92  3103.74

   temp. (K)  partition function   enthalpy   heat capacity  entropy
                                   cal/mol     cal/K/mol   cal/K/mol   J/K/mol
 298.15  VIB  0.339E+22            28345.277    180.058    175.016
         ROT  0.468E+08              888.752      2.981     38.080
         INT  0.159E+30            29234.029    183.039    213.095
         TR   0.214E+29             1481.254      4.968     45.854
         TOT                       30715.2829   188.0069   258.9492  1083.4433

       T/K    H(0)-H(T)+PV         H(T)/Eh          T*S/Eh         G(T)/Eh
   ------------------------------------------------------------------------
    298.15    0.489479E-01    0.745598E+00    0.123035E+00    0.622563E+00
   ------------------------------------------------------------------------

         :::::::::::::::::::::::::::::::::::::::::::::::::::::
         ::                  THERMODYNAMIC                  ::
         :::::::::::::::::::::::::::::::::::::::::::::::::::::
         :: total free energy        -153.160470775704 Eh   ::
         ::.................................................::
         :: total energy             -153.783033350169 Eh   ::
         :: zero point energy           0.696649764469 Eh   ::
         :: G(RRHO) w/o ZPVE           -0.074087190003 Eh   ::
         :: G(RRHO) contrib.            0.622562574466 Eh   ::
         :::::::::::::::::::::::::::::::::::::::::::::::::::::

           -------------------------------------------------
          | TOTAL ENERGY             -153.783033350169 Eh   |
          | TOTAL ENTHALPY           -153.037435666795 Eh   |
          | TOTAL FREE ENERGY        -153.160470775704 Eh   |
          | GRADIENT NORM               0.000120878444 Eh/α |
           -------------------------------------------------

 * finished run on 2025/07/16 at 15:58:03.491
