   * xtb version 6.7.1 (edcfbbe) compiled by 'albert@albert-system' on 2024-07-22

   ID    Z sym.   atoms
    1    7 N      1, 5, 20, 22, 36, 50
    2    6 C      2-4, 6-19, 21, 23-35, 37-49, 51-62
    3    1 H      63-94

          program call               : xtb data2507/gas/4CzIPN/4CzIPN.xyz --gfn 2 --ohess vtight --parallel 40 --molden --ceasefiles --namespace data2507/gas/4CzIPN/4CzIPN_gas_S0_preOpt
          :  Hamiltonian                  GFN2-xTB          :
 * total energy  :  -153.8233670 Eh     change       -0.2851777E-08 Eh
 * total energy  :  -153.8460088 Eh     change       -0.2264180E-01 Eh
 * total energy  :  -153.8520069 Eh     change       -0.5998070E-02 Eh
 * total energy  :  -153.8537937 Eh     change       -0.1786807E-02 Eh
 * total energy  :  -153.8553889 Eh     change       -0.1595222E-02 Eh
 * total energy  :  -153.8564250 Eh     change       -0.1036102E-02 Eh
 * total energy  :  -153.8571578 Eh     change       -0.7327568E-03 Eh
 * total energy  :  -153.8578326 Eh     change       -0.6747993E-03 Eh
 * total energy  :  -153.8584524 Eh     change       -0.6197867E-03 Eh
 * total energy  :  -153.8590872 Eh     change       -0.6348139E-03 Eh
 * total energy  :  -153.8637187 Eh     change       -0.4029796E-06 Eh
 * total energy  :  -153.8637190 Eh     change       -0.3158561E-06 Eh
 * total energy  :  -153.8637192 Eh     change       -0.2011062E-06 Eh
 * total energy  :  -153.8637194 Eh     change       -0.1629801E-06 Eh
 * total energy  :  -153.8637195 Eh     change       -0.1799557E-06 Eh
 * total energy  :  -153.8637198 Eh     change       -0.2538073E-06 Eh
 * total energy  :  -153.8637201 Eh     change       -0.3309868E-06 Eh
 * total energy  :  -153.8637205 Eh     change       -0.3645104E-06 Eh
 * total energy  :  -153.8637205 Eh     change       -0.2665445E-08 Eh
   *** GEOMETRY OPTIMIZATION CONVERGED AFTER 68 ITERATIONS ***

 final structure:
================
94
 xtb: 6.7.1 (edcfbbe)
N            3.01404317044793        3.14511328474105       -1.35902900318261
C            2.44829929864065        2.26308255786442       -0.89484236327053
C            1.74809700274565        1.14849967993914       -0.37841335788928
C            2.46062244175322        0.00030979161559        0.00036824775768
N            3.84832834149927        0.00046028016741        0.00057305096031
C            4.66118234035923       -0.91300237529242       -0.65575708212104
C            4.31320341150514       -1.95911699397155       -1.49318817712816
C            5.33381921651198       -2.70304716028439       -2.05470822846668
C            6.66959316477990       -2.40451076561784       -1.80421160411459
C            7.02095338539048       -1.33921880101954       -0.99856522430331
C            6.01186632406227       -0.58100427941407       -0.42177823851110
C            6.01161111129479        0.58242185431583        0.42354969305617
C            7.02036011536742        1.34090060776843        1.00058139003575
C            6.66852651977061        2.40618015622571        1.80603715929310
C            5.33261268992304        2.70442911641757        2.05612832104872
C            4.31232795838288        1.96021065651084        1.49438906647743
C            4.66078382489232        0.91412086745201        0.65712477212468
C            1.74825473971513       -1.14805015517376        0.37893231390191
C            2.44860391850683       -2.26248020639383        0.89557415721301
N            3.01423098152529       -3.14438110210967        1.36003469112229
C            0.34276996275098       -1.15669480428977        0.37676486433040
N           -0.34247165907058       -2.29835799051365        0.77897531943938
C           -1.39518073862971       -2.32461621689237        1.68239992108836
C           -1.79343774250639       -1.35618843339098        2.58870459080182
C           -2.88359004238797       -1.63587600581258        3.39111491906029
C           -3.53997353575576       -2.86051915080649        3.31807205230254
C           -3.10182288441763       -3.85320404708946        2.46293411426475
C           -2.01493023335445       -3.59001910881497        1.64192938514681
C           -1.29094273183075       -4.37127291821475        0.67606637319423
C           -1.44211033475920       -5.66385739229840        0.19545468841487
C           -0.57313105047814       -6.11390251785929       -0.77911037573766
C            0.42532392157143       -5.28682462252135       -1.28329571923700
C            0.59040480509466       -3.99394148907665       -0.82209964116633
C           -0.26160107906322       -3.54734019799733        0.17392454045250
C           -0.36316485083826       -0.00002056338557       -0.00005663958205
N           -1.75988979681396       -0.00018704103919       -0.00029607015166
C           -2.57108882674923        0.88810851310976        0.68602000474365
C           -2.22336002186313        1.90530524092024        1.56029295748874
C           -3.24258395686355        2.65126625377724        2.12040169829656
C           -4.57797250825415        2.37529213482305        1.84316125543015
C           -4.92986323324895        1.32707465137205        1.01584630941915
C           -3.92218813783492        0.57104136564079        0.43434547546459
C           -3.92187586109409       -0.57205946443287       -0.43565619093990
C           -4.92913027111738       -1.32842313662020       -1.01745695807814
C           -4.57664837519353       -2.37658128123558       -1.84459603098630
C           -3.24108569195789       -2.65215651983485       -2.12139465605133
C           -2.22227415621067       -1.90584633324886       -1.56100230225230
C           -2.57059978581879       -0.88872737394731       -0.68687694292479
C            0.34261858978513        1.15681351155105       -0.37666038552609
N           -0.34276051128103        2.29832514155249       -0.77907527594370
C           -1.39519945560612        2.32434721596249       -1.68281800542205
C           -1.79292598981923        1.35584767813245       -2.58928049676388
C           -2.88290478495103        1.63528286005502       -3.39201252663634
C           -3.53962718074752        2.85975232564352       -3.31912224869950
C           -3.10199360069977        3.85252173930078       -2.46381984187630
C           -2.01528955670751        3.58958777350134       -1.64248551406744
C           -1.29182043586817        4.37097767439556       -0.67634220657497
C           -1.44350071348454        5.66348228829917       -0.19567499527872
C           -0.57496052762033        6.11369027594678        0.77920713295312
C            0.42356876643597        5.28685493788309        1.28364324260509
C            0.58916449516784        3.99405873388271        0.82238902982146
C           -0.26241087719412        3.54729439443505       -0.17392988142095
H            3.28196142277191       -2.18828755379313       -1.71590619605628
H            5.08751719823827       -3.52974061590540       -2.70380550886270
H            7.43916983283703       -3.01034792295104       -2.25807252192609
H            8.05684486164941       -1.09365292787868       -0.82207930493276
H            8.05635817299655        1.09555446593935        0.82441473117335
H            7.43783462691976        3.01223466087731        2.26006385330274
H            5.08593467734649        3.53112483121281        2.70508038316977
H            3.28097185840378        2.18916115260468        1.71680360569938
H           -1.27002729969291       -0.41699757679897        2.68068176997405
H           -3.22624127586293       -0.88829723810157        4.09048660086719
H           -4.39112521292780       -3.04115637062291        3.95701195199684
H           -3.58796336508263       -4.81616941922304        2.43419232465791
H           -2.22771861539618       -6.29824096792076        0.57612136441165
H           -0.67048161701127       -7.11804323673054       -1.16326929788565
H            1.08489501550350       -5.65851876629943       -2.05287349938192
H            1.36238350726490       -3.36377690585741       -1.23684099532176
H           -1.19447682361954        2.11374782208957        1.81289354939261
H           -2.99324573459547        3.46070597843528        2.78999917132065
H           -5.34685788948592        2.98194795460016        2.29730602380792
H           -5.96609807391599        1.09414383536562        0.82456205452152
H           -5.96549956635473       -1.09579827194759       -0.82652859397364
H           -5.34519884901936       -2.98350461635982       -2.29895011758256
H           -2.99128009197250       -3.46155896060425       -2.79086289450631
H           -1.19324517517329       -2.11397182146517       -1.81326983497506
H           -1.26923392200919        0.41680153146558       -2.68113772676287
H           -3.22513543441895        0.88764786042569       -4.09152986292793
H           -4.39061333302676        3.04020022545924       -3.95833532534068
H           -3.58839852866872        4.81535700557650       -2.43518620160338
H           -2.22916010653324        6.29767998716852       -0.57654535881388
H           -0.67272133309640        7.11776966708842        1.16342268246449
H            1.08279717353660        5.65867668559792        2.05345359368847
H            1.36119154256828        3.36407539394143        1.23731702698752

          :  Hamiltonian                  GFN2-xTB          :
         :: gradient norm              0.000130987061 Eh/a0 ::
         :: HOMO-LUMO gap              1.948070603927 eV    ::
         :: SCC energy              -156.823112726942 Eh    ::
         :: -> dispersion             -0.173376654048 Eh    ::
         :: repulsion energy           2.959392226733 Eh    ::

    * Orbital Energies and Occupations

         #    Occupation            Energy/Eh            Energy/eV
      -------------------------------------------------------------
         1        2.0000           -0.7163466             -19.4928
       ...           ...                  ...                  ...
       131        2.0000           -0.4248738             -11.5614
       132        2.0000           -0.4161590             -11.3243
       133        2.0000           -0.4145988             -11.2818
       134        2.0000           -0.4137454             -11.2586
       135        2.0000           -0.4130841             -11.2406
       136        2.0000           -0.3921574             -10.6711
       137        2.0000           -0.3896156             -10.6020
       138        2.0000           -0.3866226             -10.5205
       139        2.0000           -0.3864244             -10.5151
       140        2.0000           -0.3814015             -10.3785
       141        2.0000           -0.3809725             -10.3668
       142        2.0000           -0.3794041             -10.3241
       143        2.0000           -0.3734261             -10.1614 (HOMO)
       144                         -0.3018358              -8.2134 (LUMO)
       145                         -0.2890792              -7.8662
       146                         -0.2556945              -6.9578
       147                         -0.2552476              -6.9456
       148                         -0.2549597              -6.9378
       149                         -0.2525460              -6.8721
       150                         -0.2372760              -6.4566
       151                         -0.2325914              -6.3291
       152                         -0.2303213              -6.2674
       153                         -0.2302744              -6.2661
       154                         -0.2275062              -6.1908
       ...                                ...                  ...
       280                          1.1565982              31.4726
      -------------------------------------------------------------
                  HL-Gap            0.0715903 Eh            1.9481 eV

     #   Z          covCN         q      C6AA      α(0)
     1   7 N        0.911    -0.225    25.916     7.363
     2   6 C        1.911     0.121    28.127     8.565
     3   6 C        2.973    -0.019    28.468     8.752
     4   6 C        2.922     0.075    26.321     8.413
     5   7 N        2.802    -0.047    22.145     6.989
     6   6 C        3.067     0.050    26.813     8.491
     7   6 C        2.911    -0.043    29.069     8.841
     8   6 C        2.925    -0.029    28.716     8.788
     9   6 C        2.921    -0.036    28.890     8.814
    10   6 C        2.913    -0.029    28.729     8.789
    11   6 C        3.067    -0.010    28.206     8.709
    12   6 C        3.067    -0.010    28.206     8.709
    13   6 C        2.913    -0.029    28.729     8.789
    14   6 C        2.921    -0.036    28.890     8.814
    15   6 C        2.925    -0.029    28.716     8.788
    16   6 C        2.911    -0.043    29.069     8.841
    17   6 C        3.067     0.050    26.813     8.491
    18   6 C        2.973    -0.019    28.468     8.752
    19   6 C        1.911     0.121    28.127     8.565
    20   7 N        0.911    -0.225    25.916     7.363
    21   6 C        2.916     0.064    26.574     8.453
    22   7 N        2.800    -0.045    22.113     6.984
    23   6 C        3.071     0.050    26.816     8.491
    24   6 C        2.911    -0.046    29.144     8.852
    25   6 C        2.925    -0.030    28.761     8.795
    26   6 C        2.921    -0.036    28.907     8.817
    27   6 C        2.914    -0.031    28.762     8.794
    28   6 C        3.065    -0.012    28.250     8.716
    29   6 C        3.068    -0.011    28.221     8.711
    30   6 C        2.914    -0.030    28.737     8.790
    31   6 C        2.920    -0.036    28.899     8.816
    32   6 C        2.925    -0.029    28.726     8.789
    33   6 C        2.911    -0.043    29.073     8.842
    34   6 C        3.066     0.052    26.764     8.483
    35   6 C        2.910     0.034    27.241     8.558
    36   7 N        2.803    -0.045    22.110     6.984
    37   6 C        3.072     0.050    26.807     8.489
    38   6 C        2.911    -0.047    29.171     8.856
    39   6 C        2.925    -0.031    28.782     8.798
    40   6 C        2.921    -0.038    28.943     8.822
    41   6 C        2.914    -0.031    28.768     8.795
    42   6 C        3.069    -0.014    28.299     8.723
    43   6 C        3.069    -0.014    28.299     8.723
    44   6 C        2.914    -0.031    28.768     8.795
    45   6 C        2.921    -0.038    28.943     8.822
    46   6 C        2.925    -0.031    28.782     8.798
    47   6 C        2.911    -0.047    29.171     8.856
    48   6 C        3.072     0.050    26.807     8.489
    49   6 C        2.916     0.064    26.574     8.453
    50   7 N        2.800    -0.045    22.113     6.984
    51   6 C        3.071     0.050    26.816     8.491
    52   6 C        2.911    -0.046    29.144     8.852
    53   6 C        2.925    -0.030    28.761     8.795
    54   6 C        2.921    -0.036    28.907     8.817
    55   6 C        2.914    -0.031    28.762     8.794
    56   6 C        3.065    -0.012    28.250     8.716
    57   6 C        3.068    -0.011    28.221     8.711
    58   6 C        2.914    -0.030    28.737     8.790
    59   6 C        2.920    -0.036    28.899     8.816
    60   6 C        2.925    -0.029    28.726     8.789
    61   6 C        2.911    -0.043    29.073     8.842
    62   6 C        3.067     0.052    26.764     8.483
    63   1 H        0.926     0.017     2.773     2.604
    64   1 H        0.926     0.036     2.499     2.472
    65   1 H        0.926     0.036     2.504     2.475
    66   1 H        0.926     0.038     2.472     2.459
    67   1 H        0.926     0.038     2.472     2.459
    68   1 H        0.926     0.036     2.504     2.475
    69   1 H        0.926     0.036     2.499     2.472
    70   1 H        0.926     0.017     2.773     2.604
    71   1 H        0.926     0.024     2.675     2.557
    72   1 H        0.926     0.034     2.534     2.489
    73   1 H        0.926     0.035     2.521     2.483
    74   1 H        0.926     0.037     2.488     2.467
    75   1 H        0.926     0.037     2.487     2.466
    76   1 H        0.926     0.035     2.510     2.477
    77   1 H        0.926     0.037     2.493     2.469
    78   1 H        0.926     0.020     2.728     2.583
    79   1 H        0.926     0.019     2.748     2.592
    80   1 H        0.926     0.033     2.550     2.497
    81   1 H        0.926     0.033     2.539     2.492
    82   1 H        0.926     0.035     2.510     2.478
    83   1 H        0.926     0.035     2.510     2.478
    84   1 H        0.926     0.033     2.539     2.492
    85   1 H        0.926     0.033     2.550     2.497
    86   1 H        0.926     0.019     2.748     2.592
    87   1 H        0.926     0.024     2.675     2.558
    88   1 H        0.926     0.034     2.534     2.489
    89   1 H        0.926     0.035     2.521     2.483
    90   1 H        0.926     0.037     2.488     2.467
    91   1 H        0.926     0.037     2.487     2.466
    92   1 H        0.926     0.035     2.510     2.477
    93   1 H        0.926     0.037     2.493     2.469
    94   1 H        0.926     0.020     2.728     2.583

molecular dipole:
                 x           y           z       tot (Debye)
 q only:       -1.035      -0.000      -0.000
   full:       -1.409      -0.000      -0.000       3.582

 projected vibrational frequencies (cm⁻¹)
eigval :       -0.00    -0.00     0.00     0.00     0.00     0.00
eigval :       14.00    16.28    22.49    24.03    24.08    27.54
eigval :       29.31    42.38    48.55    52.40    61.29    64.99
eigval :       87.32    93.68   105.30   105.65   106.32   116.58
eigval :      117.60   120.45   121.78   125.51   132.13   146.84
eigval :      147.44   152.28   158.61   170.77   180.34   199.75
eigval :      205.13   212.23   235.31   256.16   259.87   270.84
eigval :      273.68   274.48   279.19   279.36   279.94   293.01
eigval :      349.00   353.51   359.28   379.33   382.72   394.42
eigval :      399.50   401.26   408.30   418.90   422.51   422.86
eigval :      428.22   428.56   435.01   437.96   438.85   445.58
eigval :      475.39   481.58   486.74   516.20   518.23   518.69
eigval :      518.98   524.63   527.35   528.95   533.68   540.62
eigval :      541.52   541.67   543.73   547.54   560.02   571.44
eigval :      580.13   586.80   588.74   590.00   594.08   596.72
eigval :      604.48   639.72   652.96   655.40   663.07   670.49
eigval :      671.50   673.42   673.73   694.44   705.12   705.76
eigval :      705.93   707.51   729.15   729.45   738.86   754.24
eigval :      756.42   758.37   759.48   763.72   767.17   768.65
eigval :      771.92   777.12   781.13   781.38   783.74   807.57
eigval :      859.58   860.36   868.45   869.43   876.69   877.32
eigval :      878.80   880.30   888.91   893.63   895.05   896.88
eigval :      899.49   899.88   901.96   902.36   903.19   904.99
eigval :      905.64   906.89   907.71   920.16   920.84   921.70
eigval :      921.95   924.12   924.32   925.57   925.85   960.03
eigval :     1004.42  1013.23  1013.65  1015.15  1018.42  1069.78
eigval :     1069.98  1070.91  1071.59  1072.14  1073.82  1075.01
eigval :     1076.25  1078.18  1079.36  1116.16  1140.99  1149.73
eigval :     1152.22  1153.56  1154.18  1160.94  1163.54  1177.92
eigval :     1178.11  1179.61  1180.16  1180.74  1180.92  1181.76
eigval :     1183.36  1198.36  1217.36  1230.02  1230.90  1231.27
eigval :     1234.97  1235.98  1237.45  1248.45  1264.99  1286.12
eigval :     1290.25  1290.99  1293.81  1295.45  1295.99  1299.66
eigval :     1300.25  1302.80  1319.72  1320.84  1358.68  1359.64
eigval :     1359.78  1360.61  1360.66  1361.38  1361.48  1364.53
eigval :     1365.59  1405.16  1414.11  1414.37  1423.01  1426.97
eigval :     1427.33  1428.18  1429.24  1432.28  1439.08  1465.28
eigval :     1472.18  1472.72  1473.24  1476.10  1486.60  1486.88
eigval :     1487.01  1488.80  1491.35  1500.74  1579.25  1579.82
eigval :     1579.85  1580.09  1593.32  1593.40  1593.72  1594.55
eigval :     1601.11  1601.40  1602.09  1602.82  1613.85  1614.22
eigval :     1614.74  1617.55  2365.28  2368.00  3077.07  3077.64
eigval :     3079.09  3079.49  3081.92  3081.93  3083.18  3083.19
eigval :     3084.09  3084.81  3084.93  3085.57  3086.20  3086.21
eigval :     3088.20  3088.30  3091.62  3092.41  3093.37  3093.75
eigval :     3093.83  3094.29  3095.96  3095.98  3099.48  3100.59
eigval :     3100.97  3101.11  3101.16  3102.09  3102.42  3102.69

   temp. (K)  partition function   enthalpy   heat capacity  entropy
                                   cal/mol     cal/K/mol   cal/K/mol   J/K/mol
 298.15  VIB  0.559E+21            27930.977    178.460    171.592
         ROT  0.465E+08              888.752      2.981     38.064
         INT  0.260E+29            28819.729    181.440    209.656
         TR   0.214E+29             1481.254      4.968     45.854
         TOT                       30300.9831   186.4086   255.5101  1069.0542

       T/K    H(0)-H(T)+PV         H(T)/Eh          T*S/Eh         G(T)/Eh
   ------------------------------------------------------------------------
    298.15    0.482877E-01    0.749897E+00    0.121401E+00    0.628496E+00
   ------------------------------------------------------------------------

         :::::::::::::::::::::::::::::::::::::::::::::::::::::
         ::                  THERMODYNAMIC                  ::
         :::::::::::::::::::::::::::::::::::::::::::::::::::::
         :: total free energy        -153.235224301036 Eh   ::
         ::.................................................::
         :: total energy             -153.863720500168 Eh   ::
         :: zero point energy           0.701609598921 Eh   ::
         :: G(RRHO) w/o ZPVE           -0.073113399789 Eh   ::
         :: G(RRHO) contrib.            0.628496199132 Eh   ::
         :::::::::::::::::::::::::::::::::::::::::::::::::::::

           -------------------------------------------------
          | TOTAL ENERGY             -153.863720500168 Eh   |
          | TOTAL ENTHALPY           -153.113823210975 Eh   |
          | TOTAL FREE ENERGY        -153.235224301036 Eh   |
          | GRADIENT NORM               0.000131034136 Eh/α |
          | HOMO-LUMO GAP               1.948069990868 eV   |
           -------------------------------------------------

 * finished run on 2025/07/16 at 15:51:59.114
