   * xtb version 6.7.1 (edcfbbe) compiled by 'albert@albert-system' on 2024-07-22

   ID    Z sym.   atoms
    1    6 C      1-5, 7-26, 28-48
    2    7 N      6, 27
    3    1 H      49-94

          program call               : xtb data2507/toluene/C2MPI/C2MPI.xyz --gfn 2 --gbsa toluene --ohess vtight --parallel 40 --molden --ceasefiles --namespace data2507/toluene/C2MPI/C2MPI_toluene_S0_preOpt
      * Solvation model:               GBSA
        Solvent                        toluene
        Solvent mass                       9.2140E+01 g/mol
          :  Hamiltonian                  GFN2-xTB          :
 * total energy  :  -127.8514161 Eh     change       -0.5348681E-08 Eh
 * total energy  :  -127.8712007 Eh     change       -0.1978468E-01 Eh
 * total energy  :  -127.8801153 Eh     change       -0.8914605E-02 Eh
 * total energy  :  -127.8836184 Eh     change       -0.3503049E-02 Eh
 * total energy  :  -127.8855681 Eh     change       -0.1949674E-02 Eh
 * total energy  :  -127.8864292 Eh     change       -0.8611669E-03 Eh
 * total energy  :  -127.8867946 Eh     change       -0.3653845E-03 Eh
 * total energy  :  -127.8870417 Eh     change       -0.2470512E-03 Eh
 * total energy  :  -127.8872222 Eh     change       -0.1805733E-03 Eh
 * total energy  :  -127.8873442 Eh     change       -0.1219970E-03 Eh
 * total energy  :  -127.8877740 Eh     change       -0.6587523E-06 Eh
 * total energy  :  -127.8877747 Eh     change       -0.6774260E-06 Eh
 * total energy  :  -127.8877751 Eh     change       -0.3686450E-06 Eh
 * total energy  :  -127.8877751 Eh     change       -0.3057173E-07 Eh
 * total energy  :  -127.8877753 Eh     change       -0.2460951E-06 Eh
 * total energy  :  -127.8877753 Eh     change       -0.1429896E-08 Eh
 * total energy  :  -127.8877756 Eh     change       -0.2292371E-06 Eh
 * total energy  :  -127.8877758 Eh     change       -0.2422959E-06 Eh
 * total energy  :  -127.8877758 Eh     change       -0.5859278E-08 Eh
   *** GEOMETRY OPTIMIZATION CONVERGED AFTER 68 ITERATIONS ***

 final structure:
================
94
 xtb: 6.7.1 (edcfbbe)
C           -3.59127107574952        5.20799200163405        2.28357696712155
C           -3.30351887362663        3.90177754612977        1.60600462241861
C           -4.29394245639191        3.21616540927550        0.91355758364229
C           -4.02584253024841        2.02354849414223        0.27027239929395
C           -2.74915384961046        1.46331479476020        0.31477867165270
N           -2.44180469432222        0.24331022893608       -0.32084756787538
C           -3.50526575624849       -0.63102301569686       -0.59477274103463
C           -3.67102977767881       -1.24066099512194       -1.83629610188366
C           -4.70446434049418       -2.13564820955483       -2.04603538951571
C           -5.60544828313367       -2.44886442476213       -1.03812418838028
C           -6.73941602998402       -3.40042020477220       -1.27634071475679
C           -5.43765722954169       -1.83662816891447        0.20034072608050
C           -4.40668077183077       -0.94909409536554        0.42459022418824
C           -1.36062282750929        0.28139433625069       -1.26032991470282
C           -1.47350017585787        1.24112269478012       -2.26643051144623
C           -0.54084669212979        1.35412639751709       -3.27638502545439
C            0.52428238934576        0.47475362214766       -3.29175810744570
C            0.65577890368710       -0.46550365620248       -2.28646582022156
C           -0.25221001110318       -0.58497235144006       -1.23688641850468
C            0.00313371409330       -1.59308391228815       -0.10747245654653
C            0.31342828755282       -0.73862461877190        1.12680795300327
C           -0.52874759413122       -0.76392762306587        2.23697913341219
C           -0.34018937395067        0.03652696388372        3.34844784910876
C            0.71255474084962        0.93082699101195        3.38056628690842
C            1.56596178820997        0.98024996365346        2.29795740266892
C            1.39819721986735        0.15730254287545        1.18354222331972
N            2.39649064431636        0.29681436255029        0.16422178823766
C            2.59815055293892        1.59297500305987       -0.33951302322571
C            1.50106240756374        2.37668449258254       -0.68985303054079
C            1.66998614718821        3.65284998320935       -1.18733526637844
C            2.93574496190777        4.19759912016772       -1.36175494613760
C            3.11927653312468        5.57168811916215       -1.93318121000423
C            4.02917129148554        3.41910704603940       -1.00271647472175
C            3.87055556944479        2.14588170882536       -0.49202606259118
C            3.51214126998502       -0.55793064904009        0.23284271868993
C            3.89287421323556       -1.19434434959395        1.41195177301036
C            4.98187677621547       -2.04748928132679        1.42757318968582
C            5.72426667414233       -2.29222444408145        0.28068201665307
C            6.91521623617644       -3.20204537376535        0.31158634382365
C            5.34620904514377       -1.64782586860468       -0.89333690922754
C            4.26121179402998       -0.79728962212291       -0.92281358824567
C           -1.23783445282154       -2.51533710140014       -0.00600270187160
C           -0.96433188489989       -3.92387406169003        0.54315135919272
C            0.20433255607897       -3.93575693997315        1.51681400786983
C            1.47049128445136       -3.46888074417610        0.79588608750974
C            1.16709299618556       -2.55762820205422       -0.39846370527311
C           -1.75380785990318        2.15189331376884        1.00305507651382
C           -2.02841839569089        3.35012369883262        1.63109240188323
H           -4.64956722625903        5.29973348935994        2.51671563187249
H           -3.31424353056629        6.03744732616224        1.63121144688151
H           -3.01653625660299        5.29958868079433        3.20293375838640
H           -5.29318779581073        3.62651340890780        0.86437008700597
H           -4.81341069507692        1.52460553522098       -0.27645699589705
H           -2.98854526372500       -1.01315740672844       -2.64251029831599
H           -4.81156280752084       -2.59430655046599       -3.01933993253379
H           -6.93078305499433       -4.00291055881394       -0.39051311609519
H           -6.52223366126115       -4.06084086464612       -2.11257879151940
H           -7.65091915026253       -2.84740355926030       -1.50843276162260
H           -6.12217653751379       -2.06632815362062        1.00504488672414
H           -4.28540069112737       -0.49097865989120        1.39602505102134
H           -2.33013821642007        1.90152889438470       -2.24439208340916
H           -0.65422143477072        2.10590108786285       -4.04301755908699
H            1.26063837696748        0.52188990613262       -4.08038707451506
H            1.50503463516964       -1.12458991445620       -2.33216638038020
H           -1.37662740030112       -1.42731834462478        2.24960078041719
H           -1.02559662968752       -0.03326278160505        4.18010951435745
H            0.87175924938614        1.57536134335354        4.23215333242516
H            2.40108150540078        1.66838329256635        2.29824889547081
H            0.50781802123405        1.97902386982714       -0.57553730916676
H            0.79532162462716        4.23282707580328       -1.44682577081097
H            3.22717040693439        5.51440461160584       -3.01747322307289
H            2.25902017377597        6.20002089318539       -1.71332696090255
H            4.01416175287107        6.04236479704307       -1.53136795135151
H            5.02760298566025        3.82074503181056       -1.10940416131560
H            4.74421186912094        1.58278403238732       -0.19739767216444
H            3.34190233213863       -1.01066825101479        2.32320651562444
H            5.25950937180001       -2.52831511801154        2.35527510187150
H            6.77505677280421       -3.99822807935183        1.03949041107607
H            7.80769421599325       -2.64135269479896        0.59378178354613
H            7.09058391087772       -3.64341462855694       -0.66691918121634
H            5.90784545718411       -1.82015227821300       -1.80075429624657
H            3.97769267873293       -0.30607465941154       -1.84261469834574
H           -2.02108332083750       -2.04768479115500        0.57962965189699
H           -1.63475028802521       -2.62469939646853       -1.01781884392308
H           -1.86861236947209       -4.29532169718733        1.03033146555303
H           -0.73777394658147       -4.60773014693937       -0.27769988831143
H           -0.01206991699158       -3.27642306898454        2.35727271752016
H            0.34765941718578       -4.94137512949552        1.91755456647224
H            2.11732027734805       -2.94092830241622        1.49781745216115
H            2.03233304039658       -4.32989854628001        0.42632255260894
H            2.08296826652754       -2.03119348202173       -0.64294094741310
H            0.88788842013891       -3.16519181927331       -1.26183663441742
H           -0.76230078089228        1.73660332964413        1.05673235237885
H           -1.23401484792426        3.86107035621271        2.15674764688960

          :  Hamiltonian                  GFN2-xTB          :
         :: gradient norm              0.000047855137 Eh/a0 ::
         :: HOMO-LUMO gap              3.058387587489 eV    ::
         :: SCC energy              -130.173902063365 Eh    ::
         :: -> dispersion             -0.142530766883 Eh    ::
         :: -> Gsolv                  -0.043353063980 Eh    ::
         :: repulsion energy           2.286126249868 Eh    ::

    * Orbital Energies and Occupations

         #    Occupation            Energy/Eh            Energy/eV
      -------------------------------------------------------------
         1        2.0000           -0.6572559             -17.8848
       ...           ...                  ...                  ...
       108        2.0000           -0.4031287             -10.9697
       109        2.0000           -0.4017108             -10.9311
       110        2.0000           -0.4008850             -10.9086
       111        2.0000           -0.3986316             -10.8473
       112        2.0000           -0.3979895             -10.8298
       113        2.0000           -0.3959912             -10.7755
       114        2.0000           -0.3958650             -10.7720
       115        2.0000           -0.3935805             -10.7099
       116        2.0000           -0.3902491             -10.6192
       117        2.0000           -0.3879955             -10.5579
       118        2.0000           -0.3873305             -10.5398
       119        2.0000           -0.3448712              -9.3844
       120        2.0000           -0.3435920              -9.3496 (HOMO)
       121                         -0.2311983              -6.2912 (LUMO)
       122                         -0.2275204              -6.1911
       123                         -0.2258265              -6.1451
       124                         -0.2216211              -6.0306
       125                         -0.2204845              -5.9997
       126                         -0.2192240              -5.9654
       127                         -0.2186373              -5.9494
       128                         -0.2156107              -5.8671
       129                         -0.2143785              -5.8335
       130                         -0.2132101              -5.8017
       131                         -0.1967134              -5.3528
       ...                                ...                  ...
       238                          0.6710739              18.2609
      -------------------------------------------------------------
                  HL-Gap            0.1123937 Eh            3.0584 eV

     #   Z          covCN         q      C6AA      α(0)
     1   6 C        3.757    -0.108    22.620     6.781
     2   6 C        2.965     0.007    27.855     8.657
     3   6 C        2.925    -0.043    29.063     8.841
     4   6 C        2.921    -0.053    29.306     8.878
     5   6 C        2.928     0.065    26.549     8.450
     6   7 N        2.749    -0.120    23.601     7.215
     7   6 C        2.926     0.068    26.477     8.438
     8   6 C        2.920    -0.055    29.369     8.887
     9   6 C        2.925    -0.042    29.041     8.838
    10   6 C        2.965     0.006    27.889     8.662
    11   6 C        3.757    -0.108    22.618     6.781
    12   6 C        2.924    -0.042    29.049     8.839
    13   6 C        2.922    -0.051    29.273     8.873
    14   6 C        2.929     0.063    26.593     8.457
    15   6 C        2.928    -0.043    29.060     8.841
    16   6 C        2.916    -0.033    28.830     8.805
    17   6 C        2.920    -0.034    28.844     8.807
    18   6 C        2.928    -0.038    28.940     8.822
    19   6 C        2.973     0.002    27.977     8.676
    20   6 C        3.903     0.020    20.185     6.386
    21   6 C        2.970     0.009    27.816     8.651
    22   6 C        2.928    -0.036    28.896     8.816
    23   6 C        2.919    -0.035    28.860     8.810
    24   6 C        2.916    -0.034    28.849     8.808
    25   6 C        2.928    -0.043    29.065     8.841
    26   6 C        2.928     0.063    26.584     8.455
    27   7 N        2.749    -0.118    23.562     7.209
    28   6 C        2.927     0.065    26.554     8.451
    29   6 C        2.924    -0.055    29.368     8.887
    30   6 C        2.925    -0.041    29.029     8.836
    31   6 C        2.965     0.005    27.914     8.666
    32   6 C        3.757    -0.107    22.605     6.779
    33   6 C        2.925    -0.043    29.078     8.843
    34   6 C        2.921    -0.056    29.385     8.889
    35   6 C        2.925     0.068    26.468     8.437
    36   6 C        2.919    -0.052    29.295     8.876
    37   6 C        2.925    -0.041    29.031     8.836
    38   6 C        2.965     0.008    27.839     8.655
    39   6 C        3.757    -0.109    22.630     6.782
    40   6 C        2.924    -0.042    29.044     8.838
    41   6 C        2.922    -0.050    29.246     8.868
    42   6 C        3.813    -0.061    21.666     6.625
    43   6 C        3.803    -0.053    21.522     6.605
    44   6 C        3.803    -0.056    21.571     6.612
    45   6 C        3.804    -0.054    21.538     6.607
    46   6 C        3.813    -0.062    21.682     6.628
    47   6 C        2.923    -0.053    29.319     8.880
    48   6 C        2.925    -0.041    29.022     8.835
    49   1 H        0.925     0.043     2.408     2.427
    50   1 H        0.924     0.047     2.359     2.402
    51   1 H        0.925     0.044     2.398     2.421
    52   1 H        0.925     0.029     2.596     2.520
    53   1 H        0.926     0.025     2.652     2.547
    54   1 H        0.926     0.021     2.721     2.579
    55   1 H        0.925     0.028     2.621     2.532
    56   1 H        0.925     0.044     2.399     2.422
    57   1 H        0.925     0.042     2.423     2.434
    58   1 H        0.924     0.046     2.371     2.408
    59   1 H        0.926     0.030     2.584     2.514
    60   1 H        0.926     0.027     2.624     2.533
    61   1 H        0.925     0.028     2.622     2.532
    62   1 H        0.926     0.033     2.549     2.497
    63   1 H        0.926     0.033     2.546     2.495
    64   1 H        0.926     0.046     2.374     2.410
    65   1 H        0.926     0.048     2.345     2.394
    66   1 H        0.926     0.033     2.545     2.495
    67   1 H        0.926     0.031     2.566     2.505
    68   1 H        0.925     0.026     2.641     2.541
    69   1 H        0.926     0.026     2.649     2.545
    70   1 H        0.926     0.025     2.653     2.547
    71   1 H        0.924     0.046     2.370     2.408
    72   1 H        0.925     0.042     2.426     2.436
    73   1 H        0.925     0.042     2.417     2.431
    74   1 H        0.925     0.028     2.618     2.530
    75   1 H        0.926     0.025     2.664     2.552
    76   1 H        0.926     0.024     2.679     2.559
    77   1 H        0.926     0.030     2.589     2.516
    78   1 H        0.925     0.044     2.395     2.420
    79   1 H        0.924     0.047     2.356     2.400
    80   1 H        0.925     0.044     2.398     2.422
    81   1 H        0.926     0.032     2.563     2.504
    82   1 H        0.926     0.031     2.576     2.510
    83   1 H        0.925     0.042     2.417     2.431
    84   1 H        0.924     0.029     2.603     2.523
    85   1 H        0.924     0.027     2.632     2.537
    86   1 H        0.924     0.031     2.568     2.506
    87   1 H        0.925     0.033     2.540     2.492
    88   1 H        0.924     0.027     2.630     2.536
    89   1 H        0.924     0.025     2.654     2.548
    90   1 H        0.924     0.027     2.628     2.535
    91   1 H        0.925     0.041     2.433     2.439
    92   1 H        0.924     0.036     2.507     2.476
    93   1 H        0.926     0.028     2.609     2.526
    94   1 H        0.926     0.028     2.612     2.527

molecular dipole:
                 x           y           z       tot (Debye)
 q only:        0.076      -0.394       0.049
   full:        0.088      -0.156       0.022       0.460

 projected vibrational frequencies (cm⁻¹)
eigval :       -0.00    -0.00    -0.00    -0.00     0.00     0.00
eigval :      -42.73    10.28    15.28    22.65    28.70    33.93
eigval :       39.88    46.62    47.63    48.57    54.95    58.72
eigval :       59.41    66.26    68.22    71.77    79.69    89.88
eigval :       98.88   110.88   113.95   129.29   135.81   143.73
eigval :      150.96   155.90   159.37   168.82   180.55   215.72
eigval :      228.06   239.63   247.32   258.99   261.23   281.34
eigval :      289.43   302.72   313.83   315.65   329.10   331.15
eigval :      338.82   343.24   354.89   360.40   370.91   373.31
eigval :      380.48   385.47   391.13   394.65   403.24   411.29
eigval :      444.07   451.16   460.93   469.67   476.66   480.91
eigval :      491.92   492.28   522.39   531.73   538.90   542.67
eigval :      552.91   555.60   565.87   573.87   586.21   611.56
eigval :      612.92   613.78   613.96   620.11   653.40   661.70
eigval :      664.58   668.06   670.23   678.81   703.36   715.30
eigval :      726.56   769.48   774.68   792.49   798.95   800.83
eigval :      801.90   803.93   804.75   810.10   817.33   824.73
eigval :      826.63   865.60   871.62   872.91   875.70   879.61
eigval :      880.08   892.44   908.51   909.29   910.49   910.61
eigval :      912.20   915.06   917.24   920.01   921.26   924.25
eigval :      925.19   928.72   929.53   930.18   933.38   940.73
eigval :      947.41   952.88   963.43   975.97   999.03  1008.43
eigval :     1008.65  1008.77  1009.21  1014.93  1016.31  1025.68
eigval :     1025.99  1032.83  1032.86  1032.92  1036.98  1079.54
eigval :     1093.65  1110.76  1114.33  1125.69  1131.00  1142.15
eigval :     1143.74  1145.14  1146.78  1149.35  1154.25  1168.64
eigval :     1175.51  1175.73  1184.88  1190.50  1197.94  1199.59
eigval :     1200.38  1203.78  1206.48  1208.73  1217.80  1231.34
eigval :     1232.04  1237.86  1241.79  1244.81  1254.50  1265.88
eigval :     1268.67  1275.14  1276.25  1276.66  1277.38  1281.76
eigval :     1290.01  1291.48  1296.82  1298.26  1306.98  1307.98
eigval :     1320.51  1321.02  1328.88  1330.97  1331.52  1338.99
eigval :     1345.82  1356.49  1359.07  1402.05  1402.67  1403.04
eigval :     1404.53  1410.33  1410.50  1412.76  1414.82  1420.33
eigval :     1421.92  1463.27  1466.44  1477.42  1478.72  1479.56
eigval :     1480.69  1480.95  1482.65  1482.90  1483.26  1487.70
eigval :     1490.34  1491.40  1494.81  1496.68  1497.47  1502.28
eigval :     1512.29  1527.33  1564.62  1566.60  1567.72  1568.85
eigval :     1574.05  1574.77  1588.60  1591.65  1606.80  1607.93
eigval :     1611.36  1612.52  2957.25  2959.27  2970.41  2972.98
eigval :     2975.38  2985.36  2986.72  2987.52  2987.93  2989.10
eigval :     2995.06  3007.06  3027.17  3028.70  3029.80  3031.79
eigval :     3032.79  3033.81  3036.28  3036.81  3061.80  3062.55
eigval :     3062.99  3063.04  3064.55  3065.56  3065.66  3067.25
eigval :     3068.08  3068.54  3071.37  3074.75  3075.93  3076.22
eigval :     3078.02  3079.56  3080.64  3082.42  3083.24  3084.80
eigval :     3088.25  3088.75  3124.00  3135.52  3142.10  3145.92

   temp. (K)  partition function   enthalpy   heat capacity  entropy
                                   cal/mol     cal/K/mol   cal/K/mol   J/K/mol
 298.15  VIB  0.728E+20            25509.858    157.941    160.823
         ROT  0.538E+08              888.752      2.981     38.357
         INT  0.392E+28            26398.610    160.922    199.180
         TR   0.152E+29             1481.254      4.968     45.169
         TOT                       27879.8644   165.8899   244.3493  1022.3576

       T/K    H(0)-H(T)+PV         H(T)/Eh          T*S/Eh         G(T)/Eh
   ------------------------------------------------------------------------
    298.15    0.444294E-01    0.822925E+00    0.116098E+00    0.706826E+00
   ------------------------------------------------------------------------

         :::::::::::::::::::::::::::::::::::::::::::::::::::::
         ::                  THERMODYNAMIC                  ::
         :::::::::::::::::::::::::::::::::::::::::::::::::::::
         :: total free energy        -127.180949443971 Eh   ::
         ::.................................................::
         :: total energy             -127.887775813553 Eh   ::
         :: zero point energy           0.778495231335 Eh   ::
         :: G(RRHO) w/o ZPVE           -0.071668861753 Eh   ::
         :: G(RRHO) contrib.            0.706826369582 Eh   ::
         :::::::::::::::::::::::::::::::::::::::::::::::::::::

           -------------------------------------------------
          | TOTAL ENERGY             -127.887775813553 Eh   |
          | TOTAL ENTHALPY           -127.064851190240 Eh   |
          | TOTAL FREE ENERGY        -127.180949443971 Eh   |
          | GRADIENT NORM               0.000047859166 Eh/α |
          | HOMO-LUMO GAP               3.058387439550 eV   |
           -------------------------------------------------

 * finished run on 2025/08/29 at 21:07:54.402
