   * xtb version 6.7.1 (edcfbbe) compiled by 'albert@albert-system' on 2024-07-22

   ID    Z sym.   atoms
    1    6 C      1-5, 7-26, 28-48
    2    7 N      6, 27
    3    1 H      49-94

          program call               : xtb data2507/toluene/C2MPI/C2MPI_toluene_S0_crest.xyz --gfn 2 --gbsa toluene --ohess vtight --parallel 40 --molden --ceasefiles --namespace data2507/toluene/C2MPI/C2MPI_toluene_S0_finalOpt
      * Solvation model:               GBSA
        Solvent                        toluene
        Solvent mass                       9.2140E+01 g/mol
          :  Hamiltonian                  GFN2-xTB          :
 * total energy  :  -127.8968051 Eh     change       -0.3467534E-08 Eh
 * total energy  :  -127.8968849 Eh     change       -0.7974628E-04 Eh
 * total energy  :  -127.8969171 Eh     change       -0.3222266E-04 Eh
 * total energy  :  -127.8969317 Eh     change       -0.1465763E-04 Eh
 * total energy  :  -127.8969468 Eh     change       -0.1510219E-04 Eh
 * total energy  :  -127.8969607 Eh     change       -0.1388100E-04 Eh
 * total energy  :  -127.8969745 Eh     change       -0.1376241E-04 Eh
 * total energy  :  -127.8969905 Eh     change       -0.1601051E-04 Eh
 * total energy  :  -127.8970058 Eh     change       -0.1533071E-04 Eh
 * total energy  :  -127.8970166 Eh     change       -0.1078677E-04 Eh
 * total energy  :  -127.8973605 Eh     change       -0.5083217E-06 Eh
 * total energy  :  -127.8973609 Eh     change       -0.3557938E-06 Eh
 * total energy  :  -127.8973614 Eh     change       -0.4513940E-06 Eh
 * total energy  :  -127.8973618 Eh     change       -0.4077738E-06 Eh
 * total energy  :  -127.8973620 Eh     change       -0.2306202E-06 Eh
 * total energy  :  -127.8973622 Eh     change       -0.2180341E-06 Eh
 * total energy  :  -127.8973624 Eh     change       -0.2325250E-06 Eh
 * total energy  :  -127.8973626 Eh     change       -0.1394332E-06 Eh
 * total energy  :  -127.8973626 Eh     change       -0.6467118E-07 Eh
   *** GEOMETRY OPTIMIZATION CONVERGED AFTER 55 ITERATIONS ***

 final structure:
================
94
 xtb: 6.7.1 (edcfbbe)
C           -7.41277958842211        1.08636363492010        0.43856841490416
C           -6.01647546962196        0.60655096972643        0.17791728783255
C           -5.27988167004126        1.08482153638207       -0.89754989930356
C           -4.00001212078187        0.62840944513566       -1.15287814630410
C           -3.41213543840085       -0.32825654786308       -0.32503969067297
N           -2.10250706641292       -0.77508521675463       -0.52333545949559
C           -1.81157995417212       -2.14270303096265       -0.39650337675695
C           -0.53492244811069       -2.53846445850668       -0.00863060443330
C           -0.21980730589299       -3.87804493119877        0.11528415504814
C           -1.16607753254641       -4.86315462985663       -0.13393010618893
C           -0.83647603951878       -6.31950717078168        0.00310724929958
C           -2.44263199339943       -4.46285340288475       -0.51677557702620
C           -2.76543933466267       -3.12797644052868       -0.65267875056113
C           -1.24032378351545        0.01070089963391       -1.34707786144965
C           -1.13405825322011       -0.39984005461929       -2.67587699634971
C           -0.47141370808093        0.35471963368579       -3.62013082189413
C            0.08943752299339        1.55802701359463       -3.23433057968422
C            0.04604074657078        1.93479887303641       -1.90710673239039
C           -0.57623831586965        1.16971428601344       -0.92060735024295
C           -0.53788485962672        1.72652944096035        0.50258425650394
C            0.76367288091452        2.50671073725702        0.71879599101984
C            0.74721294689844        3.88367740600345        0.94100706873767
C            1.87217838527602        4.59918807478725        1.30812238515352
C            3.08009077478253        3.94736065237002        1.47412016186693
C            3.14688937192497        2.60249189897732        1.17436041059261
C            2.02336505501943        1.88670340851591        0.76332078722395
N            2.24985915357283        0.54081318782749        0.32680208449051
C            2.85983706065627       -0.32837637924093        1.24002942058520
C            3.70510249081292       -1.36713803299492        0.84856528762352
C            4.24840315298638       -2.22783811284625        1.78338898475616
C            3.98970103903519       -2.08627839521866        3.13967833387315
C            4.56161587783144       -3.03482349017423        4.15051857091795
C            3.17489260245359       -1.03079277483213        3.53208327841563
C            2.62375092988649       -0.16658992419934        2.60894495574775
C            2.51588214270342        0.39901202568912       -1.05500149684745
C            2.21332944180216       -0.79241244141365       -1.70985217371185
C            2.49612506688133       -0.95342962290789       -3.05192648971282
C            3.08311036278622        0.06365625397924       -3.79208788320567
C            3.41412036495728       -0.11367296483959       -5.24330873490572
C            3.36851857285005        1.25716393996335       -3.14099899610181
C            3.09202472516635        1.42751986764366       -1.79892343435762
C           -1.81237315196584        2.59413573619629        0.64578126269538
C           -2.11001267645739        3.09972907332030        2.05888070627765
C           -2.11606015171240        1.95334466631161        3.06147852100461
C           -0.78298250231553        1.22065470213001        2.98228396736663
C           -0.60743033218209        0.63274669942972        1.58568405303565
C           -4.14741451535197       -0.80597983496029        0.76270535672785
C           -5.42687337278108       -0.34860754860009        0.99997905958920
H           -8.13491844015291        0.39325430069787        0.00409161703457
H           -7.57549975621865        2.06591939993936       -0.00508980677306
H           -7.60761266824236        1.14546532018042        1.50758742042792
H           -5.71291069535762        1.82667970012341       -1.55402520149473
H           -3.44906045879647        1.01602592634362       -1.99754460645783
H            0.20323948548430       -1.78284541311141        0.20609454613592
H            0.77857220671611       -4.15872525114483        0.42150249227398
H            0.20261768167632       -6.45628473887836        0.29206220506161
H           -1.00799408758450       -6.83901313265775       -0.93937371558135
H           -1.47113495536828       -6.78365284182642        0.75781465349254
H           -3.19434989498754       -5.21239668546511       -0.72243098334088
H           -3.76018942649372       -2.84183784553510       -0.96424997074531
H           -1.62352702675281       -1.32062460147424       -2.96279222805238
H           -0.42323329510708        0.02384277459856       -4.64646796936860
H            0.57165976659740        2.19654999840777       -3.95852343808786
H            0.51297049698455        2.86538374916553       -1.61988850324707
H           -0.16889883486675        4.43400996315567        0.81355321334826
H            1.79820963754131        5.66406927808355        1.47354851007897
H            3.96275655590038        4.48141148175896        1.79307796072611
H            4.09096954390130        2.07767587314955        1.23642492942741
H            3.95777556597705       -1.49721034240589       -0.19268220547848
H            4.89964450517814       -3.02174670869361        1.44373229222342
H            5.38367853736414       -3.60590660186709        3.72518486953228
H            4.92232967018416       -2.49520821251689        5.02457875890544
H            3.79521710691741       -3.73596294491965        4.48420553615266
H            2.96858214000678       -0.87808922672708        4.58237890576005
H            2.01377367768604        0.65391550075911        2.95327869250991
H            1.75699909587428       -1.60353679418966       -1.16629750817402
H            2.25133046125702       -1.89194974512529       -3.52921797662599
H            2.97197542469190       -1.02703158714832       -5.63336458379599
H            4.49473724804186       -0.16929596442407       -5.37905718005501
H            3.05022315762270        0.73069580947180       -5.82640921533307
H            3.82467196542200        2.06820554764447       -3.69184158386492
H            3.33514708815895        2.36685397792864       -1.32521007637412
H           -1.77573191052204        3.42833370067900       -0.05851779008941
H           -2.65212797352529        1.96678034554870        0.34389129113695
H           -1.37008155932153        3.83167444198945        2.38364298996136
H           -3.08534874092590        3.59336185233801        2.04781178751930
H           -2.28077425634060        2.34103877172448        4.06937278217063
H           -2.92769391199616        1.25998308632387        2.82789057605152
H            0.02657684069462        1.91834569223832        3.21254211716698
H           -0.75112483692489        0.41132853560805        3.71579749847980
H            0.28690254831255        0.01618336688622        1.54777005956562
H           -1.46347106916243       -0.00834154531167        1.39668061597323
H           -3.70360301757368       -1.53983350810242        1.42065591396035
H           -5.97617756362039       -0.73219750954428        1.84854649050077

          :  Hamiltonian                  GFN2-xTB          :
         :: gradient norm              0.000039278507 Eh/a0 ::
         :: HOMO-LUMO gap              3.067900626382 eV    ::
         :: SCC energy              -130.186896794499 Eh    ::
         :: -> dispersion             -0.142003001183 Eh    ::
         :: -> Gsolv                  -0.042670540756 Eh    ::
         :: repulsion energy           2.289534144915 Eh    ::

    * Orbital Energies and Occupations

         #    Occupation            Energy/Eh            Energy/eV
      -------------------------------------------------------------
         1        2.0000           -0.6574766             -17.8909
       ...           ...                  ...                  ...
       108        2.0000           -0.4040556             -10.9949
       109        2.0000           -0.4018894             -10.9360
       110        2.0000           -0.4003621             -10.8944
       111        2.0000           -0.3995016             -10.8710
       112        2.0000           -0.3974264             -10.8145
       113        2.0000           -0.3959404             -10.7741
       114        2.0000           -0.3957706             -10.7695
       115        2.0000           -0.3941995             -10.7267
       116        2.0000           -0.3900120             -10.6128
       117        2.0000           -0.3883821             -10.5684
       118        2.0000           -0.3850453             -10.4776
       119        2.0000           -0.3439323              -9.3589
       120        2.0000           -0.3424500              -9.3185 (HOMO)
       121                         -0.2297068              -6.2506 (LUMO)
       122                         -0.2286631              -6.2222
       123                         -0.2233848              -6.0786
       124                         -0.2228435              -6.0639
       125                         -0.2205345              -6.0010
       126                         -0.2185148              -5.9461
       127                         -0.2184165              -5.9434
       128                         -0.2166973              -5.8966
       129                         -0.2147512              -5.8437
       130                         -0.2125820              -5.7847
       131                         -0.1952725              -5.3136
       ...                                ...                  ...
       238                          0.6730868              18.3156
      -------------------------------------------------------------
                  HL-Gap            0.1127433 Eh            3.0679 eV

     #   Z          covCN         q      C6AA      α(0)
     1   6 C        3.757    -0.108    22.612     6.780
     2   6 C        2.965     0.005    27.900     8.664
     3   6 C        2.924    -0.042    29.036     8.837
     4   6 C        2.920    -0.055    29.375     8.888
     5   6 C        2.923     0.066    26.533     8.447
     6   7 N        2.751    -0.107    23.336     7.175
     7   6 C        2.924     0.063    26.578     8.454
     8   6 C        2.923    -0.052    29.302     8.877
     9   6 C        2.924    -0.041    29.007     8.832
    10   6 C        2.965     0.007    27.855     8.657
    11   6 C        3.757    -0.108    22.620     6.781
    12   6 C        2.925    -0.042    29.054     8.839
    13   6 C        2.920    -0.052    29.282     8.874
    14   6 C        2.927     0.063    26.597     8.457
    15   6 C        2.929    -0.043    29.080     8.844
    16   6 C        2.918    -0.033    28.834     8.805
    17   6 C        2.919    -0.034    28.851     8.808
    18   6 C        2.932    -0.038    28.944     8.823
    19   6 C        2.972     0.000    28.017     8.682
    20   6 C        3.906     0.019    20.202     6.389
    21   6 C        2.967     0.004    27.921     8.667
    22   6 C        2.929    -0.041    29.007     8.833
    23   6 C        2.919    -0.037    28.922     8.819
    24   6 C        2.917    -0.036    28.886     8.813
    25   6 C        2.927    -0.042    29.042     8.838
    26   6 C        2.934     0.065    26.541     8.449
    27   7 N        2.747    -0.117    23.550     7.208
    28   6 C        2.921     0.065    26.548     8.449
    29   6 C        2.921    -0.060    29.491     8.905
    30   6 C        2.925    -0.043    29.058     8.840
    31   6 C        2.964     0.002    27.988     8.678
    32   6 C        3.757    -0.107    22.590     6.777
    33   6 C        2.925    -0.043    29.065     8.841
    34   6 C        2.924    -0.058    29.444     8.899
    35   6 C        2.925     0.066    26.520     8.445
    36   6 C        2.923    -0.049    29.220     8.865
    37   6 C        2.925    -0.042    29.031     8.836
    38   6 C        2.965     0.010    27.803     8.649
    39   6 C        3.757    -0.108    22.614     6.780
    40   6 C        2.926    -0.042    29.047     8.838
    41   6 C        2.922    -0.052    29.297     8.876
    42   6 C        3.813    -0.058    21.609     6.616
    43   6 C        3.805    -0.055    21.565     6.611
    44   6 C        3.807    -0.055    21.562     6.610
    45   6 C        3.806    -0.050    21.458     6.594
    46   6 C        3.815    -0.064    21.720     6.633
    47   6 C        2.922    -0.052    29.285     8.874
    48   6 C        2.924    -0.042    29.035     8.837
    49   1 H        0.924     0.046     2.377     2.411
    50   1 H        0.925     0.042     2.426     2.436
    51   1 H        0.925     0.043     2.404     2.425
    52   1 H        0.926     0.028     2.617     2.530
    53   1 H        0.926     0.023     2.693     2.566
    54   1 H        0.926     0.033     2.539     2.492
    55   1 H        0.925     0.028     2.617     2.530
    56   1 H        0.925     0.041     2.431     2.438
    57   1 H        0.925     0.046     2.373     2.409
    58   1 H        0.925     0.046     2.371     2.408
    59   1 H        0.925     0.030     2.585     2.514
    60   1 H        0.926     0.026     2.650     2.546
    61   1 H        0.925     0.031     2.566     2.505
    62   1 H        0.926     0.035     2.517     2.481
    63   1 H        0.926     0.033     2.546     2.495
    64   1 H        0.926     0.033     2.546     2.495
    65   1 H        0.926     0.049     2.335     2.390
    66   1 H        0.926     0.034     2.534     2.489
    67   1 H        0.926     0.032     2.561     2.503
    68   1 H        0.925     0.029     2.607     2.525
    69   1 H        0.926     0.024     2.669     2.555
    70   1 H        0.925     0.024     2.671     2.556
    71   1 H        0.925     0.039     2.460     2.453
    72   1 H        0.925     0.042     2.428     2.437
    73   1 H        0.924     0.044     2.392     2.419
    74   1 H        0.926     0.027     2.633     2.538
    75   1 H        0.926     0.028     2.610     2.526
    76   1 H        0.926     0.036     2.500     2.472
    77   1 H        0.926     0.030     2.582     2.513
    78   1 H        0.925     0.043     2.415     2.430
    79   1 H        0.924     0.048     2.348     2.396
    80   1 H        0.925     0.046     2.367     2.406
    81   1 H        0.925     0.031     2.570     2.507
    82   1 H        0.926     0.026     2.644     2.543
    83   1 H        0.924     0.027     2.624     2.533
    84   1 H        0.924     0.038     2.471     2.458
    85   1 H        0.924     0.036     2.503     2.474
    86   1 H        0.924     0.028     2.615     2.529
    87   1 H        0.924     0.026     2.642     2.542
    88   1 H        0.924     0.030     2.581     2.512
    89   1 H        0.924     0.023     2.682     2.561
    90   1 H        0.924     0.026     2.645     2.543
    91   1 H        0.925     0.037     2.490     2.468
    92   1 H        0.925     0.049     2.333     2.389
    93   1 H        0.926     0.026     2.639     2.540
    94   1 H        0.926     0.029     2.596     2.520

molecular dipole:
                 x           y           z       tot (Debye)
 q only:       -0.276       0.198      -0.186
   full:       -0.137       0.209      -0.314       1.019

 projected vibrational frequencies (cm⁻¹)
eigval :       -0.00    -0.00     0.00     0.00     0.00     0.00
eigval :        7.24    15.82    17.77    25.40    33.73    35.44
eigval :       40.16    43.37    44.69    46.98    55.87    58.19
eigval :       64.43    65.32    67.68    74.22    88.71    92.10
eigval :       98.59   105.76   116.86   135.12   137.24   147.35
eigval :      151.12   157.29   171.76   178.03   193.83   214.07
eigval :      226.72   237.59   258.54   261.68   277.63   282.26
eigval :      302.47   306.66   312.88   316.31   324.04   330.52
eigval :      343.65   347.59   359.67   368.57   374.26   375.32
eigval :      382.73   384.36   387.27   392.58   397.86   407.81
eigval :      440.46   451.93   459.54   462.44   465.42   483.23
eigval :      488.81   493.15   515.86   525.74   528.49   543.78
eigval :      552.97   556.93   567.31   573.33   581.62   609.90
eigval :      611.68   613.07   614.80   616.12   645.49   659.62
eigval :      660.68   661.54   668.22   675.13   704.77   707.23
eigval :      721.10   776.15   782.88   795.33   798.09   800.14
eigval :      803.18   803.38   811.29   818.24   822.93   826.58
eigval :      838.66   863.42   869.77   873.35   880.77   882.86
eigval :      888.37   893.07   908.08   909.01   911.95   913.28
eigval :      916.13   916.62   920.07   921.41   924.61   924.67
eigval :      926.11   926.68   931.48   932.02   933.02   935.13
eigval :      944.79   951.67   955.47   973.76  1004.59  1006.87
eigval :     1008.00  1008.62  1008.93  1014.72  1017.44  1025.52
eigval :     1028.02  1029.46  1032.52  1033.18  1033.50  1078.32
eigval :     1095.23  1098.92  1111.56  1112.07  1114.09  1128.18
eigval :     1141.29  1147.35  1149.94  1150.69  1154.58  1157.81
eigval :     1174.97  1178.91  1182.72  1188.73  1194.64  1200.09
eigval :     1204.42  1205.81  1207.26  1210.73  1217.30  1232.81
eigval :     1233.42  1242.69  1243.77  1251.56  1258.38  1263.49
eigval :     1265.60  1275.25  1276.46  1279.11  1279.71  1283.69
eigval :     1293.90  1294.97  1298.74  1307.62  1310.60  1317.48
eigval :     1322.82  1323.64  1328.95  1331.67  1332.57  1339.81
eigval :     1349.35  1358.20  1365.45  1401.40  1402.05  1402.34
eigval :     1402.55  1410.31  1410.46  1413.49  1414.41  1420.94
eigval :     1423.21  1465.56  1472.69  1478.70  1479.00  1479.47
eigval :     1480.27  1482.02  1482.36  1482.53  1483.75  1484.66
eigval :     1485.84  1489.98  1492.17  1492.93  1495.68  1497.42
eigval :     1499.84  1511.11  1564.91  1566.72  1567.83  1569.73
eigval :     1574.01  1574.37  1589.57  1594.19  1606.65  1608.94
eigval :     1610.18  1614.18  2952.37  2957.30  2962.47  2963.98
eigval :     2970.12  2978.30  2986.51  2987.15  2994.44  2997.62
eigval :     2998.45  3011.71  3012.11  3019.60  3021.52  3025.74
eigval :     3034.43  3035.35  3040.64  3042.31  3046.47  3061.16
eigval :     3063.40  3063.94  3064.10  3064.61  3064.98  3066.59
eigval :     3067.35  3068.21  3069.79  3070.51  3074.96  3077.58
eigval :     3078.89  3079.99  3085.15  3086.38  3087.78  3090.18
eigval :     3092.28  3097.15  3104.94  3114.05  3117.92  3132.31

   temp. (K)  partition function   enthalpy   heat capacity  entropy
                                   cal/mol     cal/K/mol   cal/K/mol   J/K/mol
 298.15  VIB  0.682E+21            25992.743    159.004    164.667
         ROT  0.522E+08              888.752      2.981     38.295
         INT  0.356E+29            26881.495    161.985    202.962
         TR   0.152E+29             1481.254      4.968     45.169
         TOT                       28362.7488   166.9528   248.1311  1038.1806

       T/K    H(0)-H(T)+PV         H(T)/Eh          T*S/Eh         G(T)/Eh
   ------------------------------------------------------------------------
    298.15    0.451989E-01    0.823621E+00    0.117895E+00    0.705726E+00
   ------------------------------------------------------------------------

         :::::::::::::::::::::::::::::::::::::::::::::::::::::
         ::                  THERMODYNAMIC                  ::
         :::::::::::::::::::::::::::::::::::::::::::::::::::::
         :: total free energy        -127.191636925398 Eh   ::
         ::.................................................::
         :: total energy             -127.897362649820 Eh   ::
         :: zero point energy           0.778421903314 Eh   ::
         :: G(RRHO) w/o ZPVE           -0.072696178892 Eh   ::
         :: G(RRHO) contrib.            0.705725724422 Eh   ::
         :::::::::::::::::::::::::::::::::::::::::::::::::::::

           -------------------------------------------------
          | TOTAL ENERGY             -127.897362649820 Eh   |
          | TOTAL ENTHALPY           -127.073741829293 Eh   |
          | TOTAL FREE ENERGY        -127.191636925398 Eh   |
          | GRADIENT NORM               0.000039310465 Eh/α |
          | HOMO-LUMO GAP               3.067900209863 eV   |
           -------------------------------------------------

 * finished run on 2025/08/29 at 21:18:32.482
