   * xtb version 6.7.1 (edcfbbe) compiled by 'albert@albert-system' on 2024-07-22

   ID    Z sym.   atoms
    1    6 C      1-5, 7-26, 28-48
    2    7 N      6, 27
    3    1 H      49-94

          program call               : xtb data2507/toluene/C2MPI/C2MPI_toluene_S0_finalOpt.xtbopt.xyz --gfn 2 --uhf 2 --gbsa toluene --ohess vtight --parallel 40 --molden --ceasefiles --namespace data2507/toluene/C2MPI/C2MPI_toluene_T1_preOpt
      * Solvation model:               GBSA
        Solvent                        toluene
        Solvent mass                       9.2140E+01 g/mol
          :  Hamiltonian                  GFN2-xTB          :
 * total energy  :  -127.7774380 Eh     change       -0.9539150E-08 Eh
 * total energy  :  -127.7798336 Eh     change       -0.2395614E-02 Eh
 * total energy  :  -127.7806675 Eh     change       -0.8338726E-03 Eh
 * total energy  :  -127.7808398 Eh     change       -0.1723387E-03 Eh
 * total energy  :  -127.7810483 Eh     change       -0.2085303E-03 Eh
 * total energy  :  -127.7811380 Eh     change       -0.8970316E-04 Eh
 * total energy  :  -127.7812942 Eh     change       -0.1561156E-03 Eh
 * total energy  :  -127.7813845 Eh     change       -0.9035880E-04 Eh
 * total energy  :  -127.7814564 Eh     change       -0.7189141E-04 Eh
 * total energy  :  -127.7815136 Eh     change       -0.5720504E-04 Eh
 * total energy  :  -127.7820292 Eh     change       -0.9234660E-06 Eh
 * total energy  :  -127.7820299 Eh     change       -0.7312513E-06 Eh
 * total energy  :  -127.7820306 Eh     change       -0.6312080E-06 Eh
 * total energy  :  -127.7820312 Eh     change       -0.5741730E-06 Eh
 * total energy  :  -127.7820318 Eh     change       -0.6186712E-06 Eh
 * total energy  :  -127.7820325 Eh     change       -0.7073783E-06 Eh
 * total energy  :  -127.7820333 Eh     change       -0.8271708E-06 Eh
 * total energy  :  -127.7820342 Eh     change       -0.8587279E-06 Eh
 * total energy  :  -127.7820342 Eh     change       -0.8202207E-08 Eh
   *** GEOMETRY OPTIMIZATION CONVERGED AFTER 94 ITERATIONS ***

 final structure:
================
94
 xtb: 6.7.1 (edcfbbe)
C           -7.23201271692278        1.41121935049468        0.35685284421233
C           -5.89468746419463        0.80275106644076        0.08234457593878
C           -5.15460385548621        1.19642913703973       -1.05256915276154
C           -3.92419940225196        0.66213628170499       -1.32138116501628
C           -3.36958462459262       -0.32551255631178       -0.47647923393625
N           -2.11765691881732       -0.85792784761323       -0.72167819815009
C           -1.88083252695412       -2.20723850076719       -0.52682450819478
C           -0.58177968182297       -2.65028836783579       -0.22862571348475
C           -0.33114116871189       -3.97924360285650        0.00736520070040
C           -1.35838754462335       -4.92889058553270       -0.04648424921827
C           -1.09561236698344       -6.37909275879792        0.20690068664677
C           -2.64968399316958       -4.48652922545362       -0.35838221488749
C           -2.91744736435505       -3.16098080246923       -0.59450060299969
C           -1.17366276470322       -0.06866018942708       -1.42464520466177
C           -0.93001654674091       -0.48323957533871       -2.75386401267532
C           -0.35397108464761        0.35480915729597       -3.66913624483470
C            0.01752824286134        1.64344014855449       -3.27694618852026
C           -0.08685025964563        1.99882895435933       -1.93614641758959
C           -0.63114838100137        1.16725170286270       -0.97457732202383
C           -0.58263247407767        1.64628948420988        0.47725090244845
C            0.69276409995898        2.46244104924543        0.70572175216809
C            0.62289385375752        3.84778417250906        0.90620536425227
C            1.70597663404497        4.61425166280264        1.28318579268895
C            2.94186146292883        4.01821567863532        1.48749208092558
C            3.06733815502269        2.66973450626076        1.20981392241583
C            1.98533122292581        1.90104322515566        0.79026274467515
N            2.30599441182115        0.56849424251335        0.37883575426744
C            2.97477039300056       -0.24292185200707        1.29527838675912
C            3.96941299925926       -1.15261811294840        0.91350972175820
C            4.58111352094341       -1.96106081015956        1.85094886706250
C            4.24982484839660       -1.89275891461506        3.19800951929928
C            4.90017959105879       -2.77977555531234        4.21452908873401
C            3.29083427711550       -0.95586000756726        3.58294477298843
C            2.66988244368093       -0.14595156704649        2.65821816092624
C            2.49075533533409        0.37482716763157       -1.00001650908168
C            2.35762423895119       -0.89953964004814       -1.56047551228291
C            2.57820442375589       -1.10151951522897       -2.90965900711649
C            2.93784745444771       -0.05442297363003       -3.74488366938856
C            3.20429542333437       -0.27015341397131       -5.20296664181308
C            3.06048826482625        1.21652086349670       -3.18478132129211
C            2.84428524410126        1.43040219140657       -1.83774684118330
C           -1.87840134390463        2.46450192816094        0.70903359058544
C           -2.11211499837433        2.90783084627731        2.15282138594344
C           -2.07867093085156        1.70955228350004        3.09220411388637
C           -0.74571077868109        0.99104444585827        2.92610584755881
C           -0.60082886775812        0.48802935451844        1.49198399294302
C           -4.11521076631663       -0.72726304812744        0.66536629801200
C           -5.33736968371842       -0.16268043277762        0.92658319281042
H           -7.92178977260917        1.20406523946294       -0.46308944575087
H           -7.14917983269893        2.49539867248360        0.44651990117828
H           -7.65866820567308        1.01756994118942        1.27622674305779
H           -5.57542063839985        1.93330132665761       -1.72152822266614
H           -3.36896186342310        0.96633249392577       -2.19662466955610
H            0.20180846327576       -1.91322552376313       -0.16722275500976
H            0.67307423483801       -4.29736781065418        0.24953815913613
H           -0.06216566446997       -6.54213828223865        0.50208221298485
H           -1.29596437722729       -6.96425421240978       -0.69169117839380
H           -1.74895973637373       -6.75478116423738        0.99447130670239
H           -3.45013129309851       -5.20984701194234       -0.42650756542814
H           -3.91251353686375       -2.84178911270248       -0.86706119842779
H           -1.28091807357295       -1.46341651061412       -3.04712104327388
H           -0.21308140890022        0.03263515079370       -4.68998124511141
H            0.41639479184714        2.34336116574352       -3.99362578934303
H            0.29072128817663        2.96440683995762       -1.63093290165454
H           -0.31201611590016        4.35921658293826        0.75250649605304
H            1.58394622154244        5.67818640004119        1.42709391948710
H            3.79512614994217        4.59445587124316        1.81115322013189
H            4.03387958588281        2.18976783461580        1.28696636982019
H            4.28340194285762       -1.20719878292404       -0.11743786486751
H            5.34630582727564       -2.65145075601006        1.52379942944709
H            5.70395039244247       -3.35993184376691        3.76794969470104
H            5.30714684783353       -2.18843407970172        5.03393857801083
H            4.16840959851288       -3.46965765093910        4.63620048243525
H            3.02903838406097       -0.86181516036526        4.62725725471573
H            1.94458718521437        0.57984640163691        2.98758883059548
H            2.09054959122250       -1.73546669372545       -0.93426591849080
H            2.46563577961558       -2.09715801435587       -3.31522066066059
H            2.87546823271550       -1.25791701325236       -5.51643347892696
H            4.27188965135113       -0.18108271189884       -5.40850434070101
H            2.68908725604568        0.47999595662837       -5.80067595227310
H            3.34783473728138        2.04830310724314       -3.81205595328714
H            2.96738828993867        2.42195810500346       -1.42872592374192
H           -1.90722242363272        3.32065188223907        0.03209108771733
H           -2.71200850635879        1.82141619965673        0.42840017004947
H           -1.35251390621430        3.62129646386496        2.47468732672896
H           -3.08468215113935        3.40373478020458        2.21003544312523
H           -2.20643422117912        2.03982284829282        4.12566998352382
H           -2.89705451750508        1.02714906684866        2.85022501324264
H            0.06103530180358        1.68686561116922        3.17067013230963
H           -0.68431233029422        0.14209502527395        3.61167555328299
H            0.30170008999491       -0.11162931907203        1.39146834378023
H           -1.45261893532516       -0.15662009811013        1.29235414524277
H           -3.68891317060813       -1.45453901526858        1.34093723923114
H           -5.88136374393898       -0.46674030921359        1.81040941682827

          :  Hamiltonian                  GFN2-xTB          :
         :: gradient norm              0.000062071244 Eh/a0 ::
         :: HOMO-LUMO gap              0.060576392480 eV    ::
         :: SCC energy              -130.050258659734 Eh    ::
         :: -> dispersion             -0.142301062309 Eh    ::
         :: -> Gsolv                  -0.042406358483 Eh    ::
         :: repulsion energy           2.268224489789 Eh    ::

    * Orbital Energies and Occupations

         #    Occupation            Energy/Eh            Energy/eV
      -------------------------------------------------------------
         1        2.0000           -0.6647690             -18.0893
       ...           ...                  ...                  ...
       109        2.0000           -0.4027169             -10.9585
       110        2.0000           -0.4017547             -10.9323
       111        2.0000           -0.4004936             -10.8980
       112        2.0000           -0.3998664             -10.8809
       113        2.0000           -0.3970742             -10.8049
       114        2.0000           -0.3903307             -10.6214
       115        2.0000           -0.3894906             -10.5986
       116        2.0000           -0.3877712             -10.5518
       117        2.0000           -0.3824998             -10.4084
       118        2.0000           -0.3795433             -10.3279
       119        1.7615           -0.3465574              -9.4303
       120        1.2385           -0.3443515              -9.3703
       121        0.7559           -0.2299291              -6.2567 (HOMO)
       122        0.2291           -0.2277023              -6.1961 (LUMO)
       123        0.0139           -0.2248061              -6.1173
       124        0.0010           -0.2222591              -6.0480
       125        0.0001           -0.2202273              -5.9927
       126        0.0000           -0.2190458              -5.9605
       127        0.0000           -0.2175795              -5.9206
       128        0.0000           -0.2150274              -5.8512
       129        0.0000           -0.2137395              -5.8161
       130                         -0.2074783              -5.6458
       131                         -0.1970054              -5.3608
       132                         -0.1951066              -5.3091
       ...                                ...                  ...
       238                          0.6700243              18.2323
      -------------------------------------------------------------
                  HL-Gap            0.0022268 Eh            0.0606 eV

     #   Z          covCN         q      C6AA      α(0)
     1   6 C        3.756    -0.106    22.575     6.774
     2   6 C        2.963    -0.001    28.049     8.687
     3   6 C        2.917    -0.046    29.131     8.851
     4   6 C        2.912    -0.044    29.101     8.846
     5   6 C        2.927     0.040    27.105     8.538
     6   7 N        2.752    -0.018    21.594     6.902
     7   6 C        2.926     0.049    26.890     8.504
     8   6 C        2.918    -0.045    29.118     8.849
     9   6 C        2.919    -0.040    28.994     8.830
    10   6 C        2.964     0.009    27.806     8.649
    11   6 C        3.757    -0.109    22.638     6.784
    12   6 C        2.920    -0.040    29.006     8.832
    13   6 C        2.915    -0.046    29.143     8.852
    14   6 C        2.926     0.026    27.426     8.588
    15   6 C        2.923    -0.045    29.123     8.850
    16   6 C        2.914    -0.040    28.985     8.828
    17   6 C        2.916    -0.053    29.320     8.879
    18   6 C        2.925    -0.042    29.033     8.836
    19   6 C        2.966    -0.008    28.208     8.712
    20   6 C        3.906     0.018    20.212     6.390
    21   6 C        2.964    -0.004    28.123     8.699
    22   6 C        2.927    -0.044    29.085     8.844
    23   6 C        2.918    -0.040    28.990     8.829
    24   6 C        2.915    -0.046    29.139     8.852
    25   6 C        2.927    -0.044    29.102     8.847
    26   6 C        2.932     0.057    26.730     8.479
    27   7 N        2.750    -0.082    22.834     7.097
    28   6 C        2.922     0.063    26.591     8.456
    29   6 C        2.919    -0.056    29.393     8.891
    30   6 C        2.923    -0.041    29.011     8.833
    31   6 C        2.964     0.008    27.837     8.654
    32   6 C        3.757    -0.109    22.630     6.782
    33   6 C        2.924    -0.043    29.060     8.840
    34   6 C        2.922    -0.052    29.304     8.877
    35   6 C        2.925     0.064    26.575     8.454
    36   6 C        2.921    -0.052    29.300     8.877
    37   6 C        2.923    -0.041    29.022     8.835
    38   6 C        2.964     0.011    27.761     8.642
    39   6 C        3.757    -0.107    22.594     6.777
    40   6 C        2.925    -0.043    29.073     8.842
    41   6 C        2.920    -0.047    29.173     8.857
    42   6 C        3.813    -0.058    21.605     6.616
    43   6 C        3.805    -0.055    21.553     6.609
    44   6 C        3.806    -0.055    21.556     6.609
    45   6 C        3.806    -0.049    21.453     6.594
    46   6 C        3.814    -0.058    21.615     6.617
    47   6 C        2.913    -0.051    29.275     8.872
    48   6 C        2.916    -0.040    29.001     8.831
    49   1 H        0.924     0.046     2.377     2.411
    50   1 H        0.924     0.046     2.376     2.411
    51   1 H        0.925     0.041     2.441     2.443
    52   1 H        0.926     0.028     2.616     2.529
    53   1 H        0.926     0.027     2.627     2.535
    54   1 H        0.926     0.039     2.462     2.454
    55   1 H        0.926     0.033     2.549     2.497
    56   1 H        0.925     0.045     2.389     2.417
    57   1 H        0.924     0.051     2.309     2.376
    58   1 H        0.925     0.050     2.322     2.383
    59   1 H        0.926     0.035     2.510     2.478
    60   1 H        0.926     0.035     2.521     2.483
    61   1 H        0.925     0.022     2.698     2.569
    62   1 H        0.926     0.024     2.678     2.559
    63   1 H        0.926     0.017     2.777     2.606
    64   1 H        0.926     0.023     2.692     2.566
    65   1 H        0.926     0.040     2.442     2.444
    66   1 H        0.926     0.026     2.647     2.544
    67   1 H        0.926     0.024     2.671     2.556
    68   1 H        0.925     0.023     2.690     2.565
    69   1 H        0.926     0.030     2.585     2.514
    70   1 H        0.925     0.030     2.586     2.515
    71   1 H        0.925     0.042     2.419     2.432
    72   1 H        0.925     0.047     2.363     2.404
    73   1 H        0.924     0.049     2.333     2.389
    74   1 H        0.926     0.032     2.555     2.500
    75   1 H        0.926     0.036     2.503     2.474
    76   1 H        0.926     0.035     2.520     2.482
    77   1 H        0.926     0.031     2.567     2.506
    78   1 H        0.925     0.043     2.413     2.429
    79   1 H        0.924     0.048     2.342     2.393
    80   1 H        0.925     0.046     2.373     2.409
    81   1 H        0.926     0.029     2.596     2.519
    82   1 H        0.926     0.026     2.645     2.543
    83   1 H        0.924     0.025     2.658     2.550
    84   1 H        0.925     0.038     2.474     2.460
    85   1 H        0.924     0.035     2.523     2.484
    86   1 H        0.924     0.027     2.635     2.538
    87   1 H        0.924     0.026     2.650     2.546
    88   1 H        0.924     0.031     2.578     2.511
    89   1 H        0.924     0.025     2.663     2.552
    90   1 H        0.924     0.026     2.644     2.543
    91   1 H        0.925     0.033     2.550     2.497
    92   1 H        0.925     0.039     2.460     2.453
    93   1 H        0.926     0.027     2.633     2.538
    94   1 H        0.925     0.028     2.613     2.528

molecular dipole:
                 x           y           z       tot (Debye)
 q only:       -0.225      -1.037       0.407
   full:       -0.110      -0.922       0.305       2.485

 projected vibrational frequencies (cm⁻¹)
eigval :       -0.00     0.00     0.00     0.00     0.00     0.00
eigval :       -7.19    18.74    25.40    31.12    34.78    38.46
eigval :       38.59    40.18    46.90    48.93    59.47    63.14
eigval :       64.55    76.34    79.72    86.87    90.86    92.07
eigval :       96.15   104.31   113.28   133.00   136.36   142.03
eigval :      149.93   153.01   167.69   177.77   190.01   204.00
eigval :      224.87   235.96   253.10   258.32   269.63   281.36
eigval :      284.97   293.49   305.92   311.42   318.93   320.06
eigval :      333.78   341.06   358.36   362.42   369.03   372.42
eigval :      377.42   382.72   386.29   391.29   396.95   403.15
eigval :      414.24   423.90   435.73   443.47   453.04   464.40
eigval :      476.14   482.46   493.72   512.33   523.04   523.64
eigval :      536.24   550.79   559.22   564.52   574.76   600.10
eigval :      601.87   605.94   608.47   609.64   621.72   634.82
eigval :      641.45   646.92   653.32   655.46   663.35   694.07
eigval :      706.54   730.48   763.01   767.43   772.88   773.81
eigval :      786.68   791.44   795.11   801.74   815.86   817.97
eigval :      822.62   826.36   828.16   837.87   852.59   862.80
eigval :      869.63   870.60   880.01   881.79   887.24   890.01
eigval :      894.74   896.43   899.81   900.98   904.31   906.87
eigval :      908.87   911.37   912.62   917.08   919.29   923.99
eigval :      930.47   945.37   953.03   971.98   973.11   981.55
eigval :      988.85   998.22  1000.99  1004.49  1006.00  1009.77
eigval :     1019.16  1019.99  1021.56  1027.96  1030.37  1067.83
eigval :     1072.38  1082.30  1092.62  1098.76  1099.95  1110.30
eigval :     1119.29  1123.23  1134.08  1137.54  1139.22  1143.26
eigval :     1147.28  1150.64  1154.48  1160.89  1163.96  1170.16
eigval :     1180.57  1187.24  1193.39  1196.35  1203.04  1204.89
eigval :     1209.97  1226.27  1229.21  1233.58  1237.74  1240.58
eigval :     1243.90  1254.74  1256.78  1258.14  1269.21  1270.52
eigval :     1275.90  1286.39  1294.03  1294.68  1296.76  1299.40
eigval :     1304.33  1315.25  1327.53  1330.79  1335.63  1337.06
eigval :     1338.13  1339.92  1343.11  1345.86  1346.69  1358.57
eigval :     1362.05  1375.37  1395.80  1398.34  1399.34  1399.99
eigval :     1401.32  1405.67  1414.06  1423.40  1430.48  1441.37
eigval :     1442.63  1451.05  1455.25  1459.98  1466.13  1469.88
eigval :     1471.91  1473.69  1476.35  1476.80  1477.88  1479.02
eigval :     1479.74  1480.27  1483.04  1485.81  1488.04  1489.55
eigval :     1495.77  1497.69  1499.53  1513.53  1519.13  1531.29
eigval :     1554.43  1574.60  2953.76  2956.55  2960.54  2969.72
eigval :     2969.93  2973.31  2976.90  2984.14  2989.15  2992.03
eigval :     2992.12  2993.12  3002.99  3012.91  3018.08  3026.94
eigval :     3029.28  3038.81  3039.72  3040.62  3043.42  3051.98
eigval :     3057.89  3060.68  3061.95  3064.80  3067.40  3068.23
eigval :     3069.68  3069.94  3070.56  3070.96  3071.63  3074.30
eigval :     3077.24  3078.04  3085.59  3086.21  3087.45  3089.47
eigval :     3092.71  3096.74  3105.02  3118.57  3122.66  3124.77

   temp. (K)  partition function   enthalpy   heat capacity  entropy
                                   cal/mol     cal/K/mol   cal/K/mol   J/K/mol
 298.15  VIB  0.345E+21            26428.021    163.257    166.352
         ROT  0.523E+08              888.752      2.981     38.299
         INT  0.180E+29            27316.773    166.238    204.650
         TR   0.152E+29             1481.254      4.968     45.169
         TOT                       28798.0271   171.2058   249.8191  1045.2430

       T/K    H(0)-H(T)+PV         H(T)/Eh          T*S/Eh         G(T)/Eh
   ------------------------------------------------------------------------
    298.15    0.458926E-01    0.814518E+00    0.118697E+00    0.695821E+00
   ------------------------------------------------------------------------

         :::::::::::::::::::::::::::::::::::::::::::::::::::::
         ::                  THERMODYNAMIC                  ::
         :::::::::::::::::::::::::::::::::::::::::::::::::::::
         :: total free energy        -127.086213593993 Eh   ::
         ::.................................................::
         :: total energy             -127.782034170837 Eh   ::
         :: zero point energy           0.768625100096 Eh   ::
         :: G(RRHO) w/o ZPVE           -0.072804523251 Eh   ::
         :: G(RRHO) contrib.            0.695820576845 Eh   ::
         :::::::::::::::::::::::::::::::::::::::::::::::::::::

           -------------------------------------------------
          | TOTAL ENERGY             -127.782034170837 Eh   |
          | TOTAL ENTHALPY           -126.967516493331 Eh   |
          | TOTAL FREE ENERGY        -127.086213593993 Eh   |
          | GRADIENT NORM               0.000063108248 Eh/α |
          | HOMO-LUMO GAP               0.060594522188 eV   |
           -------------------------------------------------

 * finished run on 2025/08/29 at 21:18:48.295
