   * xtb version 6.7.1 (edcfbbe) compiled by 'albert@albert-system' on 2024-07-22

   ID    Z sym.   atoms
    1    6 C      1-5, 7-26, 28-48
    2    7 N      6, 27
    3    1 H      49-94

          program call               : xtb data2507/toluene/C2MPI/C2MPI_toluene_T1_crest.xyz --gfn 2 --uhf 2 --gbsa toluene --ohess vtight --parallel 40 --molden --ceasefiles --namespace data2507/toluene/C2MPI/C2MPI_toluene_T1_finalOpt
      * Solvation model:               GBSA
        Solvent                        toluene
        Solvent mass                       9.2140E+01 g/mol
          :  Hamiltonian                  GFN2-xTB          :
 * total energy  :  -127.7841665 Eh     change       -0.7870909E-08 Eh
 * total energy  :  -127.7842792 Eh     change       -0.1127903E-03 Eh
 * total energy  :  -127.7843252 Eh     change       -0.4598695E-04 Eh
 * total energy  :  -127.7843422 Eh     change       -0.1691795E-04 Eh
 * total energy  :  -127.7843556 Eh     change       -0.1341867E-04 Eh
 * total energy  :  -127.7843643 Eh     change       -0.8695192E-05 Eh
 * total energy  :  -127.7843723 Eh     change       -0.8005245E-05 Eh
 * total energy  :  -127.7843806 Eh     change       -0.8299514E-05 Eh
 * total energy  :  -127.7843885 Eh     change       -0.7884065E-05 Eh
 * total energy  :  -127.7843965 Eh     change       -0.8047764E-05 Eh
 * total energy  :  -127.7844763 Eh     change       -0.2308345E-06 Eh
 * total energy  :  -127.7844767 Eh     change       -0.3230663E-06 Eh
 * total energy  :  -127.7844770 Eh     change       -0.3634530E-06 Eh
 * total energy  :  -127.7844774 Eh     change       -0.4145337E-06 Eh
 * total energy  :  -127.7844776 Eh     change       -0.2049495E-06 Eh
 * total energy  :  -127.7844779 Eh     change       -0.2531722E-06 Eh
 * total energy  :  -127.7844781 Eh     change       -0.2139513E-06 Eh
 * total energy  :  -127.7844783 Eh     change       -0.1831877E-06 Eh
 * total energy  :  -127.7844783 Eh     change       -0.1322377E-08 Eh
   *** GEOMETRY OPTIMIZATION CONVERGED AFTER 68 ITERATIONS ***

 final structure:
================
94
 xtb: 6.7.1 (edcfbbe)
C           -7.07921105000138        0.21200674783735        0.86626420624830
C           -5.68272953255102       -0.20683096205425        0.53809550878318
C           -5.20247898186563       -0.10330117954956       -0.78419394619588
C           -3.92511124032639       -0.47319575591071       -1.10947445741859
C           -3.05452571490693       -0.99482203682719       -0.12828182313342
N           -1.76268549706180       -1.36171920263558       -0.45352648046829
C           -1.14939844407187       -2.44545225576515        0.14532867199550
C            0.25476205996293       -2.52891632968724        0.16552903686078
C            0.88654291139838       -3.58368477087552        0.77048518999863
C            0.15265871820105       -4.61661249370846        1.38321200466101
C            0.86243561062230       -5.75285661430246        2.04617174636621
C           -1.23993273829258       -4.55033612775923        1.33113560544848
C           -1.89095370125627       -3.50167364581590        0.72570582154158
C           -1.14914704655621       -0.78059444579234       -1.58161075686853
C           -0.85197823885918       -1.68394338279355       -2.62761311039424
C           -0.51932456659312       -1.25533005534336       -3.88135505143846
C           -0.46151259498946        0.12403408388130       -4.13353561163572
C           -0.64148566426266        1.01107640871824       -3.08438726138019
C           -0.94023455613093        0.61869834306990       -1.78541757060303
C           -0.90485249286840        1.71182303412568       -0.71065408498889
C            0.38163065102966        2.50269700938724       -0.97598931623304
C            0.32244361777935        3.68921579709367       -1.72443985288557
C            1.43286189271712        4.39383057571523       -2.13307627515194
C            2.70518397140030        3.92635048460864       -1.82588757439645
C            2.80435734623371        2.76391689118220       -1.08826482071466
C            1.68531322010711        2.06461909710600       -0.64547258812795
N            1.98587131780049        0.90233634362669        0.13910925479097
C            2.09475267557724        1.06115223565674        1.53024912601171
C            1.87305785407558       -0.02837586847229        2.37881049344779
C            1.95636271418225        0.12053762471828        3.74637981872148
C            2.25602813693841        1.35246996907256        4.32275029463987
C            2.34919275905634        1.49111278371040        5.81170142504359
C            2.46127112858297        2.43414462362359        3.47735869778666
C            2.37985350507161        2.29843697261888        2.10374601720753
C            2.68448724055652       -0.11142947509528       -0.51174283483333
C            3.65900389169495       -0.88558388934091        0.12558265234317
C            4.31306907117751       -1.89196561999063       -0.55733556858924
C            4.03852140154912       -2.16108539992604       -1.89214936676250
C            4.73003123501715       -3.26836045254723       -2.62682344696744
C            3.09165283875674       -1.36637866811969       -2.53341707265565
C            2.42936338872760       -0.35999272962950       -1.86539693784994
C           -2.19292676936517        2.55826173055302       -0.87426643543954
C           -2.29363749403350        3.70245697922274        0.13382836906243
C           -2.20234980342424        3.18270639145431        1.56396585573888
C           -0.93148666870483        2.35555667872368        1.72349344937124
C           -0.95771574165521        1.19594467232757        0.73194237578976
C           -3.53398206751127       -1.09248346225780        1.20829164478157
C           -4.81332698480017       -0.70364635455320        1.51384970922733
H           -7.28328070479834        0.09417911949860        1.92776441982010
H           -7.79877337414879       -0.38664224745548        0.30527542505034
H           -7.24082920520159        1.25575535337180        0.59287742398593
H           -5.86257488275566        0.27237917720827       -1.55277280310193
H           -3.57705866305704       -0.40706680900322       -2.13003532306870
H            0.82652403164260       -1.74248346445845       -0.30279157313046
H            1.96617341320052       -3.62203167165203        0.78199414596499
H            1.51195231910775       -6.26382037626315        1.33456181268040
H            0.15562029528838       -6.47210260091767        2.45233809654294
H            1.49231247560336       -5.38629852986966        2.85767505339985
H           -1.82290765059515       -5.35272168183766        1.76162948084422
H           -2.96743468303845       -3.49890794241894        0.64892541248646
H           -0.96055954685848       -2.74031184295914       -2.42241808183173
H           -0.32664316916654       -1.96473821774773       -4.67224584562718
H           -0.24187034715377        0.49218266502291       -5.12383351547112
H           -0.50807303181834        2.06226826171407       -3.29151325330892
H           -0.63628582970295        4.08346532940123       -2.01797225243564
H            1.31003026105692        5.30405150238263       -2.70248003763245
H            3.58990223765375        4.45398637631755       -2.14767860817051
H            3.77996904688551        2.37400538577026       -0.82720156194649
H            1.61983028467852       -0.99008478228820        1.95674060563215
H            1.77663922984018       -0.73467951365884        4.38242736157856
H            1.43175511493245        1.14218440820718        6.28429509502992
H            3.17085027726789        0.88739232223129        6.19717385927508
H            2.51717730364771        2.52653456641272        6.09678413750479
H            2.69295325158032        3.40369927923339        3.89537775024302
H            2.55078518406815        3.15639149714724        1.47030368848328
H            3.92134134973989       -0.68439528761596        1.15331253194731
H            5.06379575974804       -2.47263045060305       -0.03913347827832
H            4.02752480178972       -4.07663291731109       -2.83339887163494
H            5.55412481779545       -3.66939698970682       -2.04183290712293
H            5.11554800847330       -2.91277733762007       -3.58119702926260
H            2.86494044342678       -1.54137424140645       -3.57518492231649
H            1.69781122529489        0.23898597415766       -2.38398997989978
H           -2.28872214355166        2.93708307238205       -1.89265581680228
H           -3.03608597128141        1.88096941013324       -0.71560881703538
H           -1.48916469989709        4.42196589541033       -0.02612222518020
H           -3.24351785806871        4.22274440840530       -0.01513279192816
H           -2.20080014727294        4.02038506733544        2.26523391911337
H           -3.07215718194385        2.55908730953631        1.78611625278814
H           -0.06088774024706        2.98977146913711        1.54920626820202
H           -0.86038523370674        1.96249373785010        2.74024411294589
H           -0.15482022518067        0.49251766485813        0.92756507964849
H           -1.90125495413876        0.67984497736057        0.89054775494055
H           -2.86343931603643       -1.43242675360976        1.98312511536098
H           -5.15428032252489       -0.77141811836475        2.53775914717726

          :  Hamiltonian                  GFN2-xTB          :
         :: gradient norm              0.000043337648 Eh/a0 ::
         :: HOMO-LUMO gap              0.031037240279 eV    ::
         :: SCC energy              -130.050145248948 Eh    ::
         :: -> dispersion             -0.141594594456 Eh    ::
         :: -> Gsolv                  -0.042474503990 Eh    ::
         :: repulsion energy           2.265666914289 Eh    ::

    * Orbital Energies and Occupations

         #    Occupation            Energy/Eh            Energy/eV
      -------------------------------------------------------------
         1        2.0000           -0.6655800             -18.1114
       ...           ...                  ...                  ...
       109        2.0000           -0.4017075             -10.9310
       110        2.0000           -0.4011005             -10.9145
       111        2.0000           -0.4004113             -10.8957
       112        2.0000           -0.3989873             -10.8570
       113        2.0000           -0.3951490             -10.7526
       114        2.0000           -0.3920510             -10.6683
       115        2.0000           -0.3907548             -10.6330
       116        2.0000           -0.3874867             -10.5441
       117        2.0000           -0.3852393             -10.4829
       118        2.0000           -0.3821856             -10.3998
       119        1.8629           -0.3472028              -9.4479
       120        1.1371           -0.3437072              -9.3528
       121        0.6425           -0.2300588              -6.2602 (HOMO)
       122        0.3510           -0.2289178              -6.2292 (LUMO)
       123        0.0062           -0.2246714              -6.1136
       124        0.0004           -0.2219794              -6.0404
       125        0.0000           -0.2197404              -5.9794
       126        0.0000           -0.2191368              -5.9630
       127        0.0000           -0.2167737              -5.8987
       128        0.0000           -0.2157476              -5.8708
       129        0.0000           -0.2147022              -5.8423
       130                         -0.2105596              -5.7296
       131                         -0.1979286              -5.3859
       132                         -0.1938884              -5.2760
       ...                                ...                  ...
       238                          0.6673646              18.1599
      -------------------------------------------------------------
                  HL-Gap            0.0011410 Eh            0.0310 eV

     #   Z          covCN         q      C6AA      α(0)
     1   6 C        3.756    -0.106    22.584     6.776
     2   6 C        2.962     0.001    28.006     8.680
     3   6 C        2.917    -0.046    29.135     8.851
     4   6 C        2.913    -0.043    29.078     8.842
     5   6 C        2.925     0.041    27.082     8.534
     6   7 N        2.752    -0.009    21.428     6.875
     7   6 C        2.928     0.047    26.943     8.512
     8   6 C        2.917    -0.043    29.077     8.842
     9   6 C        2.919    -0.044    29.098     8.846
    10   6 C        2.963     0.008    27.841     8.655
    11   6 C        3.757    -0.108    22.622     6.781
    12   6 C        2.918    -0.039    28.976     8.827
    13   6 C        2.914    -0.050    29.244     8.868
    14   6 C        2.930     0.027    27.408     8.586
    15   6 C        2.922    -0.042    29.047     8.838
    16   6 C        2.913    -0.043    29.077     8.842
    17   6 C        2.915    -0.054    29.354     8.884
    18   6 C        2.925    -0.042    29.049     8.839
    19   6 C        2.967    -0.011    28.294     8.725
    20   6 C        3.907     0.020    20.189     6.387
    21   6 C        2.966    -0.008    28.213     8.713
    22   6 C        2.928    -0.043    29.076     8.843
    23   6 C        2.918    -0.042    29.049     8.838
    24   6 C        2.915    -0.049    29.225     8.865
    25   6 C        2.928    -0.043    29.078     8.843
    26   6 C        2.930     0.051    26.859     8.499
    27   7 N        2.751    -0.087    22.937     7.113
    28   6 C        2.921     0.068    26.489     8.440
    29   6 C        2.921    -0.048    29.196     8.861
    30   6 C        2.924    -0.041    29.020     8.834
    31   6 C        2.965     0.012    27.744     8.640
    32   6 C        3.757    -0.110    22.651     6.786
    33   6 C        2.924    -0.040    28.995     8.830
    34   6 C        2.920    -0.048    29.190     8.860
    35   6 C        2.926     0.067    26.498     8.442
    36   6 C        2.919    -0.055    29.362     8.886
    37   6 C        2.924    -0.041    29.008     8.832
    38   6 C        2.964     0.009    27.803     8.649
    39   6 C        3.757    -0.108    22.625     6.782
    40   6 C        2.924    -0.040    28.985     8.829
    41   6 C        2.922    -0.051    29.268     8.872
    42   6 C        3.815    -0.055    21.555     6.608
    43   6 C        3.804    -0.054    21.549     6.609
    44   6 C        3.806    -0.054    21.540     6.607
    45   6 C        3.806    -0.051    21.487     6.599
    46   6 C        3.817    -0.063    21.701     6.630
    47   6 C        2.913    -0.051    29.264     8.871
    48   6 C        2.916    -0.040    29.001     8.831
    49   1 H        0.925     0.041     2.431     2.438
    50   1 H        0.924     0.047     2.362     2.403
    51   1 H        0.924     0.047     2.363     2.404
    52   1 H        0.926     0.029     2.598     2.521
    53   1 H        0.926     0.029     2.600     2.522
    54   1 H        0.926     0.034     2.526     2.485
    55   1 H        0.926     0.032     2.562     2.503
    56   1 H        0.924     0.049     2.328     2.386
    57   1 H        0.925     0.044     2.401     2.423
    58   1 H        0.924     0.051     2.311     2.377
    59   1 H        0.926     0.033     2.538     2.491
    60   1 H        0.926     0.035     2.512     2.478
    61   1 H        0.925     0.022     2.700     2.569
    62   1 H        0.926     0.021     2.713     2.576
    63   1 H        0.926     0.016     2.790     2.612
    64   1 H        0.926     0.027     2.632     2.537
    65   1 H        0.926     0.037     2.488     2.466
    66   1 H        0.926     0.022     2.699     2.569
    67   1 H        0.926     0.021     2.725     2.581
    68   1 H        0.925     0.020     2.737     2.587
    69   1 H        0.926     0.037     2.484     2.465
    70   1 H        0.926     0.036     2.509     2.477
    71   1 H        0.925     0.049     2.332     2.388
    72   1 H        0.925     0.050     2.325     2.385
    73   1 H        0.925     0.044     2.402     2.424
    74   1 H        0.926     0.032     2.551     2.498
    75   1 H        0.926     0.029     2.603     2.523
    76   1 H        0.926     0.031     2.569     2.507
    77   1 H        0.925     0.032     2.563     2.503
    78   1 H        0.924     0.049     2.331     2.388
    79   1 H        0.925     0.044     2.401     2.423
    80   1 H        0.925     0.046     2.373     2.409
    81   1 H        0.926     0.030     2.591     2.517
    82   1 H        0.926     0.030     2.590     2.517
    83   1 H        0.924     0.028     2.615     2.529
    84   1 H        0.924     0.033     2.539     2.492
    85   1 H        0.924     0.035     2.518     2.482
    86   1 H        0.924     0.028     2.621     2.532
    87   1 H        0.924     0.026     2.650     2.546
    88   1 H        0.924     0.029     2.604     2.524
    89   1 H        0.924     0.027     2.626     2.534
    90   1 H        0.924     0.021     2.714     2.576
    91   1 H        0.925     0.034     2.533     2.489
    92   1 H        0.925     0.039     2.461     2.453
    93   1 H        0.926     0.033     2.545     2.495
    94   1 H        0.925     0.030     2.589     2.516

molecular dipole:
                 x           y           z       tot (Debye)
 q only:       -0.127      -0.797       1.254
   full:       -0.004      -0.750       1.094       3.371

 projected vibrational frequencies (cm⁻¹)
eigval :       -0.00    -0.00    -0.00     0.00     0.00     0.00
eigval :       13.41    19.60    25.25    28.73    35.34    40.73
eigval :       45.09    47.41    51.30    53.30    58.97    61.74
eigval :       66.03    67.00    68.28    81.87    91.28    96.54
eigval :       97.92   101.42   113.83   124.67   132.02   145.67
eigval :      147.74   158.09   166.92   177.32   185.27   209.51
eigval :      229.37   240.46   253.20   262.52   268.26   271.35
eigval :      289.22   291.24   302.02   316.96   319.17   324.11
eigval :      337.19   341.99   360.82   361.92   370.96   376.55
eigval :      377.54   388.23   390.24   392.35   400.05   407.99
eigval :      415.95   422.98   439.66   445.76   449.00   464.28
eigval :      477.45   482.85   501.78   513.67   525.56   527.52
eigval :      542.73   553.29   558.60   563.05   576.55   599.62
eigval :      601.07   605.19   609.73   612.98   622.59   636.84
eigval :      639.41   646.20   657.62   661.16   668.26   689.75
eigval :      706.10   727.79   761.78   767.01   770.68   785.42
eigval :      792.09   793.88   800.68   806.32   816.27   820.58
eigval :      823.45   826.39   829.55   839.96   859.33   868.39
eigval :      870.57   874.02   876.20   882.11   890.71   891.85
eigval :      892.86   899.72   901.69   904.24   909.31   909.46
eigval :      914.46   916.09   919.09   923.23   924.48   929.80
eigval :      938.46   945.09   949.91   973.43   975.05   980.67
eigval :      987.11   991.05   998.12  1008.51  1009.17  1013.01
eigval :     1017.89  1021.66  1023.63  1029.79  1030.83  1066.30
eigval :     1070.63  1086.36  1090.04  1100.51  1101.83  1118.89
eigval :     1123.72  1127.67  1136.20  1141.74  1144.48  1147.37
eigval :     1149.59  1150.53  1155.59  1162.75  1167.12  1173.80
eigval :     1177.97  1189.41  1195.10  1197.31  1200.98  1204.69
eigval :     1209.73  1220.57  1233.70  1236.55  1237.46  1243.42
eigval :     1247.25  1253.50  1255.21  1258.43  1273.68  1274.58
eigval :     1276.71  1290.27  1294.20  1296.85  1303.75  1304.95
eigval :     1311.15  1315.60  1322.95  1326.52  1333.22  1334.47
eigval :     1337.35  1337.93  1343.11  1347.44  1353.05  1361.35
eigval :     1368.05  1382.33  1398.48  1399.56  1401.41  1401.72
eigval :     1409.64  1417.42  1420.74  1429.21  1431.69  1439.71
eigval :     1441.43  1449.47  1457.78  1470.44  1471.46  1475.67
eigval :     1476.34  1476.86  1478.38  1479.16  1479.70  1481.17
eigval :     1482.94  1485.18  1486.47  1487.21  1490.32  1494.47
eigval :     1502.43  1506.08  1522.87  1539.84  1543.33  1561.00
eigval :     1584.88  1589.28  2953.64  2957.20  2963.80  2965.77
eigval :     2973.64  2974.94  2983.27  2989.21  2989.63  2991.99
eigval :     2992.64  2993.11  2998.99  3000.09  3014.64  3018.20
eigval :     3039.14  3040.29  3041.45  3043.74  3043.78  3054.66
eigval :     3058.54  3063.01  3064.76  3065.47  3067.99  3068.15
eigval :     3068.91  3069.62  3072.26  3074.97  3077.84  3078.07
eigval :     3082.79  3083.32  3086.09  3086.40  3087.43  3088.52
eigval :     3089.17  3091.61  3094.45  3104.90  3115.37  3117.32

   temp. (K)  partition function   enthalpy   heat capacity  entropy
                                   cal/mol     cal/K/mol   cal/K/mol   J/K/mol
 298.15  VIB  0.146E+21            26355.970    163.114    165.785
         ROT  0.491E+08              888.752      2.981     38.173
         INT  0.718E+28            27244.722    166.095    203.958
         TR   0.152E+29             1481.254      4.968     45.169
         TOT                       28725.9762   171.0630   249.1267  1042.3463

       T/K    H(0)-H(T)+PV         H(T)/Eh          T*S/Eh         G(T)/Eh
   ------------------------------------------------------------------------
    298.15    0.457778E-01    0.815631E+00    0.118368E+00    0.697263E+00
   ------------------------------------------------------------------------

         :::::::::::::::::::::::::::::::::::::::::::::::::::::
         ::                  THERMODYNAMIC                  ::
         :::::::::::::::::::::::::::::::::::::::::::::::::::::
         :: total free energy        -127.087215620073 Eh   ::
         ::.................................................::
         :: total energy             -127.784478343721 Eh   ::
         :: zero point energy           0.769853118846 Eh   ::
         :: G(RRHO) w/o ZPVE           -0.072590395198 Eh   ::
         :: G(RRHO) contrib.            0.697262723648 Eh   ::
         :::::::::::::::::::::::::::::::::::::::::::::::::::::

           -------------------------------------------------
          | TOTAL ENERGY             -127.784478343721 Eh   |
          | TOTAL ENTHALPY           -126.968847467935 Eh   |
          | TOTAL FREE ENERGY        -127.087215620073 Eh   |
          | GRADIENT NORM               0.000042223329 Eh/α |
          | HOMO-LUMO GAP               0.031048034186 eV   |
           -------------------------------------------------

 * finished run on 2025/08/29 at 21:39:34.666
