   * xtb version 6.7.1 (edcfbbe) compiled by 'albert@albert-system' on 2024-07-22

   ID    Z sym.   atoms
    1    7 N      1, 7, 25, 35, 59
    2    6 C      2-6, 8-24, 26-34, 36-58, 60-83
    3    1 H      84-128

          program call               : xtb data2507/gas/PPINCN-Cz/PPINCN-Cz_gas_S0_finalOpt.xtbopt.xyz --gfn 2 --spinpol --tblite --uhf 2 --ohess vtight --parallel 40 --molden --ceasefiles --namespace data2507/gas/PPINCN-Cz/PPINCN-Cz_gas_T1_preOpt
 * total energy  :  -204.6701967 Eh     change       -0.5261120E-07 Eh
 * total energy  :  -204.6746694 Eh     change       -0.4472623E-02 Eh
 * total energy  :  -204.6762786 Eh     change       -0.1609243E-02 Eh
 * total energy  :  -204.6764294 Eh     change       -0.1507672E-03 Eh
 * total energy  :  -204.6763943 Eh     change        0.3505366E-04 Eh
 * total energy  :  -204.6766810 Eh     change       -0.2866401E-03 Eh
 * total energy  :  -204.6767568 Eh     change       -0.7586512E-04 Eh
 * total energy  :  -204.6768801 Eh     change       -0.1232996E-03 Eh
 * total energy  :  -204.6769513 Eh     change       -0.7120783E-04 Eh
 * total energy  :  -204.6770171 Eh     change       -0.6576384E-04 Eh
 * total energy  :  -204.6787319 Eh     change       -0.1017887E-05 Eh
 * total energy  :  -204.6787333 Eh     change       -0.1410230E-05 Eh
 * total energy  :  -204.6787346 Eh     change       -0.1320742E-05 Eh
 * total energy  :  -204.6787359 Eh     change       -0.1269200E-05 Eh
 * total energy  :  -204.6787369 Eh     change       -0.9878553E-06 Eh
 * total energy  :  -204.6787376 Eh     change       -0.7809880E-06 Eh
 * total energy  :  -204.6787376 Eh     change        0.6840199E-07 Eh
 * total energy  :  -204.6787382 Eh     change       -0.6547197E-06 Eh
 * total energy  :  -204.6787383 Eh     change       -0.8019936E-07 Eh
   *** GEOMETRY OPTIMIZATION CONVERGED AFTER 94 ITERATIONS ***

 final structure:
================
128
 xtb: 6.7.1 (edcfbbe)
N           -7.00912058411794        6.44384601677685        2.02739752074873
C           -6.51613051667657        5.44577146876961        1.74337256428343
C           -5.89766134475218        4.22408897798654        1.41628455299649
C           -4.93499667585222        3.70320291060018        2.26561738351443
C           -4.32984244360930        2.48726689982586        1.97496840005302
C           -4.67101162551076        1.78349547340578        0.83297506510189
N           -4.07281735495866        0.53614484915834        0.60051426544152
C           -4.72905324769258       -0.69844529349783        0.48360344874886
C           -6.12913209711094       -0.88637720603175        0.60886323816924
C           -6.90517753732239       -0.00659610428886        1.39919153719312
C           -8.25528067704393       -0.11794116712926        1.50045146294629
C           -8.96753422414245       -1.12745815768749        0.78738189557149
C          -10.35866454987720       -1.22386707435907        0.84669977429420
C          -11.03235470057861       -2.22590023567605        0.17786385972495
C          -10.33132959465698       -3.17665543903910       -0.58157677605048
C          -10.99688081316441       -4.21462533148166       -1.27423039545005
C          -10.28744172999712       -5.14136883928715       -2.01583917804645
C           -8.91287527234404       -5.07022659198178       -2.09949782474438
C           -8.19983637654599       -4.04808590629572       -1.42489457136080
C           -6.80462294866439       -3.94231705315733       -1.48951280778307
C           -6.13143645583868       -2.93251658271133       -0.82884268363953
C           -6.80773028727025       -1.98361402735474       -0.05674283928336
C           -8.22280743616660       -2.06679272579881        0.02746595706522
C           -8.91568153914511       -3.09494182473505       -0.65691640900252
N           -3.84715951585841       -1.67474893827940        0.28170328740967
C           -2.63344428130375       -1.11426289550583        0.29171092028944
C           -1.37400224272294       -1.76808087323180        0.19657892602052
C           -1.28377535790993       -3.16104341454342        0.11141340458688
C           -0.06003987292672       -3.77931259986210        0.07968389452487
C            1.11182259712250       -3.01387893856619        0.13686004659470
C            2.42809072553707       -3.66360923081309        0.12507051641448
C            2.65069650196779       -4.83677865318600        0.84477863172768
C            3.89064816895906       -5.44156984910023        0.85062934408412
C            4.94082541331769       -4.89341029571165        0.11813032966360
N            6.20018854223787       -5.50358858269611        0.11955843496055
C            6.45236430447541       -6.84166714752172       -0.11300712791360
C            5.57348393708136       -7.86214463024003       -0.44683296283527
C            6.09870718334038       -9.12293362836817       -0.65654631419986
C            7.46544598119927       -9.36930131017064       -0.54792573671561
C            8.34773801402358       -8.35260257566236       -0.24113282322051
C            7.84368904844213       -7.07698441994760       -0.02575330086053
C            8.45323086877011       -5.81314380026963        0.28145316709470
C            9.76439153256060       -5.41468885593842        0.50455104477201
C           10.01081469495469       -4.09069010435697        0.80877304654344
C            8.96788963140799       -3.17263821358670        0.90741029717578
C            7.65513657298666       -3.54533467615331        0.69008497191361
C            7.40375058557348       -4.86906464271047        0.35869920477052
C            4.72503553608618       -3.72913576855792       -0.61511104786333
C            3.48669515029013       -3.12154632460510       -0.60277338620089
C            1.01903924125721       -1.63213311577943        0.20947903520207
C           -0.21028358588485       -0.96746200102197        0.23054479905076
C           -0.32307639514392        0.48378235475603        0.25637709690966
C            0.80281064871998        1.29827212478627        0.14252815773572
C            0.73152857918733        2.68318886162960        0.11204559596079
C            1.94707257618941        3.49148797386440       -0.00628966429801
C            2.07636752961632        4.69231244449863        0.69236190392766
C            3.22383469834600        5.45104886307326        0.59516024957808
C            4.27215027960469        5.03520510670064       -0.22289965600532
N            5.43628044665562        5.80298519920572       -0.32934643092023
C            5.49123328074718        7.16106180039720       -0.57815520920282
C            4.46135386180904        8.05760735020987       -0.82471571320738
C            4.79829311886141        9.37393338454104       -1.07649945338107
C            6.12601525496210        9.79472946956299       -1.09409394716610
C            7.15640296402899        8.90194806497468       -0.87569773645726
C            6.84266689414446        7.57390115079884       -0.62019106058928
C            7.63603510425849        6.40106814618434       -0.37807000483070
C            9.00267174566079        6.17659412965070       -0.28151362924693
C            9.44535023217029        4.89743882526587       -0.00894172286994
C            8.54345722849897        3.85357920780388        0.18331739670056
C            7.17896403832871        4.05258991384613        0.09274944126860
C            6.72890487834507        5.33028032997974       -0.20768885761227
C            4.14801511695572        3.84419775040940       -0.93515997257967
C            3.00454886374067        3.08251569277361       -0.81976780139706
C           -0.53040592922413        3.28907490466687        0.17604070211078
C           -1.66059355087622        2.52514116533477        0.28980109500262
C           -1.59598384824948        1.12108918744096        0.35766639706905
C           -2.73204478683974        0.28305986541639        0.46018013526170
C           -5.62537221988625        2.30516196966253       -0.08605953095891
C           -5.95443292987762        1.65735604052508       -1.29272218501426
C           -6.89312571344593        2.18566077346074       -2.13730167247922
C           -7.54093484042104        3.38433376614036       -1.81660338989039
C           -7.22406455328638        4.05211638996836       -0.66390206408680
C           -6.25871079441884        3.53736791122774        0.22158410122509
H           -4.66832000070010        4.23645217292167        3.16585699169876
H           -3.59514585797788        2.07418424950251        2.65096044849639
H           -6.40290597363438        0.74386403063566        1.98940304115731
H           -8.81182514876414        0.55268482950205        2.13837442907937
H          -10.90800579256606       -0.49813645060943        1.42933277604268
H          -12.10924651413931       -2.28955604760257        0.23460898841786
H          -12.07360599279068       -4.27215591705446       -1.21343379656308
H          -10.81675808108574       -5.92707745225986       -2.53572136198621
H           -8.35905036665821       -5.79209755496283       -2.68121349856663
H           -6.25002016685401       -4.66455003566487       -2.07111724884619
H           -5.05752889284683       -2.87517054958659       -0.89616987852029
H           -2.20219651113195       -3.72645897251866        0.08140413714166
H            0.00698231008901       -4.85373809900188       -0.00238149615302
H            1.85029594933450       -5.25997680900459        1.43342394974489
H            4.06009738851024       -6.33139523740315        1.43828929806824
H            4.51496710023836       -7.67810825603176       -0.55252455379418
H            5.43464084506655       -9.93476796887976       -0.91434615740161
H            7.83632268644864      -10.36929505072220       -0.71664561439015
H            9.40885446926555       -8.53943422412642       -0.17364838090259
H           10.57051731065168       -6.13022174914103        0.44505584526537
H           11.02361665224498       -3.75946020844788        0.98348871635732
H            9.18953630253885       -2.14708432428885        1.16374960446740
H            6.85252048263547       -2.83005699614017        0.78880829323356
H            5.52877881566217       -3.31726150216181       -1.20703872205869
H            3.32700907347608       -2.23112613896266       -1.19301879773754
H            1.93904427861427       -1.07452332731753        0.28446001582028
H            1.78086387396216        0.84898410071638        0.08525887813268
H            1.28015863985793        5.01621222258955        1.34610066211370
H            3.32508707495117        6.36082168607815        1.16770529867795
H            3.43003887467880        7.73872360555799       -0.83353575342916
H            4.01417887684218       10.09153835550383       -1.26789651255459
H            6.34790883130355       10.83280086560049       -1.29181666651093
H            8.18634485991012        9.22386716372862       -0.90674804804181
H            9.70051701775917        6.98963349149852       -0.41299294253861
H           10.50431641117789        4.70064282140615        0.06731521527184
H            8.91850940829006        2.86694979184472        0.41229325046469
H            6.48841646504488        3.24060113377339        0.26393583596486
H            4.94525660217253        3.53374762078473       -1.59392057575759
H            2.91304389267002        2.17462081996751       -1.39757013769434
H           -0.61403512360540        4.36287815212481        0.10140750189564
H           -2.62216425126407        3.01181219934373        0.29652122548109
H           -5.45601222370365        0.73551864883593       -1.55330561251637
H           -7.13710260327710        1.67621366742975       -3.05736715889828
H           -8.28619570120668        3.78433406516984       -2.48741358875359
H           -7.70867736632541        4.98506892374911       -0.41482962358384

 projected vibrational frequencies (cm⁻¹)
eigval :       -0.00    -0.00    -0.00     0.00     0.00     0.00
eigval :        4.59     7.52     8.86    11.16    11.51    12.79
eigval :       14.33    18.30    23.44    27.72    30.37    32.31
eigval :       45.55    48.81    53.51    65.18    74.49    76.01
eigval :       80.06    85.66    91.59   101.90   103.64   105.44
eigval :      107.86   111.04   118.08   122.26   124.18   131.41
eigval :      145.09   145.31   148.52   154.67   156.75   176.67
eigval :      186.11   193.51   194.46   195.00   201.01   222.65
eigval :      230.34   234.94   250.00   254.26   261.01   266.77
eigval :      271.92   271.95   281.78   283.31   296.15   321.24
eigval :      341.06   352.80   356.13   365.66   369.12   379.66
eigval :      383.68   384.74   386.84   390.88   392.37   397.57
eigval :      400.83   402.57   404.67   411.36   421.13   422.53
eigval :      423.06   426.31   430.74   432.93   433.50   438.21
eigval :      439.23   445.51   447.12   451.17   460.26   466.91
eigval :      479.97   493.49   501.43   502.73   504.00   508.24
eigval :      518.49   518.73   523.95   525.70   535.14   535.41
eigval :      540.84   540.94   543.87   557.62   563.56   571.66
eigval :      581.00   583.39   583.55   586.65   595.84   596.84
eigval :      598.49   604.35   608.42   610.32   618.26   623.07
eigval :      634.35   636.70   642.94   647.25   658.40   668.53
eigval :      671.23   674.03   674.21   676.09   682.50   684.76
eigval :      695.53   697.34   699.20   702.50   708.01   708.98
eigval :      710.34   722.73   725.26   732.64   737.09   741.50
eigval :      754.06   755.51   757.34   769.47   769.84   774.83
eigval :      775.38   779.93   780.84   780.89   784.12   799.99
eigval :      809.64   812.51   813.61   818.22   823.82   831.36
eigval :      834.33   839.22   848.00   857.24   865.44   866.26
eigval :      867.51   871.90   873.69   874.53   876.60   879.31
eigval :      881.88   888.05   895.70   898.06   898.28   902.68
eigval :      902.88   903.16   903.30   904.60   906.04   915.09
eigval :      915.48   915.95   916.54   919.18   920.08   920.83
eigval :      921.47   922.55   923.75   927.67   927.96   928.62
eigval :      934.75   935.25   940.16   947.29   985.96   998.16
eigval :     1003.68  1012.26  1012.32  1015.76  1027.81  1033.63
eigval :     1070.67  1070.81  1073.90  1074.18  1074.88  1083.44
eigval :     1087.69  1096.78  1109.52  1118.10  1118.29  1120.86
eigval :     1124.55  1136.96  1138.71  1140.34  1152.03  1152.54
eigval :     1154.97  1158.17  1172.33  1174.55  1176.42  1176.72
eigval :     1177.13  1180.82  1180.90  1181.20  1183.50  1184.46
eigval :     1191.46  1194.65  1203.33  1204.91  1206.05  1211.23
eigval :     1212.44  1224.55  1225.69  1232.40  1236.06  1236.37
eigval :     1237.20  1244.43  1245.18  1248.36  1252.63  1259.14
eigval :     1266.16  1269.00  1275.82  1279.46  1292.26  1298.52
eigval :     1300.79  1301.23  1301.75  1304.47  1307.84  1316.05
eigval :     1317.26  1324.85  1327.95  1333.87  1335.50  1340.10
eigval :     1347.58  1355.31  1356.95  1357.94  1360.70  1361.14
eigval :     1363.92  1366.71  1368.67  1376.89  1379.29  1383.93
eigval :     1389.67  1399.26  1399.31  1404.38  1411.13  1413.82
eigval :     1415.72  1416.87  1426.58  1426.98  1428.21  1430.41
eigval :     1437.25  1444.73  1450.83  1463.99  1474.33  1475.09
eigval :     1477.53  1487.77  1488.05  1490.47  1493.43  1497.04
eigval :     1499.29  1503.32  1515.21  1516.51  1519.56  1528.26
eigval :     1534.11  1535.75  1544.86  1553.06  1556.18  1557.50
eigval :     1559.66  1571.19  1574.82  1574.91  1579.46  1588.66
eigval :     1588.92  1596.53  1596.72  1597.38  1597.87  1598.55
eigval :     1612.72  1613.40  2343.06  3070.52  3071.60  3075.70
eigval :     3076.46  3076.93  3077.04  3077.69  3079.41  3079.79
eigval :     3080.35  3081.46  3081.76  3081.97  3082.26  3082.38
eigval :     3082.58  3082.97  3083.41  3083.83  3084.56  3084.75
eigval :     3087.17  3088.04  3088.55  3089.04  3089.16  3090.49
eigval :     3090.96  3092.36  3093.16  3093.95  3095.17  3095.60
eigval :     3095.66  3095.71  3096.01  3096.74  3097.09  3097.69
eigval :     3099.45  3104.12  3104.82  3111.58  3117.16  3120.39

   temp. (K)  partition function   enthalpy   heat capacity  entropy
                                   cal/mol     cal/K/mol   cal/K/mol   J/K/mol
 298.15  VIB  0.987E+31            37722.230    239.641    236.155
         ROT  0.633E+09              888.752      2.981     43.254
         INT  0.625E+40            38610.983    242.622    279.408
         TR   0.330E+29             1481.254      4.968     46.712
         TOT                       40092.2367   247.5905   326.1203  1364.4875

       T/K    H(0)-H(T)+PV         H(T)/Eh          T*S/Eh         G(T)/Eh
   ------------------------------------------------------------------------
    298.15    0.638910E-01    0.102866E+01    0.154950E+00    0.873706E+00
   ------------------------------------------------------------------------

         :::::::::::::::::::::::::::::::::::::::::::::::::::::
         ::                  THERMODYNAMIC                  ::
         :::::::::::::::::::::::::::::::::::::::::::::::::::::
         :: total free energy        -203.805032421200 Eh   ::
         ::.................................................::
         :: total energy             -204.678738457991 Eh   ::
         :: zero point energy           0.964765287396 Eh   ::
         :: G(RRHO) w/o ZPVE           -0.091059250606 Eh   ::
         :: G(RRHO) contrib.            0.873706036791 Eh   ::
         :::::::::::::::::::::::::::::::::::::::::::::::::::::

           -------------------------------------------------
          | TOTAL ENERGY             -204.678738457991 Eh   |
          | TOTAL ENTHALPY           -203.650082124542 Eh   |
          | TOTAL FREE ENERGY        -203.805032421200 Eh   |
          | GRADIENT NORM               0.000093706308 Eh/α |
           -------------------------------------------------

 * finished run on 2025/09/12 at 15:34:26.252
