   * xtb version 6.7.1 (edcfbbe) compiled by 'albert@albert-system' on 2024-07-22

   ID    Z sym.   atoms
    1    7 N      1, 7, 25, 35, 59
    2    6 C      2-6, 8-24, 26-34, 36-58, 60-83
    3    1 H      84-128

          program call               : xtb data2507/gas/PPINCN-Cz/PPINCN-Cz.xyz --gfn 2 --ohess vtight --parallel 40 --molden --ceasefiles --namespace data2507/gas/PPINCN-Cz/PPINCN-Cz_gas_S0_preOpt
          :  Hamiltonian                  GFN2-xTB          :
 * total energy  :  -204.7017444 Eh     change       -0.1463437E-07 Eh
 * total energy  :  -204.7263956 Eh     change       -0.2465127E-01 Eh
 * total energy  :  -204.7329583 Eh     change       -0.6562702E-02 Eh
 * total energy  :  -204.7346637 Eh     change       -0.1705360E-02 Eh
 * total energy  :  -204.7360994 Eh     change       -0.1435678E-02 Eh
 * total energy  :  -204.7368150 Eh     change       -0.7156226E-03 Eh
 * total energy  :  -204.7372807 Eh     change       -0.4657043E-03 Eh
 * total energy  :  -204.7375775 Eh     change       -0.2967628E-03 Eh
 * total energy  :  -204.7377564 Eh     change       -0.1789453E-03 Eh
 * total energy  :  -204.7378829 Eh     change       -0.1264506E-03 Eh
 * total energy  :  -204.7432260 Eh     change       -0.1320421E-05 Eh
 * total energy  :  -204.7432272 Eh     change       -0.1210702E-05 Eh
 * total energy  :  -204.7432285 Eh     change       -0.1255510E-05 Eh
 * total energy  :  -204.7432298 Eh     change       -0.1362557E-05 Eh
 * total energy  :  -204.7432311 Eh     change       -0.1291646E-05 Eh
 * total energy  :  -204.7432325 Eh     change       -0.1404333E-05 Eh
 * total energy  :  -204.7432340 Eh     change       -0.1473789E-05 Eh
 * total energy  :  -204.7432359 Eh     change       -0.1879874E-05 Eh
 * total energy  :  -204.7432359 Eh     change       -0.7491650E-08 Eh
   *** GEOMETRY OPTIMIZATION CONVERGED AFTER 152 ITERATIONS ***

 final structure:
================
128
 xtb: 6.7.1 (edcfbbe)
N           -7.87584695645153        6.05478778602830       -1.09591350030020
C           -7.27204710074342        5.08594907615413       -0.98433777617461
C           -6.53556055020464        3.89064517447092       -0.83199393976012
C           -6.67955897840616        3.14844673028736        0.32140334432441
C           -5.95695792845538        1.96749060095170        0.49152709040352
C           -5.09506511072215        1.52836822798589       -0.48698173766235
N           -4.41276940410231        0.31554061703107       -0.30315105905510
C           -5.02272618627467       -0.91898559944798       -0.17468451968444
C           -6.46801086117775       -1.08168658377451       -0.22874228085886
C           -7.19466818892843       -0.41726517960763       -1.21639019623821
C           -8.56688084460026       -0.51432592027614       -1.28367989736160
C           -9.27367418139149       -1.28447806867785       -0.35849133683682
C          -10.69372968223581       -1.39302265747144       -0.39568904939435
C          -11.36275598360045       -2.15392550487304        0.50095637449941
C          -10.67036841925993       -2.87609378625812        1.51657983600662
C          -11.34110112721678       -3.66694000306817        2.45095745268317
C          -10.64237631035277       -4.35615386250131        3.42516295917976
C           -9.26383544814867       -4.27385947313127        3.49172793697248
C           -8.55169371854908       -3.49429746294169        2.57863503749053
C           -7.13205174016112       -3.38213783860089        2.61762537636960
C           -6.45846456847627       -2.61862496050423        1.72600248227367
C           -7.14040132635197       -1.89698145037970        0.70297617695820
C           -8.55414389271100       -1.98773295995018        0.63931562082106
C           -9.25728397163803       -2.78485321929863        1.57637582252517
N           -4.14902665363515       -1.88050075566171       -0.03383753421442
C           -2.92443425655905       -1.29066928015786       -0.06387304600666
C           -1.64992849892439       -1.91489266685718        0.00761966804043
C           -1.52397435630569       -3.30424917841547        0.11349259245227
C           -0.28597269387256       -3.89015719128763        0.13679169621160
C            0.86694031890494       -3.09764207630486        0.04302784355334
C            2.19614135701174       -3.72351654341539        0.03980569339483
C            2.48438109996997       -4.78864776910239        0.89120406846970
C            3.73126756163411       -5.37964999266928        0.89160497534665
C            4.72029849034651       -4.92773202995580        0.02193110532592
N            5.98251191107697       -5.53454001751012        0.00951724183476
C            6.22492575099547       -6.89103248117311       -0.08060698380246
C            5.32989693393643       -7.94155277257853       -0.22458141734562
C            5.84546179609668       -9.21977379192956       -0.32059902038537
C            7.21801435809837       -9.45571990546527       -0.28390022091263
C            8.11434839667681       -8.41258672786003       -0.16572369972002
C            7.62030062597965       -7.11851419061460       -0.06781339976028
C            8.24290865213821       -5.82904049362375        0.04026985352363
C            9.56463805979309       -5.40987077696380        0.11498443393038
C            9.82460002500439       -4.05965866525395        0.23693907018692
C            8.78601350284798       -3.13334571095234        0.30032122652183
C            7.46322427206375       -3.52598190702105        0.22866400214210
C            7.19604090444800       -4.87955046274767        0.08104074003539
C            4.44037507018825       -3.86839379715012       -0.83704332679190
C            3.19630501789460       -3.27168019840707       -0.81939624148184
C            0.74088592558413       -1.72279202319462       -0.05136314397258
C           -0.50620082933596       -1.08641067542751       -0.06184243422348
C           -0.65173125956943        0.35908230548849       -0.12005243804675
C            0.45767045511424        1.21042619019246       -0.08476698731976
C            0.34291303105756        2.58886397490356       -0.09896539963418
C            1.53573603227814        3.44419921162787       -0.04761891641145
C            1.61331842547600        4.60294061535938       -0.81817817954139
C            2.72255373751824        5.42164359950175       -0.75927440662040
C            3.78816099299865        5.09664943896979        0.07584617854711
N            4.91081246642580        5.93065661686274        0.14871027025301
C            5.63180059693347        6.41512504194015       -0.92481539942798
C            5.47433407727556        6.16536626818618       -2.28059601097653
C            6.36234494674066        6.76344788331367       -3.15399997281974
C            7.39089103477807        7.58469862899603       -2.69742570589427
C            7.56738548522119        7.81734249548214       -1.34822211615048
C            6.68736619856675        7.22744061198078       -0.45057101869860
C            6.58599861658341        7.23337720160359        0.98191526965315
C            7.31320310425974        7.85511433020947        1.98838092684832
C            6.92428782260247        7.66548552597053        3.29923686249355
C            5.81656182932273        6.88031082646285        3.61112246575948
C            5.07752515182390        6.25138899196598        2.62761581815393
C            5.47835739019445        6.41829619091469        1.30973566709953
C            3.72365793194770        3.93680661499395        0.84343407124511
C            2.60954962667421        3.12492221166278        0.78146032760474
C           -0.93493244550037        3.15970316153682       -0.13583720848487
C           -2.04682513255789        2.36012499531934       -0.17142979266316
C           -1.93772928109965        0.96219927465029       -0.18404473034866
C           -3.05709016830152        0.08772310243648       -0.21671254203211
C           -4.93624064027211        2.25437440688138       -1.70152995709612
C           -4.09941025893912        1.81013854619360       -2.74633423514988
C           -3.97336442310996        2.54053636874353       -3.89537329568221
C           -4.67463046190939        3.74423208395890       -4.05293193717537
C           -5.50529799111697        4.19440487107365       -3.06373500566113
C           -5.66134474442376        3.46164719313542       -1.87057943927718
H           -7.35065714698945        3.48378587408973        1.09773959101273
H           -6.07278106022925        1.39137449012465        1.39737991017706
H           -6.67203673818055        0.16374919341965       -1.96272862848371
H           -9.10595512147016        0.00671009710021       -2.06168001781654
H          -11.22381224115829       -0.84825168593013       -1.16409763564271
H          -12.44021944537281       -2.23104350026078        0.46564571644652
H          -12.41853268729455       -3.73592388059240        2.40508962264560
H          -11.17834760384781       -4.96393888737614        4.13970157104949
H           -8.72376944342872       -4.81542575659716        4.25508540390685
H           -6.59986476996612       -3.92645503758357        3.38486697096841
H           -5.38231079091012       -2.55727550859306        1.75908913047494
H           -2.42824135657693       -3.89090909480131        0.16257956252090
H           -0.19114367989019       -4.96413022597024        0.19631705221066
H            1.73045171126999       -5.13766886695836        1.58133591939256
H            3.95276003565291       -6.18505717099699        1.57593690798734
H            4.26544050305667       -7.76785050768396       -0.27306212693172
H            5.16895401901965      -10.05461611261561       -0.43056186309673
H            7.58113285667092      -10.46994239147485       -0.35913601617687
H            9.17866937575967       -8.59333901043929       -0.15405439547122
H           10.36862686977806       -6.12964554352431        0.08217107752384
H           10.84550827533099       -3.71223141184875        0.29367486583231
H            9.01978570955900       -2.08465168963189        0.41141635394602
H            6.66552665256199       -2.80168850649164        0.29724049460721
H            5.19728361400943       -3.53077614645279       -1.52932258587223
H            2.98497049969706       -2.46434029492823       -1.50532131436483
H            1.64720741220929       -1.14063243399596       -0.10321849911479
H            1.45057492775891        0.79193263620685       -0.05221443191244
H            0.79761193980939        4.85934841438282       -1.47827855790838
H            2.76408582403565        6.32646919180236       -1.34712573877107
H            4.69166662405258        5.51606011319272       -2.64337965695614
H            6.25878582264652        6.58717022537448       -4.21463804416979
H            8.06258158190291        8.03588875089163       -3.41252447545584
H            8.37400989754043        8.44067285085765       -0.99279900174405
H            8.16145314811411        8.47701852628250        1.74504074252087
H            7.47733257115747        8.13811790850730        4.09726886635068
H            5.52623587548364        6.76346387444479        4.64493149517023
H            4.20966078961221        5.66027898009079        2.87886529125730
H            4.55512326568305        3.67362659905769        1.48015689781782
H            2.56301717709813        2.23919144466099        1.39795521491651
H           -1.04403696273790        4.23348560286418       -0.10412043058419
H           -3.02391382688986        2.81710293003159       -0.16342387748363
H           -3.55910233095530        0.88207478840781       -2.63349741676330
H           -3.33140373599409        2.19033838267201       -4.68945786002705
H           -4.55977065315079        4.31136001303113       -4.96418155674263
H           -6.05635879318936        5.11614539596831       -3.18095264912473

          :  Hamiltonian                  GFN2-xTB          :
         :: gradient norm              0.000095725371 Eh/a0 ::
         :: HOMO-LUMO gap              1.502219428005 eV    ::
         :: SCC energy              -208.686536301487 Eh    ::
         :: -> dispersion             -0.196740381460 Eh    ::
         :: repulsion energy           3.943300395542 Eh    ::

    * Orbital Energies and Occupations

         #    Occupation            Energy/Eh            Energy/eV
      -------------------------------------------------------------
         1        2.0000           -0.6977798             -18.9876
       ...           ...                  ...                  ...
       179        2.0000           -0.4054896             -11.0339
       180        2.0000           -0.4039033             -10.9908
       181        2.0000           -0.4025774             -10.9547
       182        2.0000           -0.3986702             -10.8484
       183        2.0000           -0.3981067             -10.8330
       184        2.0000           -0.3885844             -10.5739
       185        2.0000           -0.3854417             -10.4884
       186        2.0000           -0.3782849             -10.2937
       187        2.0000           -0.3773073             -10.2671
       188        2.0000           -0.3759723             -10.2307
       189        2.0000           -0.3665406              -9.9741
       190        2.0000           -0.3608108              -9.8182
       191        2.0000           -0.3586115              -9.7583 (HOMO)
       192                         -0.3034059              -8.2561 (LUMO)
       193                         -0.2876166              -7.8264
       194                         -0.2676513              -7.2832
       195                         -0.2597719              -7.0688
       196                         -0.2578946              -7.0177
       197                         -0.2508779              -6.8267
       198                         -0.2488697              -6.7721
       199                         -0.2435622              -6.6277
       200                         -0.2412032              -6.5635
       201                         -0.2409967              -6.5579
       202                         -0.2345284              -6.3818
       ...                                ...                  ...
       377                          1.1614974              31.6060
      -------------------------------------------------------------
                  HL-Gap            0.0552056 Eh            1.5022 eV

     #   Z          covCN         q      C6AA      α(0)
     1   7 N        0.911    -0.233    26.104     7.389
     2   6 C        1.913     0.114    28.291     8.590
     3   6 C        2.970     0.010    27.798     8.648
     4   6 C        2.926    -0.019    28.488     8.753
     5   6 C        2.918    -0.040    28.994     8.830
     6   6 C        2.908     0.069    26.466     8.436
     7   7 N        2.843    -0.045    22.116     6.985
     8   6 C        3.183     0.132    24.706     8.113
     9   6 C        2.972    -0.009    28.242     8.717
    10   6 C        2.920    -0.035    28.880     8.813
    11   6 C        2.918    -0.038    28.957     8.824
    12   6 C        2.983     0.013    27.725     8.637
    13   6 C        2.913    -0.036    28.888     8.814
    14   6 C        2.914    -0.034    28.842     8.807
    15   6 C        2.982     0.013    27.728     8.638
    16   6 C        2.921    -0.036    28.884     8.813
    17   6 C        2.913    -0.029    28.729     8.789
    18   6 C        2.920    -0.035    28.875     8.812
    19   6 C        2.982     0.013    27.718     8.636
    20   6 C        2.914    -0.034    28.843     8.807
    21   6 C        2.912    -0.036    28.891     8.814
    22   6 C        2.983     0.014    27.690     8.632
    23   6 C        2.995     0.004    27.920     8.668
    24   6 C        2.997     0.004    27.924     8.668
    25   7 N        1.894    -0.287    28.297     7.886
    26   6 C        3.204     0.057    26.150     8.330
    27   6 C        2.986     0.001    27.999     8.680
    28   6 C        2.919    -0.032    28.786     8.798
    29   6 C        2.922    -0.034    28.854     8.809
    30   6 C        2.975     0.007    27.852     8.657
    31   6 C        2.977     0.007    27.865     8.659
    32   6 C        2.925    -0.033    28.833     8.806
    33   6 C        2.920    -0.044    29.081     8.843
    34   6 C        2.913     0.062    26.601     8.457
    35   7 N        2.802    -0.044    22.086     6.980
    36   6 C        3.076     0.047    26.875     8.499
    37   6 C        2.910    -0.051    29.265     8.871
    38   6 C        2.924    -0.034    28.837     8.806
    39   6 C        2.920    -0.041    29.019     8.834
    40   6 C        2.913    -0.033    28.820     8.803
    41   6 C        3.068    -0.017    28.367     8.733
    42   6 C        3.068    -0.017    28.366     8.733
    43   6 C        2.913    -0.033    28.819     8.803
    44   6 C        2.920    -0.041    29.019     8.834
    45   6 C        2.924    -0.034    28.839     8.807
    46   6 C        2.910    -0.051    29.266     8.871
    47   6 C        3.076     0.047    26.876     8.500
    48   6 C        2.920    -0.044    29.084     8.844
    49   6 C        2.925    -0.034    28.848     8.808
    50   6 C        2.928    -0.040    29.002     8.832
    51   6 C        2.978    -0.002    28.063     8.690
    52   6 C        2.979     0.002    27.984     8.677
    53   6 C        2.928    -0.039    28.981     8.829
    54   6 C        2.974     0.007    27.858     8.658
    55   6 C        2.977     0.006    27.878     8.661
    56   6 C        2.925    -0.033    28.828     8.805
    57   6 C        2.920    -0.043    29.076     8.843
    58   6 C        2.913     0.063    26.584     8.455
    59   7 N        2.802    -0.044    22.092     6.981
    60   6 C        3.075     0.047    26.877     8.500
    61   6 C        2.910    -0.051    29.267     8.871
    62   6 C        2.924    -0.034    28.836     8.806
    63   6 C        2.920    -0.041    29.016     8.833
    64   6 C        2.913    -0.033    28.816     8.803
    65   6 C        3.068    -0.017    28.362     8.733
    66   6 C        3.068    -0.017    28.363     8.733
    67   6 C        2.913    -0.033    28.817     8.803
    68   6 C        2.920    -0.041    29.014     8.833
    69   6 C        2.924    -0.033    28.833     8.806
    70   6 C        2.910    -0.051    29.266     8.871
    71   6 C        3.076     0.047    26.876     8.500
    72   6 C        2.920    -0.043    29.075     8.842
    73   6 C        2.925    -0.034    28.840     8.807
    74   6 C        2.922    -0.036    28.893     8.815
    75   6 C        2.917    -0.039    28.968     8.826
    76   6 C        2.979    -0.004    28.116     8.698
    77   6 C        3.070     0.021    27.467     8.593
    78   6 C        2.985     0.007    27.860     8.658
    79   6 C        2.917    -0.028    28.701     8.785
    80   6 C        2.916    -0.024    28.611     8.771
    81   6 C        2.916    -0.023    28.575     8.766
    82   6 C        2.918    -0.030    28.757     8.794
    83   6 C        2.991     0.018    27.600     8.618
    84   1 H        0.926     0.048     2.341     2.392
    85   1 H        0.926     0.044     2.390     2.418
    86   1 H        0.926     0.023     2.692     2.566
    87   1 H        0.926     0.033     2.549     2.497
    88   1 H        0.926     0.033     2.541     2.493
    89   1 H        0.926     0.034     2.528     2.487
    90   1 H        0.926     0.033     2.544     2.494
    91   1 H        0.926     0.032     2.553     2.499
    92   1 H        0.926     0.034     2.535     2.490
    93   1 H        0.926     0.035     2.515     2.480
    94   1 H        0.926     0.053     2.281     2.362
    95   1 H        0.926     0.052     2.290     2.366
    96   1 H        0.926     0.034     2.530     2.487
    97   1 H        0.926     0.038     2.477     2.461
    98   1 H        0.926     0.040     2.443     2.444
    99   1 H        0.926     0.027     2.628     2.535
   100   1 H        0.926     0.028     2.609     2.526
   101   1 H        0.926     0.027     2.624     2.533
   102   1 H        0.926     0.030     2.581     2.512
   103   1 H        0.926     0.030     2.580     2.512
   104   1 H        0.926     0.027     2.623     2.533
   105   1 H        0.926     0.028     2.612     2.528
   106   1 H        0.926     0.026     2.640     2.541
   107   1 H        0.926     0.040     2.449     2.447
   108   1 H        0.926     0.036     2.503     2.474
   109   1 H        0.926     0.034     2.535     2.490
   110   1 H        0.926     0.038     2.479     2.462
   111   1 H        0.926     0.036     2.503     2.474
   112   1 H        0.926     0.041     2.438     2.442
   113   1 H        0.926     0.026     2.640     2.541
   114   1 H        0.926     0.028     2.609     2.526
   115   1 H        0.926     0.028     2.618     2.530
   116   1 H        0.926     0.031     2.575     2.509
   117   1 H        0.926     0.031     2.574     2.509
   118   1 H        0.926     0.028     2.617     2.530
   119   1 H        0.926     0.029     2.606     2.525
   120   1 H        0.926     0.027     2.635     2.539
   121   1 H        0.926     0.041     2.433     2.439
   122   1 H        0.926     0.037     2.489     2.467
   123   1 H        0.926     0.031     2.579     2.511
   124   1 H        0.926     0.023     2.694     2.567
   125   1 H        0.926     0.040     2.445     2.445
   126   1 H        0.926     0.041     2.435     2.440
   127   1 H        0.926     0.043     2.411     2.428
   128   1 H        0.926     0.047     2.364     2.404

molecular dipole:
                 x           y           z       tot (Debye)
 q only:       -0.801      -0.573      -0.039
   full:       -0.683      -0.529      -0.067       2.202

 projected vibrational frequencies (cm⁻¹)
eigval :       -0.00    -0.00    -0.00     0.00     0.00     0.00
eigval :        4.74     8.17     9.16    10.78    10.84    13.34
eigval :       15.77    21.51    23.54    26.44    27.76    32.73
eigval :       44.27    49.67    54.82    64.17    73.64    75.24
eigval :       80.97    85.09    89.72    97.16   100.68   104.65
eigval :      105.14   111.62   114.49   120.91   126.97   131.36
eigval :      141.35   144.88   145.24   149.41   167.42   172.95
eigval :      180.06   194.06   197.06   203.00   215.61   220.60
eigval :      232.60   238.24   246.99   248.92   261.23   268.32
eigval :      271.77   271.93   274.44   283.47   304.38   324.83
eigval :      339.65   348.71   362.40   367.46   376.00   381.23
eigval :      383.36   385.04   388.70   392.65   394.31   394.93
eigval :      398.50   403.68   407.76   415.96   419.61   423.48
eigval :      423.71   429.42   435.01   436.59   437.84   441.63
eigval :      449.19   451.04   455.78   467.10   468.98   476.96
eigval :      482.45   495.57   500.03   505.00   511.92   513.55
eigval :      518.54   519.77   521.50   526.75   533.82   535.05
eigval :      541.17   541.20   545.35   562.19   570.93   577.38
eigval :      581.32   583.79   589.10   590.24   594.01   596.95
eigval :      604.37   609.25   611.32   615.54   618.46   636.02
eigval :      636.46   643.69   648.50   657.17   659.66   669.46
eigval :      673.87   674.12   680.27   684.64   687.00   693.46
eigval :      696.65   697.51   701.44   702.53   708.13   709.45
eigval :      715.91   725.62   729.68   734.22   745.23   755.76
eigval :      757.41   757.61   769.55   769.63   774.15   776.46
eigval :      779.86   780.62   780.79   781.30   801.94   810.16
eigval :      813.64   820.07   827.50   834.35   836.14   838.39
eigval :      839.92   851.63   860.26   866.36   867.30   869.23
eigval :      873.28   873.81   875.22   880.16   881.34   882.81
eigval :      887.36   897.91   898.28   902.42   902.45   902.85
eigval :      902.95   907.91   914.82   916.28   917.01   919.30
eigval :      920.17   920.74   921.09   921.19   921.43   921.65
eigval :      924.02   926.60   927.02   927.24   928.04   932.88
eigval :      934.45   935.28   940.87   955.03   996.57  1002.46
eigval :     1010.93  1012.16  1012.16  1016.27  1026.38  1039.45
eigval :     1070.37  1070.41  1073.83  1073.95  1079.62  1083.94
eigval :     1085.50  1100.66  1110.09  1113.66  1118.27  1118.39
eigval :     1129.43  1136.78  1137.71  1152.49  1152.90  1154.44
eigval :     1160.39  1167.30  1175.64  1176.80  1176.86  1177.39
eigval :     1179.93  1181.47  1181.49  1184.12  1184.55  1187.74
eigval :     1192.45  1198.81  1203.04  1204.47  1209.12  1215.16
eigval :     1225.49  1226.91  1234.05  1236.90  1236.92  1238.67
eigval :     1244.57  1245.72  1247.96  1254.75  1263.82  1266.64
eigval :     1269.33  1278.73  1284.41  1290.80  1296.35  1301.88
eigval :     1302.20  1303.65  1304.10  1309.50  1315.42  1315.93
eigval :     1317.83  1324.48  1328.38  1337.85  1343.10  1354.55
eigval :     1357.65  1357.76  1361.11  1362.33  1362.53  1368.39
eigval :     1369.71  1383.10  1388.70  1389.42  1392.60  1398.87
eigval :     1400.85  1406.63  1412.34  1413.99  1417.04  1417.92
eigval :     1426.76  1428.52  1428.60  1431.97  1438.01  1442.27
eigval :     1450.32  1453.51  1476.49  1476.63  1486.61  1488.50
eigval :     1488.75  1492.22  1493.15  1497.01  1501.86  1502.92
eigval :     1520.49  1537.55  1540.90  1555.27  1557.67  1561.20
eigval :     1562.39  1562.59  1568.00  1571.30  1575.33  1575.36
eigval :     1578.34  1585.90  1589.24  1589.43  1593.02  1599.26
eigval :     1599.32  1600.17  1602.07  1604.03  1604.84  1607.14
eigval :     1615.34  1615.48  2366.64  3067.58  3070.95  3073.28
eigval :     3073.84  3075.48  3075.63  3075.86  3076.04  3077.80
eigval :     3078.67  3079.02  3080.73  3080.79  3080.94  3081.10
eigval :     3081.36  3082.19  3082.30  3084.58  3085.32  3085.46
eigval :     3086.12  3087.60  3087.82  3087.84  3088.63  3089.46
eigval :     3089.62  3090.87  3092.60  3093.45  3094.27  3094.47
eigval :     3094.81  3094.87  3095.42  3096.40  3096.44  3096.82
eigval :     3100.97  3102.28  3104.06  3107.51  3109.81  3110.47

   temp. (K)  partition function   enthalpy   heat capacity  entropy
                                   cal/mol     cal/K/mol   cal/K/mol   J/K/mol
 298.15  VIB  0.761E+31            37552.176    238.188    235.231
         ROT  0.634E+09              888.752      2.981     43.257
         INT  0.482E+40            38440.928    241.168    278.488
         TR   0.330E+29             1481.254      4.968     46.712
         TOT                       39922.1822   246.1366   325.2001  1360.6373

       T/K    H(0)-H(T)+PV         H(T)/Eh          T*S/Eh         G(T)/Eh
   ------------------------------------------------------------------------
    298.15    0.636200E-01    0.103196E+01    0.154513E+00    0.877449E+00
   ------------------------------------------------------------------------

         :::::::::::::::::::::::::::::::::::::::::::::::::::::
         ::                  THERMODYNAMIC                  ::
         :::::::::::::::::::::::::::::::::::::::::::::::::::::
         :: total free energy        -203.865786628011 Eh   ::
         ::.................................................::
         :: total energy             -204.743235905942 Eh   ::
         :: zero point energy           0.968342305731 Eh   ::
         :: G(RRHO) w/o ZPVE           -0.090893027800 Eh   ::
         :: G(RRHO) contrib.            0.877449277931 Eh   ::
         :::::::::::::::::::::::::::::::::::::::::::::::::::::

           -------------------------------------------------
          | TOTAL ENERGY             -204.743235905942 Eh   |
          | TOTAL ENTHALPY           -203.711273553266 Eh   |
          | TOTAL FREE ENERGY        -203.865786628011 Eh   |
          | GRADIENT NORM               0.000095687863 Eh/α |
          | HOMO-LUMO GAP               1.502220427330 eV   |
           -------------------------------------------------

 * finished run on 2025/09/12 at 15:20:00.585
