   * xtb version 6.7.1 (edcfbbe) compiled by 'albert@albert-system' on 2024-07-22

   ID    Z sym.   atoms
    1    7 N      1, 7, 25, 35, 59
    2    6 C      2-6, 8-24, 26-34, 36-58, 60-83
    3    1 H      84-128

          program call               : xtb data2507/gas/PPINCN-Cz/PPINCN-Cz_gas_T1_crest.xyz --gfn 2 --spinpol --tblite --uhf 2 --ohess vtight --parallel 40 --molden --ceasefiles --namespace data2507/gas/PPINCN-Cz/PPINCN-Cz_gas_T1_finalOpt
 * total energy  :  -204.6794495 Eh     change       -0.1913347E-07 Eh
 * total energy  :  -204.6794891 Eh     change       -0.3956368E-04 Eh
 * total energy  :  -204.6795108 Eh     change       -0.2169606E-04 Eh
 * total energy  :  -204.6794679 Eh     change        0.4290215E-04 Eh
 * total energy  :  -204.6795110 Eh     change       -0.4308979E-04 Eh
 * total energy  :  -204.6795175 Eh     change       -0.6523045E-05 Eh
 * total energy  :  -204.6795203 Eh     change       -0.2760850E-05 Eh
 * total energy  :  -204.6795230 Eh     change       -0.2729183E-05 Eh
 * total energy  :  -204.6795274 Eh     change       -0.4366324E-05 Eh
 * total energy  :  -204.6795314 Eh     change       -0.4064274E-05 Eh
 * total energy  :  -204.6796035 Eh     change       -0.4780173E-05 Eh
 * total energy  :  -204.6796044 Eh     change       -0.8802765E-06 Eh
 * total energy  :  -204.6796055 Eh     change       -0.1058533E-05 Eh
 * total energy  :  -204.6796008 Eh     change        0.4679974E-05 Eh
 * total energy  :  -204.6796070 Eh     change       -0.6163284E-05 Eh
 * total energy  :  -204.6796071 Eh     change       -0.1666687E-06 Eh
 * total energy  :  -204.6796079 Eh     change       -0.7784795E-06 Eh
 * total energy  :  -204.6796083 Eh     change       -0.3406887E-06 Eh
 * total energy  :  -204.6796083 Eh     change       -0.9688600E-07 Eh
   *** GEOMETRY OPTIMIZATION CONVERGED AFTER 51 ITERATIONS ***

 final structure:
================
128
 xtb: 6.7.1 (edcfbbe)
N           -6.87360273972319        6.99371736321490        0.42105317923861
C           -6.41104556432661        5.94913698450405        0.29874688009440
C           -5.84917990747552        4.66527650050752        0.16598302582461
C           -6.10887591802444        3.70494583329843        1.13010159145773
C           -5.55332961498994        2.43603845886891        1.02432898439385
C           -4.73342551845683        2.11335398492351       -0.04033044657606
N           -4.18974859015521        0.82188431587657       -0.11604139041627
C           -4.92897668468317       -0.36836564398472       -0.12510712815529
C           -6.33746547578932       -0.43919139849094       -0.26615197315992
C           -7.04213747769436        0.58214303244908       -0.94720172168047
C           -8.39054100306527        0.54874456919502       -1.11078203459035
C           -9.17368951957501       -0.51710684532262       -0.57672614774766
C          -10.56356943429895       -0.54321267984704       -0.70705051540561
C          -11.30562937124665       -1.59524319647527       -0.21073220705314
C          -10.67864483985715       -2.66907104377489        0.44304258175331
C          -11.41526314765693       -3.75904334040766        0.96063388943765
C          -10.77776889659869       -4.80570303464857        1.60135411147934
C           -9.40718223161356       -4.80617432324688        1.75327241405354
C           -8.62451265541100       -3.73663546654711        1.25279384682000
C           -7.23065920125219       -3.70060879465726        1.39195043064865
C           -6.48872305171452       -2.64465271670589        0.89963603041822
C           -7.09102611217705       -1.57607836748174        0.22845010053523
C           -8.50286061943026       -1.58283821581152        0.07813680222850
C           -9.26631672113425       -2.66046832411965        0.58909511965818
N           -4.11706622058742       -1.42232491975158       -0.06779235049792
C           -2.86716647955651       -0.94878506980087       -0.04661366383924
C           -1.65665815543353       -1.69543355421057       -0.04798660828935
C           -1.66700807965043       -3.09359892982831       -0.08344647556522
C           -0.49127456384908       -3.79943675423914       -0.10513938235392
C            0.73250669894485       -3.11793060394385       -0.10316170240877
C            2.00144988600176       -3.85560776155320       -0.12731651267303
C            2.16687913498344       -5.01628999228684        0.62705510023853
C            3.36759066182648       -5.69587463130718        0.63002148619819
C            4.43364374410996       -5.23762839901172       -0.14033298723342
N            5.65597919007842       -5.91882866856957       -0.13678269466621
C            5.82858822459942       -7.27702553400177       -0.31991211437526
C            4.88815543109777       -8.25820495381435       -0.59935248383815
C            5.33811283159815       -9.55398363596223       -0.76650441241337
C            6.69056163197291       -9.87309309589565       -0.66893469180266
C            7.63374363820337       -8.89687981175658       -0.41663044996146
C            7.20585560797750       -7.58731047006493       -0.24474593223691
C            7.89067214090765       -6.34914195741580        0.00263365516660
C            9.22587639592936       -6.01744180949493        0.18949217839953
C            9.55160111067873       -4.69884917216721        0.43741395726084
C            8.56375141064247       -3.71997724862972        0.51608974917076
C            7.22853734141678       -4.02575644870038        0.33392637640622
C            6.89733576154541       -5.34478889336095        0.05863459596866
C            4.27229024598445       -4.08946605633798       -0.91209717566624
C            3.07410826876504       -3.40632891477754       -0.89678105408134
C            0.73915953209813       -1.73172556933740       -0.06851267452030
C           -0.43839664357588       -0.97979204268220       -0.03331859069368
C           -0.44388388678663        0.47366827588511        0.05003010940312
C            0.74392263477070        1.19999864744925        0.12042097018107
C            0.77782741465937        2.58121252913574        0.24479684206852
C            2.05768885731747        3.29179238266168        0.28607164367033
C            2.20990181807582        4.52286661337768       -0.35285002551715
C            3.42094378292223        5.18266580290139       -0.34479900396953
C            4.51419133164122        4.63354823964355        0.32189297898833
N            5.74657778179776        5.29481505814073        0.32945986784809
C            6.96873895789233        4.72513421852946        0.02748953502885
C            7.26481410412442        3.43540258427642       -0.39002337174547
C            8.58606081413793        3.13033871937087       -0.65636968392018
C            9.59383516759542        4.08247115297468       -0.52270394765345
C            9.30202197253456        5.37470981236501       -0.13351755896907
C            7.98158405577054        5.70489746557000        0.14007939151719
C            7.32991551828852        6.92239158713658        0.53583500040931
C            7.78877942274391        8.20201187727510        0.81759521131706
C            6.87484527339526        9.16202430769759        1.20432782657909
C            5.52190693709534        8.85428194131363        1.32722865965978
C            5.04154043219114        7.58805194516626        1.05235596176082
C            5.95137816986365        6.62603144389675        0.63773416138542
C            4.36744039143699        3.41413561628626        0.97974658023878
C            3.15818826576140        2.75237188274681        0.95350944768724
C           -0.43661699243368        3.27361238444184        0.34044597829307
C           -1.62518359598378        2.59867652485070        0.26680659008309
C           -1.66932873545898        1.20427605080898        0.08237098082895
C           -2.86758106531413        0.46281663655995       -0.04470261913101
C           -4.46470380564678        3.06333010862661       -1.06830125764993
C           -3.68570216496419        2.75402914678242       -2.20078102795273
C           -3.44898044659311        3.69758910749273       -3.16518472518343
C           -3.97783145294413        4.98680790289293       -3.03926581014819
C           -4.75557821792268        5.31212950252552       -1.95899851091492
C           -5.02435983476937        4.36243105624215       -0.95580514948458
H           -6.73745247515399        3.94919465087709        1.97314184503996
H           -5.75441289590721        1.69320767094991        1.78194133190951
H           -6.48550553876341        1.38252778344874       -1.40949241678201
H           -8.89120632260636        1.32697126050105       -1.66777269297841
H          -11.05653293079526        0.27825396196590       -1.20718765866738
H          -12.38014430533870       -1.60360866149182       -0.32162745722536
H          -12.48924159249611       -3.76095997709336        0.84693575046217
H          -11.36080296900480       -5.62923709292357        1.98815979854875
H           -8.91001831157059       -5.62179681838178        2.25707171688898
H           -6.73313669514680       -4.51547336386727        1.89779840277103
H           -5.41812890332706       -2.64294318087694        1.02077009329031
H           -2.62411948805128       -3.59131018319955       -0.10140933815577
H           -0.50260093843945       -4.87805725828276       -0.15039788194449
H            1.35501797660055       -5.36929685076190        1.24554017560881
H            3.49513016738716       -6.57388939847229        1.24537816841930
H            3.83996699690149       -8.01867235248797       -0.69639245250978
H            4.62516397780509      -10.33625381028736       -0.98159584695252
H            7.00174575158184      -10.89835165568649       -0.80310056843837
H            8.68373723498595       -9.14078669119518       -0.35791452806683
H            9.98937165458885       -6.77935760016637        0.14572940441869
H           10.58432681930583       -4.41912310478544        0.58312942913466
H            8.84707740008810       -2.69955791736949        0.72849541912192
H            6.46930335774328       -3.26269917778006        0.41674068499943
H            5.08619070100791       -3.74877729984286       -1.53458155811623
H            2.95621738444168       -2.52843598125753       -1.51501781754202
H            1.69862297632188       -1.24051467615188       -0.04410793525661
H            1.68802979378933        0.68420675458513        0.05614738975595
H            1.37698853016146        4.94844600374654       -0.89276322111769
H            3.53533788583461        6.11691990790386       -0.87380407217433
H            6.48934419167410        2.69504902185008       -0.51656865505181
H            8.84210440603205        2.13205668348261       -0.97959173918652
H           10.61475093548647        3.80400954276958       -0.73753627237420
H           10.08017256271115        6.11788103737738       -0.04701595292112
H            8.83991615135829        8.43513501232888        0.73921317130519
H            7.21017671213766       10.16428152113473        1.42556356424248
H            4.83283423310085        9.62134069545700        1.64849042870248
H            3.99396778951528        7.35552421957546        1.17025620044431
H            5.20252293525262        3.00128026188858        1.52572939763630
H            3.05422474684037        1.81947332979191        1.48776046347012
H           -0.43490811197087        4.34140034506444        0.49965636222872
H           -2.54498158447544        3.14760129967454        0.38041831885088
H           -3.27881489587198        1.75931842008141       -2.30799944480863
H           -2.85169314840398        3.44674069193573       -4.02894119785124
H           -3.77665224745994        5.72310668837964       -3.80275818776730
H           -5.17714636805556        6.30185741654238       -1.86008602464970

 projected vibrational frequencies (cm⁻¹)
eigval :       -0.00    -0.00    -0.00    -0.00     0.00     0.00
eigval :        4.18     7.46     8.54    10.57    11.15    13.70
eigval :       16.31    19.98    22.68    26.91    28.42    34.32
eigval :       44.27    48.72    54.23    64.77    74.25    78.51
eigval :       80.06    82.21    93.41    94.83   101.28   104.34
eigval :      105.56   112.74   117.00   123.07   127.53   133.98
eigval :      139.48   144.86   145.31   157.06   162.06   176.87
eigval :      177.43   193.03   194.15   195.24   211.13   216.46
eigval :      230.90   237.61   249.18   254.38   261.18   267.74
eigval :      271.70   271.71   279.32   281.74   296.94   319.34
eigval :      341.73   352.97   356.41   365.83   369.71   380.25
eigval :      383.92   385.02   387.08   391.48   393.02   395.39
eigval :      399.27   401.34   406.46   409.97   420.50   422.79
eigval :      423.25   427.72   431.38   434.81   435.87   437.91
eigval :      441.32   445.67   448.71   451.38   458.91   464.10
eigval :      478.42   493.55   498.15   501.99   506.55   510.67
eigval :      517.72   518.70   520.10   526.21   534.31   535.95
eigval :      540.69   540.78   541.93   559.29   562.73   570.67
eigval :      581.32   583.35   584.61   586.75   596.35   596.65
eigval :      598.49   604.66   606.61   610.06   618.71   624.23
eigval :      636.21   637.48   639.01   649.40   659.07   669.11
eigval :      670.38   674.02   674.19   674.83   684.12   687.39
eigval :      693.98   696.49   699.87   701.98   708.16   709.40
eigval :      712.25   722.43   725.47   732.63   737.54   742.45
eigval :      754.36   755.52   757.27   769.10   769.28   774.73
eigval :      775.57   779.46   780.29   780.48   784.58   800.18
eigval :      809.53   812.02   813.20   821.03   824.41   830.22
eigval :      831.49   838.28   848.72   855.15   864.89   866.06
eigval :      867.78   870.71   873.35   873.58   874.42   879.78
eigval :      881.07   888.57   894.24   898.00   898.16   898.67
eigval :      902.07   902.33   902.44   902.73   902.85   913.12
eigval :      913.92   915.03   915.73   918.89   919.82   920.55
eigval :      920.99   922.46   923.60   927.55   927.66   927.91
eigval :      934.78   935.07   939.91   947.93   985.19   997.88
eigval :     1003.39  1011.95  1012.08  1015.43  1027.30  1034.15
eigval :     1070.22  1070.32  1073.71  1073.86  1078.45  1083.42
eigval :     1086.95  1096.93  1108.55  1117.94  1118.05  1121.46
eigval :     1126.14  1136.44  1138.00  1140.26  1151.34  1151.96
eigval :     1153.23  1159.21  1172.39  1173.71  1176.02  1176.16
eigval :     1176.34  1179.65  1180.30  1180.65  1183.30  1183.79
eigval :     1190.62  1194.35  1202.85  1204.47  1206.63  1210.17
eigval :     1213.04  1223.83  1226.34  1231.60  1235.63  1235.93
eigval :     1237.21  1244.30  1245.03  1247.68  1253.74  1258.60
eigval :     1266.00  1268.84  1276.92  1280.31  1292.48  1298.65
eigval :     1300.53  1301.14  1301.59  1305.29  1309.17  1316.01
eigval :     1317.18  1326.45  1328.77  1334.70  1336.18  1340.44
eigval :     1347.00  1354.32  1356.94  1357.71  1360.58  1361.06
eigval :     1363.04  1366.36  1368.45  1376.90  1379.35  1383.66
eigval :     1389.70  1398.67  1398.91  1402.94  1410.43  1414.11
eigval :     1415.13  1417.36  1426.07  1426.59  1428.20  1430.67
eigval :     1437.10  1443.82  1450.78  1463.72  1474.08  1474.87
eigval :     1477.67  1487.55  1487.90  1490.28  1493.49  1497.61
eigval :     1499.09  1502.99  1516.09  1516.52  1519.41  1529.82
eigval :     1534.67  1535.89  1544.38  1553.61  1555.78  1557.73
eigval :     1559.61  1570.90  1574.53  1574.64  1579.05  1588.46
eigval :     1588.74  1592.45  1596.02  1597.04  1597.60  1598.01
eigval :     1612.48  1613.23  2342.84  3070.49  3071.54  3076.09
eigval :     3076.16  3076.54  3076.89  3077.55  3079.31  3079.33
eigval :     3080.08  3080.10  3081.57  3081.89  3082.01  3082.09
eigval :     3082.19  3083.22  3083.58  3084.20  3084.72  3086.71
eigval :     3087.05  3088.23  3088.34  3088.81  3089.20  3090.31
eigval :     3090.77  3091.48  3093.21  3093.80  3094.93  3095.28
eigval :     3095.38  3095.57  3096.91  3097.45  3098.05  3098.53
eigval :     3098.81  3102.64  3104.81  3112.87  3118.66  3126.71

   temp. (K)  partition function   enthalpy   heat capacity  entropy
                                   cal/mol     cal/K/mol   cal/K/mol   J/K/mol
 298.15  VIB  0.110E+32            37738.972    239.665    236.374
         ROT  0.622E+09              888.752      2.981     43.218
         INT  0.686E+40            38627.724    242.646    279.592
         TR   0.330E+29             1481.254      4.968     46.712
         TOT                       40108.9783   247.6139   326.3040  1365.2561

       T/K    H(0)-H(T)+PV         H(T)/Eh          T*S/Eh         G(T)/Eh
   ------------------------------------------------------------------------
    298.15    0.639177E-01    0.102856E+01    0.155038E+00    0.873527E+00
   ------------------------------------------------------------------------

         :::::::::::::::::::::::::::::::::::::::::::::::::::::
         ::                  THERMODYNAMIC                  ::
         :::::::::::::::::::::::::::::::::::::::::::::::::::::
         :: total free energy        -203.806081450218 Eh   ::
         ::.................................................::
         :: total energy             -204.679608440325 Eh   ::
         :: zero point energy           0.964646843131 Eh   ::
         :: G(RRHO) w/o ZPVE           -0.091119853024 Eh   ::
         :: G(RRHO) contrib.            0.873526990107 Eh   ::
         :::::::::::::::::::::::::::::::::::::::::::::::::::::

           -------------------------------------------------
          | TOTAL ENERGY             -204.679608440325 Eh   |
          | TOTAL ENTHALPY           -203.651043871665 Eh   |
          | TOTAL FREE ENERGY        -203.806081450218 Eh   |
          | GRADIENT NORM               0.000128919324 Eh/α |
           -------------------------------------------------

 * finished run on 2025/09/12 at 15:52:20.797
