   * xtb version 6.7.1 (edcfbbe) compiled by 'albert@albert-system' on 2024-07-22

   ID    Z sym.   atoms
    1    7 N      1, 7, 25, 35, 59
    2    6 C      2-6, 8-24, 26-34, 36-58, 60-83
    3    1 H      84-128

          program call               : xtb data2507/gas/PPINCN-Cz/PPINCN-Cz_gas_S0_crest.xyz --gfn 2 --ohess vtight --parallel 40 --molden --ceasefiles --namespace data2507/gas/PPINCN-Cz/PPINCN-Cz_gas_S0_finalOpt
          :  Hamiltonian                  GFN2-xTB          :
 * total energy  :  -204.7438062 Eh     change       -0.3232714E-08 Eh
 * total energy  :  -204.7438071 Eh     change       -0.8656261E-06 Eh
 * total energy  :  -204.7438042 Eh     change        0.2855891E-05 Eh
 * total energy  :  -204.7438110 Eh     change       -0.6740424E-05 Eh
 * total energy  :  -204.7438131 Eh     change       -0.2147529E-05 Eh
 * total energy  :  -204.7438175 Eh     change       -0.4402432E-05 Eh
 * total energy  :  -204.7438218 Eh     change       -0.4299995E-05 Eh
 * total energy  :  -204.7438255 Eh     change       -0.3694856E-05 Eh
 * total energy  :  -204.7438303 Eh     change       -0.4759070E-05 Eh
 * total energy  :  -204.7438369 Eh     change       -0.6593832E-05 Eh
 * total energy  :  -204.7438803 Eh     change       -0.8079988E-06 Eh
 * total energy  :  -204.7438813 Eh     change       -0.9723373E-06 Eh
 * total energy  :  -204.7438823 Eh     change       -0.1014025E-05 Eh
 * total energy  :  -204.7438833 Eh     change       -0.1015539E-05 Eh
 * total energy  :  -204.7438842 Eh     change       -0.9112489E-06 Eh
 * total energy  :  -204.7438852 Eh     change       -0.1012815E-05 Eh
 * total energy  :  -204.7438864 Eh     change       -0.1202299E-05 Eh
 * total energy  :  -204.7438877 Eh     change       -0.1281699E-05 Eh
 * total energy  :  -204.7438877 Eh     change       -0.1482391E-08 Eh
   *** GEOMETRY OPTIMIZATION CONVERGED AFTER 44 ITERATIONS ***

 final structure:
================
128
 xtb: 6.7.1 (edcfbbe)
N           -7.64127109324020        5.86007807765856        2.12343051733621
C           -7.01792148892294        4.94276058768570        1.83024133863660
C           -6.23611776606463        3.81782965006509        1.48868989854066
C           -5.14849945268147        3.48898352771358        2.27262883056714
C           -4.39647352736371        2.35096362619661        1.98703958963238
C           -4.70323507912076        1.56601391524505        0.89635124255673
N           -4.02422571209756        0.35524272804361        0.69649665700722
C           -4.64100755219978       -0.88521790619207        0.72483083768643
C           -6.08686505814567       -1.01223297213179        0.87022573746526
C           -6.73187497872727       -0.32590723751308        1.89688267474302
C           -8.10511095769647       -0.32948172881852        2.00662416250589
C           -8.89161780155693       -1.01622077629383        1.08047093907683
C          -10.31485405403399       -1.00934403091722        1.14597278395369
C          -11.06188179629348       -1.68817839001455        0.24503623690077
C          -10.45214933363940       -2.43630483809616       -0.80437496137158
C          -11.20385534167419       -3.14311766223357       -1.74450415268225
C          -10.58326676311650       -3.85940693313592       -2.75155581797492
C           -9.20413628438761       -3.88702933924421       -2.84706585940450
C           -8.41246110780686       -3.19396235687859       -1.92977458270410
C           -6.98907514190317       -3.19895449316059       -1.99623494330936
C           -6.23838338053835       -2.51548699381883       -1.10156518489278
C           -6.84036445656880       -1.76503227363722       -0.04936105465657
C           -8.25394502261209       -1.74897350126766        0.04920160481898
C           -9.03792448755669       -2.45921648543064       -0.89297366079767
N           -3.78160363537496       -1.85965293730327        0.61229045644916
C           -2.55520231203741       -1.27607187668119        0.51457645542338
C           -1.29046927465145       -1.91546711813393        0.41360173044346
C           -1.17219783164697       -3.30990296770086        0.40914271934863
C            0.06123684205974       -3.90392023381069        0.35158269681089
C            1.21773511426021       -3.11350435421923        0.29451558629969
C            2.54898316012287       -3.73263235829825        0.24335343024259
C            2.85477894951379       -4.83899176485861        1.03340925142441
C            4.11553489867519       -5.40022516459759        1.01103065297746
C            5.10050124319536       -4.87550447560205        0.17856017559870
N            6.38449007057310       -5.43431359086972        0.15607673688106
C            6.68478751892729       -6.77384717112384        0.00819725622917
C            5.83683787636431       -7.85291491700646       -0.19649657683548
C            6.40710503462598       -9.10300755034836       -0.34145600216900
C            7.78775800172281       -9.28327164562139       -0.29426210163493
C            8.63770772210141       -8.21032628761080       -0.11570619224649
C            8.08829335178801       -6.94371363330484        0.03259471942034
C            8.65475998464937       -5.63614221060305        0.20995728839187
C            9.95652477222415       -5.16659678513816        0.32541497803203
C           10.15773612791592       -3.81425308977931        0.51556944537773
C            9.08021178384829       -2.93604092084728        0.60706491552155
C            7.77634248522262       -3.37917945102110        0.49545555747904
C            7.56846053454307       -4.73388057122053        0.27845676497644
C            4.79841424000140       -3.78333367309580       -0.63050028470934
C            3.54101564481221       -3.21740420453928       -0.58941099997503
C            1.09860868217658       -1.73500163213429        0.29153775432925
C           -0.14345059336299       -1.09204779860557        0.34371435739763
C           -0.28044129972263        0.35404605870449        0.30289577099907
C            0.83063275224011        1.18949525911624        0.15157303754003
C            0.72610422861025        2.56568808127628        0.06065317979748
C            1.93160924096717        3.39095158540717       -0.08464662310939
C            2.05884713877747        4.59604155690167        0.60356670816294
C            3.20593013282153        5.35601396399186        0.49793708825890
C            4.25214370275953        4.93431786554973       -0.31842771540160
N            5.42257891251409        5.69503072766145       -0.42333988307104
C            5.49031325388108        7.04993586502257       -0.68195329422199
C            4.46966608961500        7.95199566064913       -0.94597079861531
C            4.81865338652502        9.26403198882059       -1.20268636857367
C            6.14955569783785        9.67559242369162       -1.20765677890530
C            7.17082925017026        8.77758563209094       -0.97060002254942
C            6.84513984125737        7.45319325928667       -0.70988753231359
C            7.62679357014714        6.27721495922103       -0.44821777115772
C            8.99068848990092        6.04326844027935       -0.33246685457161
C            9.42032189039742        4.76354496224169       -0.04392276982537
C            8.50824603732711        3.72763634514577        0.14457036174094
C            7.14672942004347        3.93572227678670        0.03478069077949
C            6.70985482253065        5.21441001549924       -0.28050374212021
C            4.12521658781686        3.74257522571445       -1.02758996200772
C            2.98243360554076        2.98015578501478       -0.90337176505297
C           -0.54588110875397        3.14894960481029        0.10080459126319
C           -1.65969691697056        2.36488325729142        0.25403157964880
C           -1.55821143649080        0.97181722052916        0.38378585099086
C           -2.67632822937381        0.11158178614283        0.55634044685256
C           -5.77003446538206        1.91491780174945        0.02419197717091
C           -6.06409260062639        1.18341459905549       -1.14558983751348
C           -7.15119091665302        1.50106310826041       -1.91023772454825
C           -7.98045085233848        2.57437066888278       -1.55441482629390
C           -7.68784322476383        3.33992446907480       -0.45989283297674
C           -6.57495926325731        3.03648621035165        0.34933945654227
H           -4.89841982997192        4.09693998087784        3.12932399894223
H           -3.57758849464285        2.06987171389423        2.63322182554034
H           -6.14395407171494        0.20881148153349        2.62928676179868
H           -8.58310891283159        0.20959267676131        2.81170237067556
H          -10.78316815699388       -0.44451473130275        1.93953705819250
H          -12.14110349006650       -1.67839807410600        0.30267958369213
H          -12.28219902079939       -3.12534648784525       -1.67703640056145
H          -11.18119422629696       -4.40200357804749       -3.46939083793644
H           -8.72585645030123       -4.44929804770339       -3.63625653951306
H           -6.51881537728269       -3.76782521116226       -2.78586193084912
H           -5.16098826865529       -2.54379124967391       -1.15332753028868
H           -2.07840837125782       -3.89358191270037        0.45829172976053
H            0.14956476673355       -4.98001843433253        0.33337910659550
H            2.10472528050131       -5.24201673618641        1.69786310668498
H            4.35153294698652       -6.23576593489634        1.65303650931635
H            4.76674492080955       -7.72152269070810       -0.25326196079038
H            5.76796099611257       -9.95946095947272       -0.49859388034318
H            8.19426703297625      -10.27713950673593       -0.40888600420344
H            9.70844847092637       -8.34711127673486       -0.09544745296150
H           10.79051742147350       -5.85001240720079        0.27135761943543
H           11.16223043228512       -3.42802129863962        0.60496672128401
H            9.26798974204238       -1.88531894254438        0.77284808585976
H            6.94792616045023       -2.69291437208544        0.58715523286278
H            5.55101364727249       -3.39318745818273       -1.29949458730607
H            3.31378270877835       -2.38086630241917       -1.23402232170374
H            2.00847239293315       -1.15653235667462        0.27529128689340
H            1.81903514129963        0.76122852147144        0.11689895522025
H            1.26261861053934        4.92345593732449        1.25588778046668
H            3.30761187834585        6.27040258939087        1.06313810400044
H            3.43631872941946        7.63968811864243       -0.96320901082032
H            4.04192599959632        9.98604815140474       -1.40779088121616
H            6.38085214821775       10.71082818098694       -1.40982780367246
H            8.20330239528997        9.09240782401971       -0.99085865005878
H            9.69616030591431        6.85014522448094       -0.46176373250827
H           10.47676811650077        4.55955424715625        0.04774782616055
H            8.87317547505661        2.74007624427852        0.38583358270361
H            6.44787660331547        3.12997732236235        0.20208637376925
H            4.92161282500072        3.42843347884144       -1.68566355742556
H            2.88936589112795        2.06673493281580       -1.47236197704277
H           -0.65018538721882        4.21742057213994       -0.01579506440792
H           -2.63452635450787        2.82774449085459        0.25315216654182
H           -5.41686972014639        0.37132922327995       -1.43995672494667
H           -7.37447431424476        0.92550066743510       -2.79573599399026
H           -8.84260427132260        2.80379947300070       -2.16195183668009
H           -8.30402862744248        4.18723182654195       -0.19625652641489

          :  Hamiltonian                  GFN2-xTB          :
         :: gradient norm              0.000108674217 Eh/a0 ::
         :: HOMO-LUMO gap              1.524856541250 eV    ::
         :: SCC energy              -208.688020678433 Eh    ::
         :: -> dispersion             -0.200104711358 Eh    ::
         :: repulsion energy           3.944132967176 Eh    ::

    * Orbital Energies and Occupations

         #    Occupation            Energy/Eh            Energy/eV
      -------------------------------------------------------------
         1        2.0000           -0.6981397             -18.9973
       ...           ...                  ...                  ...
       179        2.0000           -0.4041784             -10.9983
       180        2.0000           -0.4039133             -10.9910
       181        2.0000           -0.4026429             -10.9565
       182        2.0000           -0.3996235             -10.8743
       183        2.0000           -0.3979953             -10.8300
       184        2.0000           -0.3884511             -10.5703
       185        2.0000           -0.3864630             -10.5162
       186        2.0000           -0.3781883             -10.2910
       187        2.0000           -0.3773535             -10.2683
       188        2.0000           -0.3760617             -10.2332
       189        2.0000           -0.3680860             -10.0161
       190        2.0000           -0.3608612              -9.8195
       191        2.0000           -0.3587049              -9.7609 (HOMO)
       192                         -0.3026675              -8.2360 (LUMO)
       193                         -0.2886293              -7.8540
       194                         -0.2677438              -7.2857
       195                         -0.2593668              -7.0577
       196                         -0.2573782              -7.0036
       197                         -0.2518640              -6.8536
       198                         -0.2491420              -6.7795
       199                         -0.2435812              -6.6282
       200                         -0.2412083              -6.5636
       201                         -0.2391671              -6.5081
       202                         -0.2342762              -6.3750
       ...                                ...                  ...
       377                          1.1619736              31.6189
      -------------------------------------------------------------
                  HL-Gap            0.0560374 Eh            1.5249 eV

     #   Z          covCN         q      C6AA      α(0)
     1   7 N        0.911    -0.234    26.130     7.393
     2   6 C        1.913     0.114    28.295     8.591
     3   6 C        2.971     0.009    27.810     8.650
     4   6 C        2.926    -0.021    28.535     8.760
     5   6 C        2.918    -0.040    28.990     8.829
     6   6 C        2.909     0.068    26.480     8.438
     7   7 N        2.843    -0.045    22.110     6.984
     8   6 C        3.185     0.134    24.657     8.103
     9   6 C        2.972    -0.008    28.211     8.712
    10   6 C        2.920    -0.035    28.860     8.810
    11   6 C        2.919    -0.038    28.950     8.823
    12   6 C        2.983     0.012    27.741     8.640
    13   6 C        2.913    -0.036    28.885     8.813
    14   6 C        2.914    -0.034    28.850     8.808
    15   6 C        2.982     0.012    27.730     8.638
    16   6 C        2.920    -0.036    28.884     8.813
    17   6 C        2.913    -0.029    28.731     8.790
    18   6 C        2.920    -0.035    28.880     8.813
    19   6 C        2.982     0.013    27.726     8.637
    20   6 C        2.914    -0.034    28.852     8.808
    21   6 C        2.912    -0.035    28.881     8.812
    22   6 C        2.984     0.014    27.700     8.633
    23   6 C        2.996     0.004    27.932     8.670
    24   6 C        2.998     0.004    27.926     8.669
    25   7 N        1.892    -0.287    28.282     7.884
    26   6 C        3.206     0.057    26.132     8.325
    27   6 C        2.986     0.001    27.989     8.678
    28   6 C        2.919    -0.031    28.785     8.798
    29   6 C        2.921    -0.034    28.851     8.808
    30   6 C        2.975     0.007    27.852     8.657
    31   6 C        2.977     0.007    27.863     8.659
    32   6 C        2.925    -0.033    28.828     8.805
    33   6 C        2.920    -0.043    29.079     8.843
    34   6 C        2.913     0.062    26.602     8.458
    35   7 N        2.802    -0.044    22.084     6.980
    36   6 C        3.076     0.047    26.874     8.499
    37   6 C        2.910    -0.051    29.265     8.871
    38   6 C        2.924    -0.034    28.836     8.806
    39   6 C        2.920    -0.041    29.019     8.834
    40   6 C        2.913    -0.033    28.819     8.803
    41   6 C        3.068    -0.017    28.367     8.733
    42   6 C        3.068    -0.017    28.365     8.733
    43   6 C        2.913    -0.033    28.819     8.803
    44   6 C        2.920    -0.041    29.019     8.834
    45   6 C        2.924    -0.034    28.837     8.806
    46   6 C        2.910    -0.051    29.265     8.871
    47   6 C        3.076     0.047    26.876     8.500
    48   6 C        2.920    -0.044    29.086     8.844
    49   6 C        2.925    -0.034    28.848     8.808
    50   6 C        2.929    -0.040    29.002     8.832
    51   6 C        2.978    -0.001    28.056     8.689
    52   6 C        2.979     0.002    27.978     8.676
    53   6 C        2.929    -0.039    28.982     8.829
    54   6 C        2.974     0.007    27.857     8.658
    55   6 C        2.977     0.006    27.881     8.661
    56   6 C        2.925    -0.033    28.825     8.805
    57   6 C        2.920    -0.043    29.079     8.843
    58   6 C        2.913     0.063    26.586     8.455
    59   7 N        2.802    -0.044    22.085     6.980
    60   6 C        3.075     0.047    26.877     8.500
    61   6 C        2.910    -0.051    29.265     8.871
    62   6 C        2.924    -0.033    28.834     8.806
    63   6 C        2.920    -0.041    29.014     8.833
    64   6 C        2.913    -0.033    28.816     8.802
    65   6 C        3.068    -0.017    28.362     8.733
    66   6 C        3.068    -0.017    28.361     8.732
    67   6 C        2.913    -0.033    28.816     8.802
    68   6 C        2.920    -0.041    29.013     8.833
    69   6 C        2.924    -0.033    28.832     8.806
    70   6 C        2.910    -0.051    29.264     8.870
    71   6 C        3.076     0.047    26.878     8.500
    72   6 C        2.921    -0.043    29.079     8.843
    73   6 C        2.925    -0.034    28.843     8.807
    74   6 C        2.921    -0.036    28.888     8.814
    75   6 C        2.917    -0.040    28.986     8.829
    76   6 C        2.979    -0.004    28.118     8.698
    77   6 C        3.067     0.020    27.494     8.598
    78   6 C        2.986     0.004    27.930     8.669
    79   6 C        2.918    -0.028    28.709     8.786
    80   6 C        2.916    -0.024    28.603     8.770
    81   6 C        2.917    -0.022    28.566     8.764
    82   6 C        2.918    -0.031    28.770     8.796
    83   6 C        2.992     0.019    27.582     8.615
    84   1 H        0.926     0.048     2.344     2.394
    85   1 H        0.926     0.047     2.355     2.400
    86   1 H        0.926     0.024     2.673     2.557
    87   1 H        0.926     0.034     2.534     2.489
    88   1 H        0.926     0.034     2.533     2.489
    89   1 H        0.926     0.035     2.521     2.483
    90   1 H        0.926     0.033     2.539     2.492
    91   1 H        0.926     0.033     2.548     2.496
    92   1 H        0.926     0.034     2.533     2.489
    93   1 H        0.926     0.035     2.512     2.478
    94   1 H        0.926     0.050     2.323     2.383
    95   1 H        0.926     0.052     2.292     2.367
    96   1 H        0.926     0.034     2.531     2.488
    97   1 H        0.926     0.038     2.475     2.460
    98   1 H        0.926     0.040     2.443     2.444
    99   1 H        0.926     0.027     2.629     2.535
   100   1 H        0.926     0.028     2.610     2.526
   101   1 H        0.926     0.027     2.624     2.533
   102   1 H        0.926     0.030     2.581     2.512
   103   1 H        0.926     0.030     2.580     2.512
   104   1 H        0.926     0.027     2.623     2.532
   105   1 H        0.926     0.028     2.615     2.529
   106   1 H        0.926     0.026     2.639     2.540
   107   1 H        0.926     0.040     2.449     2.447
   108   1 H        0.926     0.035     2.512     2.478
   109   1 H        0.926     0.034     2.531     2.488
   110   1 H        0.926     0.038     2.481     2.463
   111   1 H        0.926     0.036     2.497     2.471
   112   1 H        0.926     0.041     2.437     2.441
   113   1 H        0.926     0.027     2.636     2.539
   114   1 H        0.926     0.029     2.606     2.525
   115   1 H        0.926     0.028     2.617     2.530
   116   1 H        0.926     0.031     2.575     2.509
   117   1 H        0.926     0.031     2.575     2.509
   118   1 H        0.926     0.028     2.615     2.529
   119   1 H        0.926     0.029     2.606     2.524
   120   1 H        0.926     0.026     2.637     2.539
   121   1 H        0.926     0.041     2.436     2.441
   122   1 H        0.926     0.036     2.499     2.472
   123   1 H        0.926     0.031     2.574     2.509
   124   1 H        0.926     0.024     2.674     2.557
   125   1 H        0.926     0.039     2.457     2.451
   126   1 H        0.926     0.040     2.446     2.446
   127   1 H        0.926     0.043     2.410     2.427
   128   1 H        0.926     0.047     2.358     2.401

molecular dipole:
                 x           y           z       tot (Debye)
 q only:       -1.134      -0.594      -0.636
   full:       -0.972      -0.533      -0.655       3.271

 projected vibrational frequencies (cm⁻¹)
eigval :       -0.00    -0.00     0.00     0.00     0.00     0.00
eigval :        5.27     7.17     8.69    10.08    11.45    12.16
eigval :       14.82    21.04    23.28    27.19    31.01    33.02
eigval :       45.17    48.65    52.04    66.20    74.19    74.27
eigval :       79.86    85.64    91.58    99.62   102.58   104.58
eigval :      108.70   113.20   116.55   119.12   126.32   130.54
eigval :      145.15   145.20   148.06   153.81   162.22   183.77
eigval :      187.37   194.25   196.48   200.53   204.03   227.05
eigval :      230.50   232.95   246.36   251.53   260.33   269.13
eigval :      271.98   272.11   279.81   290.22   299.56   324.92
eigval :      342.99   355.11   357.67   366.93   371.64   382.73
eigval :      384.37   387.53   391.65   392.71   393.57   398.05
eigval :      401.56   404.14   409.20   412.63   421.54   423.31
eigval :      423.43   428.22   433.23   433.84   438.92   440.06
eigval :      449.03   450.82   452.75   469.82   470.60   477.66
eigval :      484.91   495.53   502.41   507.06   508.85   511.99
eigval :      518.71   519.18   523.73   527.46   534.89   535.02
eigval :      541.19   541.22   546.31   562.17   568.27   579.81
eigval :      581.22   583.93   588.27   592.27   596.38   597.34
eigval :      603.31   606.86   609.54   615.40   618.96   635.58
eigval :      637.71   644.76   648.33   657.71   659.76   669.76
eigval :      673.97   674.13   679.95   683.02   686.67   694.28
eigval :      695.87   698.66   702.21   703.48   708.12   709.46
eigval :      712.94   725.79   730.01   734.42   744.85   755.70
eigval :      757.08   757.46   769.30   769.74   774.27   775.81
eigval :      780.47   780.79   780.92   781.65   801.85   810.88
eigval :      813.46   819.73   825.74   833.58   837.67   838.63
eigval :      843.90   851.51   860.05   866.21   866.98   868.04
eigval :      873.15   873.53   875.29   880.57   883.12   883.48
eigval :      887.66   898.16   898.38   902.32   902.49   902.72
eigval :      902.95   912.04   915.88   917.49   918.60   919.22
eigval :      920.43   920.87   920.94   921.61   922.59   923.12
eigval :      923.78   927.20   927.53   927.73   928.06   932.51
eigval :      934.87   935.38   940.70   954.60   996.27  1001.92
eigval :     1011.56  1012.16  1012.19  1016.18  1026.22  1039.44
eigval :     1070.42  1070.54  1073.99  1074.15  1078.25  1084.40
eigval :     1084.85  1100.38  1110.46  1112.39  1118.17  1118.41
eigval :     1127.95  1136.57  1137.96  1152.39  1152.99  1154.50
eigval :     1159.53  1165.80  1174.01  1176.64  1177.09  1177.55
eigval :     1179.39  1181.17  1181.66  1183.76  1184.78  1187.26
eigval :     1190.63  1198.54  1203.24  1204.69  1209.33  1213.05
eigval :     1224.87  1226.96  1234.90  1236.80  1237.05  1237.67
eigval :     1244.62  1245.65  1248.28  1253.46  1262.94  1266.98
eigval :     1269.09  1280.52  1283.62  1289.65  1297.49  1301.60
eigval :     1302.48  1303.44  1304.12  1306.74  1315.62  1316.01
eigval :     1316.70  1325.88  1328.05  1337.65  1345.03  1354.71
eigval :     1357.70  1357.83  1360.40  1362.39  1362.55  1368.38
eigval :     1369.49  1382.98  1388.42  1389.37  1393.10  1398.93
eigval :     1401.13  1408.53  1413.24  1414.24  1416.88  1418.45
eigval :     1426.48  1428.53  1428.62  1432.18  1437.58  1442.19
eigval :     1450.46  1455.63  1476.42  1476.62  1487.46  1488.62
eigval :     1488.73  1492.67  1493.41  1497.21  1501.89  1503.86
eigval :     1523.73  1539.04  1541.48  1554.22  1559.12  1560.92
eigval :     1562.37  1563.16  1566.26  1573.69  1575.38  1575.53
eigval :     1578.73  1585.35  1589.22  1589.49  1592.65  1599.26
eigval :     1599.42  1599.95  1602.96  1603.88  1606.19  1607.47
eigval :     1615.28  1615.51  2365.60  3067.99  3070.95  3072.87
eigval :     3073.54  3075.34  3075.82  3075.90  3076.22  3077.80
eigval :     3078.27  3079.15  3080.71  3080.83  3081.11  3081.18
eigval :     3081.52  3082.17  3082.40  3084.31  3084.76  3084.78
eigval :     3085.65  3086.61  3087.78  3088.05  3088.32  3088.73
eigval :     3089.44  3089.76  3092.39  3093.53  3094.47  3094.77
eigval :     3094.85  3095.22  3096.42  3096.60  3096.82  3097.41
eigval :     3097.68  3102.48  3102.88  3103.32  3103.90  3112.65

   temp. (K)  partition function   enthalpy   heat capacity  entropy
                                   cal/mol     cal/K/mol   cal/K/mol   J/K/mol
 298.15  VIB  0.757E+31            37512.256    238.146    234.989
         ROT  0.624E+09              888.752      2.981     43.225
         INT  0.472E+40            38401.009    241.127    278.214
         TR   0.330E+29             1481.254      4.968     46.712
         TOT                       39882.2626   246.0949   324.9259  1359.4899

       T/K    H(0)-H(T)+PV         H(T)/Eh          T*S/Eh         G(T)/Eh
   ------------------------------------------------------------------------
    298.15    0.635564E-01    0.103200E+01    0.154383E+00    0.877619E+00
   ------------------------------------------------------------------------

         :::::::::::::::::::::::::::::::::::::::::::::::::::::
         ::                  THERMODYNAMIC                  ::
         :::::::::::::::::::::::::::::::::::::::::::::::::::::
         :: total free energy        -203.866268958077 Eh   ::
         ::.................................................::
         :: total energy             -204.743887711249 Eh   ::
         :: zero point energy           0.968445099512 Eh   ::
         :: G(RRHO) w/o ZPVE           -0.090826346341 Eh   ::
         :: G(RRHO) contrib.            0.877618753171 Eh   ::
         :::::::::::::::::::::::::::::::::::::::::::::::::::::

           -------------------------------------------------
          | TOTAL ENERGY             -204.743887711249 Eh   |
          | TOTAL ENTHALPY           -203.711886180710 Eh   |
          | TOTAL FREE ENERGY        -203.866268958077 Eh   |
          | GRADIENT NORM               0.000108723632 Eh/α |
          | HOMO-LUMO GAP               1.524854992295 eV   |
           -------------------------------------------------

 * finished run on 2025/09/12 at 15:33:36.918
