   * xtb version 6.7.1 (edcfbbe) compiled by 'albert@albert-system' on 2024-07-22

   ID    Z sym.   atoms
    1    6 C      1-22, 24-26, 28-32, 34, 35, 37-41, 43-45, 47-72
    2    7 N      23, 27, 33, 36, 42, 46
    3    1 H      73-112

          program call               : xtb data2507/gas/DDPhCz-DPPZ/DDPhCz-DPPZ.xyz --gfn 2 --ohess vtight --parallel 40 --molden --ceasefiles --namespace data2507/gas/DDPhCz-DPPZ/DDPhCz-DPPZ_gas_S0_preOpt
          :  Hamiltonian                  GFN2-xTB          :
 * total energy  :  -179.3324777 Eh     change       -0.5233545E-08 Eh
 * total energy  :  -179.3596727 Eh     change       -0.2719505E-01 Eh
 * total energy  :  -179.3672844 Eh     change       -0.7611621E-02 Eh
 * total energy  :  -179.3697003 Eh     change       -0.2415941E-02 Eh
 * total energy  :  -179.3713006 Eh     change       -0.1600337E-02 Eh
 * total energy  :  -179.3719251 Eh     change       -0.6244780E-03 Eh
 * total energy  :  -179.3723831 Eh     change       -0.4580170E-03 Eh
 * total energy  :  -179.3728605 Eh     change       -0.4773902E-03 Eh
 * total energy  :  -179.3732996 Eh     change       -0.4390322E-03 Eh
 * total energy  :  -179.3736334 Eh     change       -0.3338084E-03 Eh
 * total energy  :  -179.3805556 Eh     change       -0.1825669E-06 Eh
 * total energy  :  -179.3805558 Eh     change       -0.1755854E-06 Eh
 * total energy  :  -179.3805560 Eh     change       -0.1761281E-06 Eh
 * total energy  :  -179.3805562 Eh     change       -0.1877079E-06 Eh
 * total energy  :  -179.3805564 Eh     change       -0.1984926E-06 Eh
 * total energy  :  -179.3805565 Eh     change       -0.1701242E-06 Eh
 * total energy  :  -179.3805567 Eh     change       -0.1352730E-06 Eh
 * total energy  :  -179.3805568 Eh     change       -0.1030297E-06 Eh
 * total energy  :  -179.3805569 Eh     change       -0.8729745E-07 Eh
   *** GEOMETRY OPTIMIZATION CONVERGED AFTER 147 ITERATIONS ***

 final structure:
================
112
 xtb: 6.7.1 (edcfbbe)
C            6.83595431340142        2.21804742391892       -2.38622611467554
C            5.82264852337649        2.55770182299605       -3.26689029327648
C            4.56256172139762        2.00672354346607       -3.12491001423597
C            4.29595027493330        1.10110313207008       -2.10127195262730
C            2.95941601321113        0.51901370119166       -1.91532168508445
C            1.81394982064980        1.30757329389214       -2.07959163775747
C            0.55186344862033        0.83278422689439       -1.78410644091200
C            0.44738993455726       -0.45563694849858       -1.28416002193667
C            1.57104327469464       -1.30865891031152       -1.24580368382022
C            2.82822935551024       -0.81418766881231       -1.54435531984833
C            1.09591486211756       -2.58752362451337       -0.79341767369113
C            1.72251650072670       -3.80112040941509       -0.56254119977858
C            0.97993928793888       -4.86502805135241       -0.06574273568817
C            1.61948882285638       -6.16537431379459        0.18699761747726
C            0.98125160911409       -7.35160492853247       -0.16748890033937
C            1.58452368668523       -8.57324505916702        0.06575244308793
C            2.83306539949543       -8.63140584808870        0.66194975307351
C            3.47552274765917       -7.45874539114471        1.02172237754728
C            2.87583746554444       -6.23620710451082        0.78437584418457
C           -0.38321712753392       -4.68980935680730        0.20292750140621
C           -1.02710245305833       -3.48900851548929       -0.02120083794864
C           -0.28470977140410       -2.43875119315445       -0.53772431795933
N           -0.66779092161656       -1.13649382365583       -0.82556229704989
C           -1.87040405402567       -0.55866562697584       -0.40728110966042
C           -3.05965247959547       -1.11701828160880       -0.80337999690985
C           -4.29024162796434       -0.57196862598314       -0.39237289431071
N           -5.43769671239194       -1.13404003497398       -0.79423591749199
C           -6.56755215694368       -0.58011129893031       -0.39416195556179
C           -7.82115918147247       -1.16490973209604       -0.81159902485333
C           -7.86023435385087       -2.29983290157456       -1.62838564880601
C           -9.08285256776245       -2.81619355478004       -1.99587408643765
C          -10.23425085359708       -2.17740810194014       -1.53237260686000
N          -10.21828742147164       -1.11277799302043       -0.76600300297978
C           -9.04459542567759       -0.59955274707502       -0.40041729574627
C           -9.04871133102495        0.58074531389802        0.44971614072636
N          -10.22599048601143        1.08487093037284        0.81642867957686
C          -10.24943202787339        2.14895476412513        1.58336957584498
C           -9.10254570737892        2.79613399680705        2.04642245696684
C           -7.87631335681110        2.28938871816945        1.67757795173463
C           -7.82926309314752        1.15530305975892        0.86003317940144
C           -6.57158716653613        0.58021230034070        0.44136211664927
N           -5.44557163482402        1.14258247155988        0.84058404314579
C           -4.29428145433601        0.58862905899532        0.43862559508608
C           -3.06720615495015        1.14150551696124        0.85005132763024
C           -1.87471996685383        0.58908955117536        0.45612439636958
N           -0.67477422069345        1.17131270224443        0.87677231741408
C            0.43889770867822        0.48907852511889        1.33483157599538
C            0.53549847647455       -0.79529030194948        1.84733418367923
C            1.79423015860510       -1.27199674130000        2.14969636780521
C            2.94344644412426       -0.48722827959795        1.98687703639286
C            4.27382253042317       -1.07674396251723        2.19119476248833
C            5.30154390504285       -0.36437583170652        2.80411218411563
C            6.55694477650144       -0.92565125119113        2.94834348967759
C            6.80870471727218       -2.20388157349937        2.47882189705199
C            5.79449395648594       -2.92126303674049        1.86613035269811
C            4.53828130434928       -2.36313505046559        1.72523310933466
C            2.82141447569961        0.83990989276322        1.59381590386260
C            1.56799674479585        1.33328967672797        1.27718690254301
C            1.10151061564581        2.60563373625776        0.79823792196207
C            1.74108414265973        3.80112925101779        0.51652474643777
C            1.00358035897639        4.85875453171726       -0.00146922080112
C            1.65813521579985        6.13761502689305       -0.31583481597322
C            2.60750972383965        6.67869849007085        0.54811242413216
C            3.22130566497271        7.88226994858051        0.25619690307395
C            2.90139189675054        8.56384178183252       -0.90605684844706
C            1.96249539300348        8.03338892783593       -1.77471366393788
C            1.34452540353362        6.83202627805580       -1.48197781829279
C           -0.36812860557171        4.69701094628959       -0.23317192540207
C           -1.02471128182252        3.51365426367500        0.04125325698727
C           -0.28445140338131        2.46647904006769        0.56650268662025
C            5.32436180827432        0.76390348407080       -1.22222041736122
C            6.58184380153782        1.31957952453622       -1.36319465589770
H            7.81898057553925        2.65163622447796       -2.49696914684861
H            6.01616590606203        3.25486719322830       -4.06939747990931
H            3.78207059962615        2.26480282726952       -3.82590570547063
H            1.92271734244600        2.33060654096944       -2.40702992290723
H           -0.31815287198756        1.45930145145761       -1.91304614892969
H            3.69515807911189       -1.45436438627287       -1.48602843914474
H            2.77086483995964       -3.92360339831204       -0.79036772802679
H            0.01431031909893       -7.31193433881915       -0.64802930272240
H            1.07983448981351       -9.48467063265427       -0.22062462875075
H            3.30289187111441       -9.58633049407299        0.84570028021076
H            4.44740189791281       -7.49780196186293        1.49233428811013
H            3.37648053150827       -5.32737795287279        1.08504091814752
H           -0.94217620810278       -5.51517246325120        0.61845657577994
H           -2.07483733574334       -3.37664245243799        0.21445637537570
H           -3.07157659407693       -1.96863132740605       -1.46566460716923
H           -6.92859651649207       -2.74058684559782       -1.94912363552993
H           -9.15544607248006       -3.69005139165123       -2.62463873890289
H          -11.21738785910833       -2.54646489018293       -1.79497508919609
H          -11.23513987032148        2.51045021481209        1.84686730455033
H           -9.18124616136197        3.66894838073625        2.67589512604444
H           -6.94782515314066        2.73706566206675        1.99786217535103
H           -3.08437235103226        1.99371361688176        1.51147349000672
H           -0.33876036702634       -1.41349638679096        1.98778729736032
H            1.89477011155743       -2.27842804566166        2.52783007926489
H            5.10910257834119        0.62815400676993        3.18482815723968
H            7.34372587637629       -0.36346224531407        3.43047283522601
H            7.79092440236676       -2.63916431902239        2.58931490303846
H            5.98734583050037       -3.91732353869590        1.49331298938289
H            3.75001608255090       -2.91109306204500        1.23002529483651
H            3.69326690140935        1.46744879128526        1.48982225308081
H            2.80597534195630        3.89560551851849        0.66564537868773
H            2.84853513272192        6.15964707900005        1.46453828229119
H            3.95078434923632        8.29272568381556        0.93945199958035
H            3.38162372894037        9.50397934726816       -1.13397141105804
H            1.71225175284514        8.55801878652134       -2.68559478511816
H            0.62528613975801        6.41597943002126       -2.17279073464296
H           -0.93249324389428        5.53018810820632       -0.62503905887057
H           -2.08042826386975        3.41235903158529       -0.16136190058834
H            5.12955817252214        0.07649859360504       -0.41137105037848
H            7.36574972904904        1.05150486534592       -0.66934647923815

          :  Hamiltonian                  GFN2-xTB          :
         :: gradient norm              0.000024392959 Eh/a0 ::
         :: HOMO-LUMO gap              1.306661811746 eV    ::
         :: SCC energy              -182.731653988582 Eh    ::
         :: -> dispersion             -0.184856628784 Eh    ::
         :: repulsion energy           3.351097137290 Eh    ::

    * Orbital Energies and Occupations

         #    Occupation            Energy/Eh            Energy/eV
      -------------------------------------------------------------
         1        2.0000           -0.6916559             -18.8209
       ...           ...                  ...                  ...
       155        2.0000           -0.4033433             -10.9755
       156        2.0000           -0.4015829             -10.9276
       157        2.0000           -0.4006120             -10.9012
       158        2.0000           -0.3994452             -10.8695
       159        2.0000           -0.3943745             -10.7315
       160        2.0000           -0.3924623             -10.6794
       161        2.0000           -0.3837089             -10.4412
       162        2.0000           -0.3769440             -10.2572
       163        2.0000           -0.3692892             -10.0489
       164        2.0000           -0.3682370             -10.0202
       165        2.0000           -0.3657688              -9.9531
       166        2.0000           -0.3646173              -9.9217
       167        2.0000           -0.3617961              -9.8450 (HOMO)
       168                         -0.3137772              -8.5383 (LUMO)
       169                         -0.2827257              -7.6934
       170                         -0.2751007              -7.4859
       171                         -0.2533381              -6.8937
       172                         -0.2492299              -6.7819
       173                         -0.2480770              -6.7505
       174                         -0.2446896              -6.6583
       175                         -0.2423364              -6.5943
       176                         -0.2413322              -6.5670
       177                         -0.2337178              -6.3598
       178                         -0.2294845              -6.2446
       ...                                ...                  ...
       328                          0.7463895              20.3103
      -------------------------------------------------------------
                  HL-Gap            0.0480190 Eh            1.3067 eV

     #   Z          covCN         q      C6AA      α(0)
     1   6 C        2.920    -0.032    28.790     8.799
     2   6 C        2.919    -0.030    28.744     8.792
     3   6 C        2.924    -0.034    28.848     8.808
     4   6 C        2.978     0.011    27.759     8.642
     5   6 C        2.978     0.002    27.980     8.677
     6   6 C        2.930    -0.035    28.872     8.812
     7   6 C        2.909    -0.047    29.179     8.857
     8   6 C        3.077     0.048    26.854     8.496
     9   6 C        3.064    -0.016    28.337     8.729
    10   6 C        2.919    -0.036    28.896     8.815
    11   6 C        3.066    -0.014    28.290     8.722
    12   6 C        2.918    -0.036    28.906     8.817
    13   6 C        2.977     0.001    27.999     8.680
    14   6 C        2.977     0.010    27.777     8.645
    15   6 C        2.925    -0.034    28.857     8.809
    16   6 C        2.919    -0.030    28.739     8.791
    17   6 C        2.920    -0.032    28.786     8.798
    18   6 C        2.919    -0.030    28.738     8.791
    19   6 C        2.925    -0.034    28.852     8.809
    20   6 C        2.929    -0.037    28.919     8.819
    21   6 C        2.908    -0.051    29.259     8.870
    22   6 C        3.074     0.047    26.860     8.497
    23   7 N        2.799    -0.045    22.112     6.984
    24   6 C        2.907     0.057    26.711     8.474
    25   6 C        2.922    -0.058    29.436     8.897
    26   6 C        2.967     0.079    26.224     8.400
    27   7 N        1.848    -0.236    27.029     7.705
    28   6 C        2.961     0.082    26.179     8.392
    29   6 C        2.983    -0.012    28.300     8.726
    30   6 C        2.928    -0.010    28.275     8.720
    31   6 C        2.912    -0.038    28.939     8.821
    32   6 C        2.907     0.064    26.576     8.453
    33   7 N        1.841    -0.199    26.156     7.579
    34   6 C        2.971     0.085    26.107     8.381
    35   6 C        2.971     0.085    26.107     8.381
    36   7 N        1.841    -0.199    26.156     7.579
    37   6 C        2.907     0.064    26.576     8.453
    38   6 C        2.912    -0.038    28.938     8.821
    39   6 C        2.928    -0.010    28.274     8.720
    40   6 C        2.983    -0.012    28.300     8.726
    41   6 C        2.961     0.082    26.180     8.392
    42   7 N        1.848    -0.236    27.027     7.705
    43   6 C        2.967     0.079    26.223     8.400
    44   6 C        2.922    -0.058    29.432     8.897
    45   6 C        2.908     0.058    26.709     8.474
    46   7 N        2.799    -0.046    22.123     6.986
    47   6 C        3.078     0.048    26.841     8.494
    48   6 C        2.909    -0.047    29.173     8.857
    49   6 C        2.930    -0.035    28.883     8.814
    50   6 C        2.978     0.001    27.995     8.679
    51   6 C        2.978     0.011    27.769     8.644
    52   6 C        2.924    -0.034    28.842     8.807
    53   6 C        2.919    -0.029    28.734     8.790
    54   6 C        2.920    -0.032    28.792     8.799
    55   6 C        2.918    -0.029    28.732     8.790
    56   6 C        2.927    -0.035    28.864     8.811
    57   6 C        2.919    -0.036    28.890     8.814
    58   6 C        3.065    -0.016    28.340     8.730
    59   6 C        3.066    -0.014    28.288     8.721
    60   6 C        2.918    -0.036    28.888     8.814
    61   6 C        2.977     0.001    27.989     8.678
    62   6 C        2.977     0.011    27.773     8.645
    63   6 C        2.925    -0.034    28.850     8.808
    64   6 C        2.918    -0.029    28.737     8.791
    65   6 C        2.920    -0.032    28.786     8.798
    66   6 C        2.918    -0.030    28.744     8.792
    67   6 C        2.925    -0.034    28.858     8.810
    68   6 C        2.929    -0.037    28.918     8.819
    69   6 C        2.908    -0.051    29.269     8.871
    70   6 C        3.075     0.048    26.853     8.496
    71   6 C        2.926    -0.034    28.842     8.807
    72   6 C        2.918    -0.030    28.739     8.791
    73   1 H        0.926     0.029     2.605     2.524
    74   1 H        0.926     0.029     2.603     2.523
    75   1 H        0.926     0.030     2.589     2.516
    76   1 H        0.926     0.034     2.530     2.488
    77   1 H        0.926     0.023     2.681     2.561
    78   1 H        0.926     0.036     2.501     2.473
    79   1 H        0.926     0.036     2.508     2.477
    80   1 H        0.926     0.030     2.587     2.515
    81   1 H        0.926     0.029     2.604     2.523
    82   1 H        0.926     0.029     2.605     2.524
    83   1 H        0.926     0.029     2.606     2.524
    84   1 H        0.926     0.030     2.582     2.513
    85   1 H        0.926     0.035     2.521     2.483
    86   1 H        0.926     0.029     2.594     2.518
    87   1 H        0.926     0.066     2.133     2.284
    88   1 H        0.926     0.061     2.191     2.315
    89   1 H        0.926     0.042     2.417     2.431
    90   1 H        0.925     0.048     2.348     2.396
    91   1 H        0.925     0.048     2.348     2.396
    92   1 H        0.926     0.042     2.417     2.431
    93   1 H        0.926     0.061     2.191     2.315
    94   1 H        0.926     0.066     2.133     2.284
    95   1 H        0.926     0.024     2.679     2.560
    96   1 H        0.926     0.034     2.537     2.491
    97   1 H        0.926     0.030     2.589     2.516
    98   1 H        0.926     0.028     2.608     2.525
    99   1 H        0.926     0.028     2.609     2.526
   100   1 H        0.926     0.027     2.623     2.533
   101   1 H        0.926     0.031     2.577     2.511
   102   1 H        0.926     0.037     2.494     2.470
   103   1 H        0.926     0.036     2.508     2.477
   104   1 H        0.926     0.030     2.581     2.512
   105   1 H        0.926     0.029     2.600     2.522
   106   1 H        0.926     0.029     2.603     2.523
   107   1 H        0.926     0.029     2.603     2.523
   108   1 H        0.926     0.029     2.596     2.520
   109   1 H        0.926     0.035     2.515     2.480
   110   1 H        0.926     0.030     2.591     2.517
   111   1 H        0.926     0.031     2.577     2.511
   112   1 H        0.926     0.028     2.610     2.526

molecular dipole:
                 x           y           z       tot (Debye)
 q only:        0.304       0.034      -0.002
   full:        0.798       0.038       0.001       2.032

 projected vibrational frequencies (cm⁻¹)
eigval :       -0.00    -0.00    -0.00     0.00     0.00     0.00
eigval :       10.65    13.00    13.76    16.36    19.32    21.96
eigval :       33.60    38.02    38.75    40.61    42.90    50.24
eigval :       51.13    56.03    65.47    66.46    73.54    80.29
eigval :       83.07    87.21    91.26    97.65   103.08   115.96
eigval :      121.98   126.61   139.63   142.62   144.52   155.39
eigval :      172.23   177.38   180.17   204.61   214.29   227.88
eigval :      230.27   242.80   246.00   255.05   263.10   274.00
eigval :      278.11   279.74   289.98   304.81   310.82   317.79
eigval :      332.33   336.93   358.28   361.20   371.98   372.42
eigval :      373.59   374.34   379.82   382.46   386.64   396.23
eigval :      401.67   404.60   406.98   423.37   434.38   434.83
eigval :      440.51   442.36   449.09   451.42   456.57   475.95
eigval :      477.11   481.91   488.69   497.46   502.89   521.85
eigval :      526.88   532.76   551.25   557.03   564.51   570.51
eigval :      571.54   577.94   585.36   586.60   587.10   591.86
eigval :      592.59   594.58   597.82   600.71   605.19   613.54
eigval :      622.60   624.52   632.39   642.32   646.88   665.38
eigval :      666.78   667.89   673.62   674.28   683.61   685.59
eigval :      691.20   700.99   703.78   706.36   707.41   709.89
eigval :      728.33   737.36   742.79   745.95   747.45   757.86
eigval :      758.09   759.41   760.40   774.57   788.02   795.18
eigval :      811.27   824.69   825.77   830.40   830.49   844.89
eigval :      847.08   859.14   864.82   872.16   873.07   874.48
eigval :      875.37   878.60   879.19   881.30   883.23   885.34
eigval :      889.87   899.94   901.81   902.66   904.59   905.65
eigval :      906.99   913.98   915.58   916.76   917.43   918.95
eigval :      919.18   928.33   928.51   929.18   930.42   931.00
eigval :      931.61   932.14   932.40   933.11   936.39   952.28
eigval :      961.09   972.61   973.02   981.87   982.82  1027.89
eigval :     1028.36  1048.66  1069.46  1070.05  1072.33  1073.04
eigval :     1073.51  1086.05  1086.46  1087.06  1088.09  1091.27
eigval :     1096.43  1103.03  1120.84  1122.06  1122.49  1122.93
eigval :     1123.90  1136.27  1138.27  1158.20  1158.99  1175.19
eigval :     1182.09  1182.39  1182.68  1183.45  1183.85  1186.07
eigval :     1195.74  1201.39  1202.14  1203.50  1203.84  1218.60
eigval :     1219.48  1220.57  1222.01  1222.78  1235.50  1240.30
eigval :     1249.86  1272.20  1272.57  1280.28  1281.43  1282.09
eigval :     1282.38  1283.27  1284.50  1285.57  1296.50  1299.77
eigval :     1304.89  1305.36  1308.13  1317.83  1319.21  1319.49
eigval :     1319.64  1320.46  1324.95  1345.89  1346.08  1350.25
eigval :     1351.45  1358.36  1359.20  1380.14  1389.26  1401.16
eigval :     1408.47  1409.39  1425.85  1426.27  1430.86  1431.52
eigval :     1433.42  1433.98  1437.05  1445.05  1451.61  1459.88
eigval :     1460.40  1463.81  1468.30  1468.95  1469.55  1494.64
eigval :     1494.81  1497.20  1497.62  1498.08  1520.23  1541.75
eigval :     1551.05  1563.56  1564.55  1565.63  1576.42  1576.79
eigval :     1577.19  1582.73  1583.02  1584.09  1585.03  1585.71
eigval :     1594.70  1595.48  1598.44  1598.69  1603.82  1604.27
eigval :     1615.86  1616.49  3055.26  3055.54  3068.50  3069.61
eigval :     3069.95  3070.65  3071.42  3071.53  3071.88  3072.19
eigval :     3078.71  3079.30  3079.41  3079.81  3080.47  3080.92
eigval :     3081.34  3082.06  3083.56  3083.79  3084.24  3085.60
eigval :     3087.53  3088.88  3088.99  3090.44  3090.94  3091.45
eigval :     3091.64  3091.98  3092.41  3092.68  3092.95  3093.38
eigval :     3094.60  3095.01  3099.74  3100.00  3104.03  3104.26

   temp. (K)  partition function   enthalpy   heat capacity  entropy
                                   cal/mol     cal/K/mol   cal/K/mol   J/K/mol
 298.15  VIB  0.290E+26            32594.563    206.665    202.990
         ROT  0.257E+09              888.752      2.981     41.466
         INT  0.748E+34            33483.316    209.646    244.456
         TR   0.269E+29             1481.254      4.968     46.302
         TOT                       34964.5695   214.6140   290.7586  1216.5339

       T/K    H(0)-H(T)+PV         H(T)/Eh          T*S/Eh         G(T)/Eh
   ------------------------------------------------------------------------
    298.15    0.557196E-01    0.903258E+00    0.138149E+00    0.765109E+00
   ------------------------------------------------------------------------

         :::::::::::::::::::::::::::::::::::::::::::::::::::::
         ::                  THERMODYNAMIC                  ::
         :::::::::::::::::::::::::::::::::::::::::::::::::::::
         :: total free energy        -178.615447530420 Eh   ::
         ::.................................................::
         :: total energy             -179.380556851291 Eh   ::
         :: zero point energy           0.847538518868 Eh   ::
         :: G(RRHO) w/o ZPVE           -0.082429197997 Eh   ::
         :: G(RRHO) contrib.            0.765109320871 Eh   ::
         :::::::::::::::::::::::::::::::::::::::::::::::::::::

           -------------------------------------------------
          | TOTAL ENERGY             -179.380556851291 Eh   |
          | TOTAL ENTHALPY           -178.477298744182 Eh   |
          | TOTAL FREE ENERGY        -178.615447530420 Eh   |
          | GRADIENT NORM               0.000024434001 Eh/α |
          | HOMO-LUMO GAP               1.306662309715 eV   |
           -------------------------------------------------

 * finished run on 2025/08/22 at 13:09:28.173
